<event>
 5    1  0.6835449E-004  0.9118800E+02  0.7818608E-02  0.1130116E+00
         25   -1    0    0    0    0  0.00000000000E+00  0.00000000000E+00  0.99999998245E-14  0.12500000000E+03  0.12500000000E+03 0.  0.
        -13    1    3    3    0    0 -0.12340516079E+02  0.40985015383E+02 -0.44554123770E+02  0.61783014915E+02  0.10566000000E+00 0.  1.
         23    2    1    0    0    0 -0.11621687613E+01  0.26614041286E+02 -0.26220292339E+02  0.87621375625E+02  0.79248620848E+02 0.  0.
         13    1    3    3    0    0  0.11178347317E+02 -0.14370974096E+02  0.18333831431E+02  0.25838360711E+02  0.10566000000E+00 0. -1.
         22    1    1    0    0    0  0.11621687613E+01 -0.26614041286E+02  0.26220292339E+02  0.37378624375E+02  0.00000000000E+00 0.  1.
</event>
<event>
 5    1  0.6835449E-004  0.9118800E+02  0.7818608E-02  0.1130116E+00
         25   -1    0    0    0    0  0.00000000000E+00  0.00000000000E+00  0.99999998245E-14  0.12500000000E+03  0.12500000000E+03 0.  0.
        -13    1    3    3    0    0 -0.28922553200E+02 -0.29214540766E+02 -0.86103416472E+01  0.42001816902E+02  0.10566000000E+00 0.  1.
         23    2    1    0    0    0  0.47298993862E+01 -0.84849141426E+01  0.27682999081E+02  0.95662069699E+02  0.91052278527E+02 0.  0.
         13    1    3    3    0    0  0.33652452586E+02  0.20729626623E+02  0.36293340728E+02  0.53660252797E+02  0.10566000000E+00 0. -1.
         22    1    1    0    0    0 -0.47298993862E+01  0.84849141426E+01 -0.27682999081E+02  0.29337930301E+02  0.00000000000E+00 0. -1.
</event>
<event>
 5    1  0.6835449E-004  0.9118800E+02  0.7818608E-02  0.1130116E+00
         25   -1    0    0    0    0  0.00000000000E+00  0.00000000000E+00  0.99999998245E-14  0.12500000000E+03  0.12500000000E+03 0.  0.
        -13    1    3    3    0    0 -0.76168028114E+01  0.57428628437E+02  0.12079152439E+02  0.59177530676E+02  0.10566000000E+00 0. -1.
         23    2    1    0    0    0  0.68667170877E+01  0.24521215580E+02  0.15328391370E+02  0.95277930774E+02  0.90523382026E+02 0.  0.
         13    1    3    3    0    0  0.14483519899E+02 -0.32907412857E+02  0.32492389306E+01  0.36100400098E+02  0.10566000000E+00 0.  1.
         22    1    1    0    0    0 -0.68667170877E+01 -0.24521215580E+02 -0.15328391370E+02  0.29722069226E+02  0.00000000000E+00 0. -1.
</event>
<event>
 5    1  0.6835449E-004  0.9118800E+02  0.7818608E-02  0.1130116E+00
         25   -1    0    0    0    0  0.00000000000E+00  0.00000000000E+00  0.99999998245E-14  0.12500000000E+03  0.12500000000E+03 0.  0.
        -13    1    3    3    0    0  0.73123788676E+01 -0.46869016169E+02  0.18138875607E+02  0.50785879274E+02  0.10566000000E+00 0.  1.
         23    2    1    0    0    0 -0.14665808310E+02 -0.24276797073E+02 -0.11821255724E+02  0.94272310591E+02  0.89123945423E+02 0.  0.
         13    1    3    3    0    0 -0.21978187177E+02  0.22592219096E+02 -0.29960131331E+02  0.43486431317E+02  0.10566000000E+00 0. -1.
         22    1    1    0    0    0  0.14665808310E+02  0.24276797073E+02  0.11821255724E+02  0.30727689409E+02  0.00000000000E+00 0.  1.
</event>
<event>
 5    1  0.6835449E-004  0.9118800E+02  0.7818608E-02  0.1130116E+00
         25   -1    0    0    0    0  0.00000000000E+00  0.00000000000E+00  0.99999998245E-14  0.12500000000E+03  0.12500000000E+03 0.  0.
        -13    1    3    3    0    0  0.33241539254E+02 -0.22014036870E+02 -0.10286426576E+02  0.41175714772E+02  0.10566000000E+00 0. -1.
         23    2    1    0    0    0 -0.18859146008E+02 -0.88231621187E+01 -0.20385417385E+02  0.95861008599E+02  0.91324980973E+02 0.  0.
         13    1    3    3    0    0 -0.52100685262E+02  0.13190874751E+02 -0.10098990809E+02  0.54685293826E+02  0.10566000000E+00 0.  1.
         22    1    1    0    0    0  0.18859146008E+02  0.88231621187E+01  0.20385417385E+02  0.29138991401E+02  0.00000000000E+00 0.  1.
</event>
<event>
 5    1  0.6835449E-004  0.9118800E+02  0.7818608E-02  0.1130116E+00
         25   -1    0    0    0    0  0.00000000000E+00  0.00000000000E+00  0.99999998245E-14  0.12500000000E+03  0.12500000000E+03 0.  0.
        -13    1    3    3    0    0 -0.36284099085E+02  0.13064450982E+02  0.47447509205E+02  0.61143217283E+02  0.10566000000E+00 0. -1.
         23    2    1    0    0    0 -0.17023429604E+02 -0.34444826364E+01  0.19151824575E+02  0.99145522619E+02  0.95715101498E+02 0.  0.
         13    1    3    3    0    0  0.19260669481E+02 -0.16508933619E+02 -0.28295684631E+02  0.38002305336E+02  0.10566000000E+00 0.  1.
         22    1    1    0    0    0  0.17023429604E+02  0.34444826364E+01 -0.19151824575E+02  0.25854477381E+02  0.00000000000E+00 0. -1.
</event>
<event>
 5    1  0.6835449E-004  0.9118800E+02  0.7818608E-02  0.1130116E+00
         25   -1    0    0    0    0  0.00000000000E+00  0.00000000000E+00  0.99999998245E-14  0.12500000000E+03  0.12500000000E+03 0.  0.
        -13    1    3    3    0    0  0.45676920300E+02  0.28414270569E+02 -0.14144962127E+02  0.55622324095E+02  0.10566000000E+00 0.  1.
         23    2    1    0    0    0  0.16224605218E+02  0.14947900322E+02  0.14286824163E+02  0.98717099034E+02  0.95153952931E+02 0.  0.
         13    1    3    3    0    0 -0.29452315082E+02 -0.13466370247E+02  0.28431786290E+02  0.43094774939E+02  0.10566000000E+00 0. -1.
         22    1    1    0    0    0 -0.16224605218E+02 -0.14947900322E+02 -0.14286824163E+02  0.26282900966E+02  0.00000000000E+00 0.  1.
</event>
<event>
 5    1  0.6835449E-004  0.9118800E+02  0.7818608E-02  0.1130116E+00
         25   -1    0    0    0    0  0.00000000000E+00  0.00000000000E+00  0.99999998245E-14  0.12500000000E+03  0.12500000000E+03 0.  0.
        -13    1    3    3    0    0 -0.15394421983E+01  0.18545850372E+02 -0.43281006417E+02  0.47112367047E+02  0.10566000000E+00 0.  1.
         23    2    1    0    0    0  0.16132460269E+01  0.31002626722E+02  0.17158148088E+01  0.93908048520E+02  0.88611580112E+02 0.  0.
         13    1    3    3    0    0  0.31526882252E+01  0.12456776350E+02  0.44996821225E+02  0.46795681473E+02  0.10566000000E+00 0. -1.
         22    1    1    0    0    0 -0.16132460269E+01 -0.31002626722E+02 -0.17158148088E+01  0.31091951480E+02  0.00000000000E+00 0. -1.
</event>
<event>
 5    1  0.6835449E-004  0.9118800E+02  0.7818608E-02  0.1130116E+00
         25   -1    0    0    0    0  0.00000000000E+00  0.00000000000E+00  0.99999998245E-14  0.12500000000E+03  0.12500000000E+03 0.  0.
        -13    1    3    3    0    0 -0.89613724966E+01 -0.37252242366E+02 -0.15458504976E+02  0.41316005355E+02  0.10566000000E+00 0. -1.
         23    2    1    0    0    0 -0.21036402344E+02  0.30227827144E+00  0.21174748313E+02  0.95150518232E+02  0.90347272000E+02 0.  0.
         13    1    3    3    0    0 -0.12075029847E+02  0.37554520638E+02  0.36633253289E+02  0.53834512877E+02  0.10566000000E+00 0.  1.
         22    1    1    0    0    0  0.21036402344E+02 -0.30227827144E+00 -0.21174748313E+02  0.29849481768E+02  0.00000000000E+00 0.  1.
</event>
<event>
 5    1  0.6835449E-004  0.9118800E+02  0.7818608E-02  0.1130116E+00
         25   -1    0    0    0    0  0.00000000000E+00  0.00000000000E+00  0.99999998245E-14  0.12500000000E+03  0.12500000000E+03 0.  0.
        -13    1    3    3    0    0 -0.26904410192E+02  0.14807461859E+02  0.40779193141E+02  0.51049603052E+02  0.10566000000E+00 0.  1.
         23    2    1    0    0    0 -0.19829977085E+02 -0.16978469227E+02  0.29726077114E+02  0.85438199370E+02  0.75726810593E+02 0.  0.
         13    1    3    3    0    0  0.70744331075E+01 -0.31785931086E+02 -0.11053116027E+02  0.34388596318E+02  0.10566000000E+00 0. -1.
         22    1    1    0    0    0  0.19829977085E+02  0.16978469227E+02 -0.29726077114E+02  0.39561800630E+02  0.00000000000E+00 0.  1.
</event>
<event>
 5    1  0.6835449E-004  0.9118800E+02  0.7818608E-02  0.1130116E+00
         25   -1    0    0    0    0  0.00000000000E+00  0.00000000000E+00  0.99999998245E-14  0.12500000000E+03  0.12500000000E+03 0.  0.
        -13    1    3    3    0    0  0.22197199588E+02  0.55889067293E+01 -0.51770064517E+02  0.56604790364E+02  0.10566000000E+00 0.  1.
         23    2    1    0    0    0  0.75619198831E+01 -0.16506894106E+02 -0.19698014598E+02  0.98210599774E+02  0.94486242086E+02 0.  0.
         13    1    3    3    0    0 -0.14635279705E+02 -0.22095800836E+02  0.32072049919E+02  0.41605809410E+02  0.10566000000E+00 0. -1.
         22    1    1    0    0    0 -0.75619198831E+01  0.16506894106E+02  0.19698014598E+02  0.26789400226E+02  0.00000000000E+00 0.  1.
</event>
<event>
 5    1  0.6835449E-004  0.9118800E+02  0.7818608E-02  0.1130116E+00
         25   -1    0    0    0    0  0.00000000000E+00  0.00000000000E+00  0.99999998245E-14  0.12500000000E+03  0.12500000000E+03 0.  0.
        -13    1    3    3    0    0  0.54584307676E+01 -0.44660303050E+02 -0.23586421995E+02  0.50800271668E+02  0.10566000000E+00 0. -1.
         23    2    1    0    0    0  0.44500153913E+01 -0.22721644693E+02  0.16541359261E+02  0.96544906595E+02  0.92256309533E+02 0.  0.
         13    1    3    3    0    0 -0.10084153763E+01  0.21938658357E+02  0.40127781256E+02  0.45744634927E+02  0.10566000000E+00 0.  1.
         22    1    1    0    0    0 -0.44500153913E+01  0.22721644693E+02 -0.16541359261E+02  0.28455093405E+02  0.00000000000E+00 0. -1.
</event>
<event>
 5    1  0.6835449E-004  0.9118800E+02  0.7818608E-02  0.1130116E+00
         25   -1    0    0    0    0  0.00000000000E+00  0.00000000000E+00  0.99999998245E-14  0.12500000000E+03  0.12500000000E+03 0.  0.
        -13    1    3    3    0    0 -0.42128067294E+02  0.18754415948E+02  0.40969048328E+02  0.61684489594E+02  0.10566000000E+00 0. -1.
         23    2    1    0    0    0 -0.14512270798E+02  0.13204006317E+02  0.21302359855E+02  0.96038951643E+02  0.91568214522E+02 0.  0.
         13    1    3    3    0    0  0.27615796496E+02 -0.55504096318E+01 -0.19666688473E+02  0.34354462050E+02  0.10566000000E+00 0.  1.
         22    1    1    0    0    0  0.14512270798E+02 -0.13204006317E+02 -0.21302359855E+02  0.28961048357E+02  0.00000000000E+00 0. -1.
</event>
<event>
 5    1  0.6835449E-004  0.9118800E+02  0.7818608E-02  0.1130116E+00
         25   -1    0    0    0    0  0.00000000000E+00  0.00000000000E+00  0.99999998245E-14  0.12500000000E+03  0.12500000000E+03 0.  0.
        -13    1    3    3    0    0 -0.42497977606E+02  0.38251389099E+02  0.24558527746E+02  0.62228444603E+02  0.10566000000E+00 0.  1.
         23    2    1    0    0    0 -0.20045512984E+02  0.12912136120E+02  0.86517468006E+01  0.99634697465E+02  0.96351825963E+02 0.  0.
         13    1    3    3    0    0  0.22452464622E+02 -0.25339252979E+02 -0.15906780945E+02  0.37406252862E+02  0.10566000000E+00 0. -1.
         22    1    1    0    0    0  0.20045512984E+02 -0.12912136120E+02 -0.86517468006E+01  0.25365302535E+02  0.00000000000E+00 0.  1.
</event>
<event>
 5    1  0.6835449E-004  0.9118800E+02  0.7818608E-02  0.1130116E+00
         25   -1    0    0    0    0  0.00000000000E+00  0.00000000000E+00  0.99999998245E-14  0.12500000000E+03  0.12500000000E+03 0.  0.
        -13    1    3    3    0    0 -0.34579612408E+01 -0.17880231804E+02  0.32105868223E+02  0.36911490402E+02  0.10566000000E+00 0. -1.
         23    2    1    0    0    0  0.20947213490E+02  0.17038945204E+02 -0.94179202615E+01  0.96402646474E+02  0.92063356545E+02 0.  0.
         13    1    3    3    0    0  0.24405174731E+02  0.34919177008E+02 -0.41523788485E+02  0.59491156072E+02  0.10566000000E+00 0.  1.
         22    1    1    0    0    0 -0.20947213490E+02 -0.17038945204E+02  0.94179202615E+01  0.28597353526E+02  0.00000000000E+00 0.  1.
</event>
<event>
 5    1  0.6835449E-004  0.9118800E+02  0.7818608E-02  0.1130116E+00
         25   -1    0    0    0    0  0.00000000000E+00  0.00000000000E+00  0.99999998245E-14  0.12500000000E+03  0.12500000000E+03 0.  0.
        -13    1    3    3    0    0  0.33624916517E+02  0.19491664221E+02 -0.75066207045E+01  0.39584346696E+02  0.10566000000E+00 0. -1.
         23    2    1    0    0    0 -0.18041049299E+02  0.10661564058E+02  0.17536229622E+02  0.97674778000E+02  0.93774700746E+02 0.  0.
         13    1    3    3    0    0 -0.51665965816E+02 -0.88301001629E+01  0.25042850327E+02  0.58090431304E+02  0.10566000000E+00 0.  1.
         22    1    1    0    0    0  0.18041049299E+02 -0.10661564058E+02 -0.17536229622E+02  0.27325222000E+02  0.00000000000E+00 0.  1.
</event>
<event>
 5    1  0.6835449E-004  0.9118800E+02  0.7818608E-02  0.1130116E+00
         25   -1    0    0    0    0  0.00000000000E+00  0.00000000000E+00  0.99999998245E-14  0.12500000000E+03  0.12500000000E+03 0.  0.
        -13    1    3    3    0    0 -0.42434362697E+02 -0.16379844160E+02 -0.22587380853E+02  0.50785582305E+02  0.10566000000E+00 0.  1.
         23    2    1    0    0    0 -0.14728653552E+02 -0.22252358473E+02  0.12212036300E+02  0.95653202498E+02  0.91040104484E+02 0.  0.
         13    1    3    3    0    0  0.27705709145E+02 -0.58725143132E+01  0.34799417153E+02  0.44867620193E+02  0.10566000000E+00 0. -1.
         22    1    1    0    0    0  0.14728653552E+02  0.22252358473E+02 -0.12212036300E+02  0.29346797502E+02  0.00000000000E+00 0.  1.
</event>
<event>
 5    1  0.6835449E-004  0.9118800E+02  0.7818608E-02  0.1130116E+00
         25   -1    0    0    0    0  0.00000000000E+00  0.00000000000E+00  0.99999998245E-14  0.12500000000E+03  0.12500000000E+03 0.  0.
        -13    1    3    3    0    0  0.24686627453E+02 -0.29200195472E+01  0.51277535950E+02  0.56985550329E+02  0.10566000000E+00 0. -1.
         23    2    1    0    0    0  0.27645636658E+02 -0.21707983695E+01  0.14845185634E+02  0.93545697777E+02  0.88098946897E+02 0.  0.
         13    1    3    3    0    0  0.29590092051E+01  0.74922117770E+00 -0.36432350316E+02  0.36560147448E+02  0.10566000000E+00 0.  1.
         22    1    1    0    0    0 -0.27645636658E+02  0.21707983695E+01 -0.14845185634E+02  0.31454302223E+02  0.00000000000E+00 0. -1.
</event>
<event>
 5    1  0.6835449E-004  0.9118800E+02  0.7818608E-02  0.1130116E+00
         25   -1    0    0    0    0  0.00000000000E+00  0.00000000000E+00  0.99999998245E-14  0.12500000000E+03  0.12500000000E+03 0.  0.
        -13    1    3    3    0    0 -0.10480928021E+02  0.26854121584E+02 -0.48594266999E+02  0.56501395093E+02  0.10566000000E+00 0. -1.
         23    2    1    0    0    0 -0.22115035402E+02  0.96211286389E+01 -0.13317277479E+02  0.97450212586E+02  0.93474879762E+02 0.  0.
         13    1    3    3    0    0 -0.11634107381E+02 -0.17232992946E+02  0.35276989520E+02  0.40948817493E+02  0.10566000000E+00 0.  1.
         22    1    1    0    0    0  0.22115035402E+02 -0.96211286389E+01  0.13317277479E+02  0.27549787414E+02  0.00000000000E+00 0. -1.
</event>
<event>
 5    1  0.6835449E-004  0.9118800E+02  0.7818608E-02  0.1130116E+00
         25   -1    0    0    0    0  0.00000000000E+00  0.00000000000E+00  0.99999998245E-14  0.12500000000E+03  0.12500000000E+03 0.  0.
        -13    1    3    3    0    0 -0.22254967106E+02 -0.39317335920E+02  0.36257805764E+02  0.57929060993E+02  0.10566000000E+00 0. -1.
         23    2    1    0    0    0 -0.20560926585E+02 -0.47147769029E+01  0.18893724817E+02  0.96681213643E+02  0.92440810310E+02 0.  0.
         13    1    3    3    0    0  0.16940405212E+01  0.34602559017E+02 -0.17364080946E+02  0.38752152650E+02  0.10566000000E+00 0.  1.
         22    1    1    0    0    0  0.20560926585E+02  0.47147769029E+01 -0.18893724817E+02  0.28318786357E+02  0.00000000000E+00 0. -1.
</event>
<event>
 5    1  0.6835449E-004  0.9118800E+02  0.7818608E-02  0.1130116E+00
         25   -1    0    0    0    0  0.00000000000E+00  0.00000000000E+00  0.99999998245E-14  0.12500000000E+03  0.12500000000E+03 0.  0.
        -13    1    3    3    0    0 -0.15594986873E+02 -0.28741961916E+02  0.83643363630E+01  0.33753181734E+02  0.10566000000E+00 0. -1.
         23    2    1    0    0    0  0.14771120340E+02  0.22276301000E+02 -0.10845169208E+02  0.96154943621E+02  0.91726418797E+02 0.  0.
         13    1    3    3    0    0  0.30366107213E+02  0.51018262916E+02 -0.19209505571E+02  0.62401761887E+02  0.10566000000E+00 0.  1.
         22    1    1    0    0    0 -0.14771120340E+02 -0.22276301000E+02  0.10845169208E+02  0.28845056379E+02  0.00000000000E+00 0.  1.
</event>
<event>
 5    1  0.6835449E-004  0.9118800E+02  0.7818608E-02  0.1130116E+00
         25   -1    0    0    0    0  0.00000000000E+00  0.00000000000E+00  0.99999998245E-14  0.12500000000E+03  0.12500000000E+03 0.  0.
        -13    1    3    3    0    0 -0.13428986760E+02  0.51650688627E+02 -0.14145359901E+02  0.55210811367E+02  0.10566000000E+00 0. -1.
         23    2    1    0    0    0 -0.41828722516E+00  0.16051952930E+02 -0.25577936184E+02  0.94799487148E+02  0.89860290379E+02 0.  0.
         13    1    3    3    0    0  0.13010699535E+02 -0.35598735697E+02 -0.11432576283E+02  0.39588675781E+02  0.10566000000E+00 0.  1.
         22    1    1    0    0    0  0.41828722516E+00 -0.16051952930E+02  0.25577936184E+02  0.30200512852E+02  0.00000000000E+00 0. -1.
</event>
<event>
 5    1  0.6835449E-004  0.9118800E+02  0.7818608E-02  0.1130116E+00
         25   -1    0    0    0    0  0.00000000000E+00  0.00000000000E+00  0.99999998245E-14  0.12500000000E+03  0.12500000000E+03 0.  0.
        -13    1    3    3    0    0 -0.10821848116E+02 -0.18175459187E+02  0.32336927338E+02  0.38641269997E+02  0.10566000000E+00 0.  1.
         23    2    1    0    0    0 -0.22520702490E+02  0.87226994305E+01 -0.16598974305E+02  0.95694821721E+02  0.91097230639E+02 0.  0.
         13    1    3    3    0    0 -0.11698854374E+02  0.26898158617E+02 -0.48935901643E+02  0.57053551724E+02  0.10566000000E+00 0. -1.
         22    1    1    0    0    0  0.22520702490E+02 -0.87226994305E+01  0.16598974305E+02  0.29305178279E+02  0.00000000000E+00 0. -1.
</event>
<event>
 5    1  0.6835449E-004  0.9118800E+02  0.7818608E-02  0.1130116E+00
         25   -1    0    0    0    0  0.00000000000E+00  0.00000000000E+00  0.99999998245E-14  0.12500000000E+03  0.12500000000E+03 0.  0.
        -13    1    3    3    0    0  0.71596980800E+01 -0.36830211489E+02 -0.48254439280E+02  0.61124690831E+02  0.10566000000E+00 0.  1.
         23    2    1    0    0    0 -0.41322971277E+01 -0.21637793741E+02 -0.19330576541E+02  0.95692301575E+02  0.91093772531E+02 0.  0.
         13    1    3    3    0    0 -0.11291995208E+02  0.15192417747E+02  0.28923862739E+02  0.34567610744E+02  0.10566000000E+00 0. -1.
         22    1    1    0    0    0  0.41322971277E+01  0.21637793741E+02  0.19330576541E+02  0.29307698425E+02  0.00000000000E+00 0.  1.
</event>
<event>
 5    1  0.6835449E-004  0.9118800E+02  0.7818608E-02  0.1130116E+00
         25   -1    0    0    0    0  0.00000000000E+00  0.00000000000E+00  0.99999998245E-14  0.12500000000E+03  0.12500000000E+03 0.  0.
        -13    1    3    3    0    0 -0.22645575885E+02 -0.40291270152E+02 -0.15731166601E+02  0.48823040916E+02  0.10566000000E+00 0.  1.
         23    2    1    0    0    0 -0.19471291809E+02 -0.19262823139E+02  0.20468268170E+02  0.90807346376E+02  0.84123935915E+02 0.  0.
         13    1    3    3    0    0  0.31742840760E+01  0.21028447013E+02  0.36199434771E+02  0.41984305460E+02  0.10566000000E+00 0. -1.
         22    1    1    0    0    0  0.19471291809E+02  0.19262823139E+02 -0.20468268170E+02  0.34192653624E+02  0.00000000000E+00 0. -1.
</event>
<event>
 5    1  0.6835449E-004  0.9118800E+02  0.7818608E-02  0.1130116E+00
         25   -1    0    0    0    0  0.00000000000E+00  0.00000000000E+00  0.99999998245E-14  0.12500000000E+03  0.12500000000E+03 0.  0.
        -13    1    3    3    0    0  0.15881216355E+02  0.51630783441E+02 -0.15294122015E+02  0.56141536886E+02  0.10566000000E+00 0. -1.
         23    2    1    0    0    0 -0.10070561766E+02  0.21997013894E+02 -0.16774867690E+02  0.95560553325E+02  0.90912806200E+02 0.  0.
         13    1    3    3    0    0 -0.25951778121E+02 -0.29633769547E+02 -0.14807456749E+01  0.39419016439E+02  0.10566000000E+00 0.  1.
         22    1    1    0    0    0  0.10070561766E+02 -0.21997013894E+02  0.16774867690E+02  0.29439446675E+02  0.00000000000E+00 0.  1.
</event>
<event>
 5    1  0.6835449E-004  0.9118800E+02  0.7818608E-02  0.1130116E+00
         25   -1    0    0    0    0  0.00000000000E+00  0.00000000000E+00  0.99999998245E-14  0.12500000000E+03  0.12500000000E+03 0.  0.
        -13    1    3    3    0    0 -0.90609431240E+01  0.31188750736E+02 -0.84945386890E+01  0.33570928113E+02  0.10566000000E+00 0.  1.
         23    2    1    0    0    0  0.52645503040E+01 -0.28796132124E+02 -0.46188410094E+01  0.95364440152E+02  0.90642760539E+02 0.  0.
         13    1    3    3    0    0  0.14325493428E+02 -0.59984882860E+02  0.38756976795E+01  0.61793512040E+02  0.10566000000E+00 0. -1.
         22    1    1    0    0    0 -0.52645503040E+01  0.28796132124E+02  0.46188410094E+01  0.29635559848E+02  0.00000000000E+00 0. -1.
</event>
<event>
 5    1  0.6835449E-004  0.9118800E+02  0.7818608E-02  0.1130116E+00
         25   -1    0    0    0    0  0.00000000000E+00  0.00000000000E+00  0.99999998245E-14  0.12500000000E+03  0.12500000000E+03 0.  0.
        -13    1    3    3    0    0  0.19382522933E+02 -0.15191660705E+02  0.28523290286E+02  0.37683656975E+02  0.10566000000E+00 0.  1.
         23    2    1    0    0    0  0.51481816287E+00 -0.10648251366E+02 -0.26717360073E+02  0.96234263017E+02  0.91834447536E+02 0.  0.
         13    1    3    3    0    0 -0.18867704771E+02  0.45434093386E+01 -0.55240650359E+02  0.58550606042E+02  0.10566000000E+00 0. -1.
         22    1    1    0    0    0 -0.51481816287E+00  0.10648251366E+02  0.26717360073E+02  0.28765736983E+02  0.00000000000E+00 0. -1.
</event>
<event>
 5    1  0.6835449E-004  0.9118800E+02  0.7818608E-02  0.1130116E+00
         25   -1    0    0    0    0  0.00000000000E+00  0.00000000000E+00  0.99999998245E-14  0.12500000000E+03  0.12500000000E+03 0.  0.
        -13    1    3    3    0    0  0.11578167388E+02 -0.10546431405E+02 -0.39856627583E+02  0.42823394328E+02  0.10566000000E+00 0. -1.
         23    2    1    0    0    0  0.21444833395E+02  0.21041584457E+02  0.42186479249E+00  0.94953250996E+02  0.90073929353E+02 0.  0.
         13    1    3    3    0    0  0.98666660076E+01  0.31588015862E+02  0.40278492375E+02  0.52129856668E+02  0.10566000000E+00 0.  1.
         22    1    1    0    0    0 -0.21444833395E+02 -0.21041584457E+02 -0.42186479249E+00  0.30046749004E+02  0.00000000000E+00 0. -1.
</event>
<event>
 5    1  0.6835449E-004  0.9118800E+02  0.7818608E-02  0.1130116E+00
         25   -1    0    0    0    0  0.00000000000E+00  0.00000000000E+00  0.99999998245E-14  0.12500000000E+03  0.12500000000E+03 0.  0.
        -13    1    3    3    0    0 -0.42784080521E+02 -0.17970835418E+02  0.19452540687E+02  0.50317402306E+02  0.10566000000E+00 0. -1.
         23    2    1    0    0    0 -0.15652476772E+01 -0.29306134319E+02  0.73851796001E+01  0.94737145099E+02  0.89773527695E+02 0.  0.
         13    1    3    3    0    0  0.41218832844E+02 -0.11335298901E+02 -0.12067361087E+02  0.44419742793E+02  0.10566000000E+00 0.  1.
         22    1    1    0    0    0  0.15652476772E+01  0.29306134319E+02 -0.73851796001E+01  0.30262854901E+02  0.00000000000E+00 0.  1.
</event>
<event>
 5    1  0.6835449E-004  0.9118800E+02  0.7818608E-02  0.1130116E+00
         25   -1    0    0    0    0  0.00000000000E+00  0.00000000000E+00  0.99999998245E-14  0.12500000000E+03  0.12500000000E+03 0.  0.
        -13    1    3    3    0    0 -0.24310715666E+02 -0.29376525678E+02 -0.19736566461E+02  0.42936399206E+02  0.10566000000E+00 0. -1.
         23    2    1    0    0    0  0.35884092743E+01 -0.15317399286E+02  0.23768376508E+02  0.96496752398E+02  0.92191041320E+02 0.  0.
         13    1    3    3    0    0  0.27899124940E+02  0.14059126392E+02  0.43504942968E+02  0.53560353192E+02  0.10566000000E+00 0.  1.
         22    1    1    0    0    0 -0.35884092743E+01  0.15317399286E+02 -0.23768376508E+02  0.28503247602E+02  0.00000000000E+00 0.  1.
</event>
<event>
 5    1  0.6835449E-004  0.9118800E+02  0.7818608E-02  0.1130116E+00
         25   -1    0    0    0    0  0.00000000000E+00  0.00000000000E+00  0.99999998245E-14  0.12500000000E+03  0.12500000000E+03 0.  0.
        -13    1    3    3    0    0  0.33072806394E+02 -0.25986106645E+02 -0.35431613368E+02  0.54995442095E+02  0.10566000000E+00 0.  1.
         23    2    1    0    0    0 -0.37977372263E+01 -0.10543308989E+02 -0.26884907416E+02  0.95872995018E+02  0.91341385770E+02 0.  0.
         13    1    3    3    0    0 -0.36870543620E+02  0.15442797656E+02  0.85467059522E+01  0.40877552923E+02  0.10566000000E+00 0. -1.
         22    1    1    0    0    0  0.37977372263E+01  0.10543308989E+02  0.26884907416E+02  0.29127004982E+02  0.00000000000E+00 0. -1.
</event>
<event>
 5    1  0.6835449E-004  0.9118800E+02  0.7818608E-02  0.1130116E+00
         25   -1    0    0    0    0  0.00000000000E+00  0.00000000000E+00  0.99999998245E-14  0.12500000000E+03  0.12500000000E+03 0.  0.
        -13    1    3    3    0    0  0.26516946647E+02 -0.96540058871E+01  0.51465017767E+02  0.58694186313E+02  0.10566000000E+00 0. -1.
         23    2    1    0    0    0  0.24103090569E+02 -0.60102337040E+01  0.13857274423E+02  0.96555212453E+02  0.92270272100E+02 0.  0.
         13    1    3    3    0    0 -0.24138560779E+01  0.36437721832E+01 -0.37607743344E+02  0.37861026140E+02  0.10566000000E+00 0.  1.
         22    1    1    0    0    0 -0.24103090569E+02  0.60102337040E+01 -0.13857274423E+02  0.28444787547E+02  0.00000000000E+00 0. -1.
</event>
<event>
 5    1  0.6835449E-004  0.9118800E+02  0.7818608E-02  0.1130116E+00
         25   -1    0    0    0    0  0.00000000000E+00  0.00000000000E+00  0.99999998245E-14  0.12500000000E+03  0.12500000000E+03 0.  0.
        -13    1    3    3    0    0  0.91946734804E+01 -0.42686876365E+02 -0.17545751659E+01  0.43701271518E+02  0.10566000000E+00 0.  1.
         23    2    1    0    0    0  0.17992473059E+02  0.42021906489E+01 -0.22637802919E+02  0.95779157883E+02  0.91212879961E+02 0.  0.
         13    1    3    3    0    0  0.87977995785E+01  0.46889067014E+02 -0.20883227753E+02  0.52077886365E+02  0.10566000000E+00 0. -1.
         22    1    1    0    0    0 -0.17992473059E+02 -0.42021906489E+01  0.22637802919E+02  0.29220842117E+02  0.00000000000E+00 0. -1.
</event>
<event>
 5    1  0.6835449E-004  0.9118800E+02  0.7818608E-02  0.1130116E+00
         25   -1    0    0    0    0  0.00000000000E+00  0.00000000000E+00  0.99999998245E-14  0.12500000000E+03  0.12500000000E+03 0.  0.
        -13    1    3    3    0    0  0.19354550278E+02  0.31370856093E+02 -0.11793932567E+02  0.38701902251E+02  0.10566000000E+00 0.  1.
         23    2    1    0    0    0 -0.12237402067E+01 -0.43786819840E+01  0.28365920362E+02  0.96272037420E+02  0.91885849590E+02 0.  0.
         13    1    3    3    0    0 -0.20578290484E+02 -0.35749538077E+02  0.40159852930E+02  0.57570135168E+02  0.10566000000E+00 0. -1.
         22    1    1    0    0    0  0.12237402067E+01  0.43786819840E+01 -0.28365920362E+02  0.28727962580E+02  0.00000000000E+00 0. -1.
</event>
<event>
 5    1  0.6835449E-004  0.9118800E+02  0.7818608E-02  0.1130116E+00
         25   -1    0    0    0    0  0.00000000000E+00  0.00000000000E+00  0.99999998245E-14  0.12500000000E+03  0.12500000000E+03 0.  0.
        -13    1    3    3    0    0 -0.28606007322E+02 -0.47486802762E+02  0.21173005971E+02  0.59343133026E+02  0.10566000000E+00 0.  1.
         23    2    1    0    0    0 -0.23183034780E+02 -0.19829650343E+02  0.16937555615E+00  0.94492675922E+02  0.89432482804E+02 0.  0.
         13    1    3    3    0    0  0.54229725425E+01  0.27657152420E+02 -0.21003630415E+02  0.35149542896E+02  0.10566000000E+00 0. -1.
         22    1    1    0    0    0  0.23183034780E+02  0.19829650343E+02 -0.16937555615E+00  0.30507324078E+02  0.00000000000E+00 0.  1.
</event>
<event>
 5    1  0.6835449E-004  0.9118800E+02  0.7818608E-02  0.1130116E+00
         25   -1    0    0    0    0  0.00000000000E+00  0.00000000000E+00  0.99999998245E-14  0.12500000000E+03  0.12500000000E+03 0.  0.
        -13    1    3    3    0    0 -0.29307015808E+02 -0.37900874541E+02 -0.45476366223E+01  0.48125561081E+02  0.10566000000E+00 0. -1.
         23    2    1    0    0    0 -0.34520204503E+02  0.37385170584E+01 -0.34834134061E+01  0.90103650654E+02  0.83071732037E+02 0.  0.
         13    1    3    3    0    0 -0.52131886949E+01  0.41639391599E+02  0.10642232162E+01  0.41978089573E+02  0.10566000000E+00 0.  1.
         22    1    1    0    0    0  0.34520204503E+02 -0.37385170584E+01  0.34834134061E+01  0.34896349346E+02  0.00000000000E+00 0. -1.
</event>
<event>
 5    1  0.6835449E-004  0.9118800E+02  0.7818608E-02  0.1130116E+00
         25   -1    0    0    0    0  0.00000000000E+00  0.00000000000E+00  0.99999998245E-14  0.12500000000E+03  0.12500000000E+03 0.  0.
        -13    1    3    3    0    0 -0.27100472346E+01  0.10543093717E+02 -0.49949340413E+02  0.51121902868E+02  0.10566000000E+00 0.  1.
         23    2    1    0    0    0  0.25342123165E+02  0.48391386714E+01 -0.23070763571E+02  0.90389299323E+02  0.83500448088E+02 0.  0.
         13    1    3    3    0    0  0.28052170399E+02 -0.57039550454E+01  0.26878576842E+02  0.39267396455E+02  0.10566000000E+00 0. -1.
         22    1    1    0    0    0 -0.25342123165E+02 -0.48391386714E+01  0.23070763571E+02  0.34610700677E+02  0.00000000000E+00 0.  1.
</event>
<event>
 5    1  0.6835449E-004  0.9118800E+02  0.7818608E-02  0.1130116E+00
         25   -1    0    0    0    0  0.00000000000E+00  0.00000000000E+00  0.99999998245E-14  0.12500000000E+03  0.12500000000E+03 0.  0.
        -13    1    3    3    0    0 -0.93536991219E+01 -0.35138082486E+02  0.25629748790E+02  0.44486758874E+02  0.10566000000E+00 0. -1.
         23    2    1    0    0    0 -0.26840306423E+02  0.14385172590E+01 -0.77765188246E+01  0.97018834445E+02  0.92896224957E+02 0.  0.
         13    1    3    3    0    0 -0.17486607301E+02  0.36576599745E+02 -0.33406267615E+02  0.52532075571E+02  0.10566000000E+00 0.  1.
         22    1    1    0    0    0  0.26840306423E+02 -0.14385172590E+01  0.77765188246E+01  0.27981165555E+02  0.00000000000E+00 0. -1.
</event>
<event>
 5    1  0.6835449E-004  0.9118800E+02  0.7818608E-02  0.1130116E+00
         25   -1    0    0    0    0  0.00000000000E+00  0.00000000000E+00  0.99999998245E-14  0.12500000000E+03  0.12500000000E+03 0.  0.
        -13    1    3    3    0    0 -0.44632270471E+02  0.16003096771E+02 -0.13568553690E+02  0.49317902297E+02  0.10566000000E+00 0. -1.
         23    2    1    0    0    0 -0.20111468761E+02 -0.13290249140E+01  0.21529511994E+02  0.95508350849E+02  0.90841002373E+02 0.  0.
         13    1    3    3    0    0  0.24520801710E+02 -0.17332121685E+02  0.35098065684E+02  0.46190448552E+02  0.10566000000E+00 0.  1.
         22    1    1    0    0    0  0.20111468761E+02  0.13290249140E+01 -0.21529511994E+02  0.29491649151E+02  0.00000000000E+00 0. -1.
</event>
<event>
 5    1  0.6835449E-004  0.9118800E+02  0.7818608E-02  0.1130116E+00
         25   -1    0    0    0    0  0.00000000000E+00  0.00000000000E+00  0.99999998245E-14  0.12500000000E+03  0.12500000000E+03 0.  0.
        -13    1    3    3    0    0  0.30578940115E+02 -0.29409247679E+02 -0.41911656999E+01  0.42632762772E+02  0.10566000000E+00 0.  1.
         23    2    1    0    0    0  0.12343072149E+02  0.20413441712E+02 -0.15058769110E+02  0.96789601922E+02  0.92587258737E+02 0.  0.
         13    1    3    3    0    0 -0.18235867966E+02  0.49822689392E+02 -0.10867603410E+02  0.54156839149E+02  0.10566000000E+00 0. -1.
         22    1    1    0    0    0 -0.12343072149E+02 -0.20413441712E+02  0.15058769110E+02  0.28210398078E+02  0.00000000000E+00 0. -1.
</event>
<event>
 5    1  0.6835449E-004  0.9118800E+02  0.7818608E-02  0.1130116E+00
         25   -1    0    0    0    0  0.00000000000E+00  0.00000000000E+00  0.99999998245E-14  0.12500000000E+03  0.12500000000E+03 0.  0.
        -13    1    3    3    0    0  0.42572127953E+02  0.28109901945E+02 -0.23404535476E+02  0.56127855034E+02  0.10566000000E+00 0.  1.
         23    2    1    0    0    0  0.22843774392E+02 -0.61620944809E+01 -0.16204029097E+02  0.96322831453E+02  0.91954922997E+02 0.  0.
         13    1    3    3    0    0 -0.19728353561E+02 -0.34271996426E+02  0.72005063789E+01  0.40194976420E+02  0.10566000000E+00 0. -1.
         22    1    1    0    0    0 -0.22843774392E+02  0.61620944809E+01  0.16204029097E+02  0.28677168547E+02  0.00000000000E+00 0.  1.
</event>
<event>
 5    1  0.6835449E-004  0.9118800E+02  0.7818608E-02  0.1130116E+00
         25   -1    0    0    0    0  0.00000000000E+00  0.00000000000E+00  0.99999998245E-14  0.12500000000E+03  0.12500000000E+03 0.  0.
        -13    1    3    3    0    0 -0.17721930295E+02  0.49023830405E+02  0.18913905531E+02  0.55454032742E+02  0.10566000000E+00 0.  1.
         23    2    1    0    0    0  0.84568793376E+01  0.27743895900E+02 -0.32412871049E+01  0.95815269233E+02  0.91262354277E+02 0.  0.
         13    1    3    3    0    0  0.26178809633E+02 -0.21279934504E+02 -0.22155192636E+02  0.40361236491E+02  0.10566000000E+00 0. -1.
         22    1    1    0    0    0 -0.84568793376E+01 -0.27743895900E+02  0.32412871049E+01  0.29184730767E+02  0.00000000000E+00 0.  1.
</event>
<event>
 5    1  0.6835449E-004  0.9118800E+02  0.7818608E-02  0.1130116E+00
         25   -1    0    0    0    0  0.00000000000E+00  0.00000000000E+00  0.99999998245E-14  0.12500000000E+03  0.12500000000E+03 0.  0.
        -13    1    3    3    0    0 -0.16355008228E+02 -0.47956202040E+02 -0.24908159039E+02  0.56459818978E+02  0.10566000000E+00 0. -1.
         23    2    1    0    0    0 -0.15019893536E+02 -0.88104337117E+01 -0.23626987090E+02  0.95649438456E+02  0.91034936227E+02 0.  0.
         13    1    3    3    0    0  0.13351146919E+01  0.39145768328E+02  0.12811719496E+01  0.39189619478E+02  0.10566000000E+00 0.  1.
         22    1    1    0    0    0  0.15019893536E+02  0.88104337117E+01  0.23626987090E+02  0.29350561544E+02  0.00000000000E+00 0. -1.
</event>
<event>
 5    1  0.6835449E-004  0.9118800E+02  0.7818608E-02  0.1130116E+00
         25   -1    0    0    0    0  0.00000000000E+00  0.00000000000E+00  0.99999998245E-14  0.12500000000E+03  0.12500000000E+03 0.  0.
        -13    1    3    3    0    0 -0.33188320417E+02  0.77412151911E+01 -0.42199202855E+02  0.54241818834E+02  0.10566000000E+00 0.  1.
         23    2    1    0    0    0 -0.88101475566E+01  0.24797168117E+02 -0.14198776710E+02  0.95098101956E+02  0.90274722315E+02 0.  0.
         13    1    3    3    0    0  0.24378172860E+02  0.17055952926E+02  0.28000426146E+02  0.40856283122E+02  0.10566000000E+00 0. -1.
         22    1    1    0    0    0  0.88101475566E+01 -0.24797168117E+02  0.14198776710E+02  0.29901898044E+02  0.00000000000E+00 0.  1.
</event>
<event>
 5    1  0.6835449E-004  0.9118800E+02  0.7818608E-02  0.1130116E+00
         25   -1    0    0    0    0  0.00000000000E+00  0.00000000000E+00  0.99999998245E-14  0.12500000000E+03  0.12500000000E+03 0.  0.
        -13    1    3    3    0    0 -0.35259384143E+02 -0.35946483704E+02  0.32405811232E+02  0.59879225333E+02  0.10566000000E+00 0.  1.
         23    2    1    0    0    0 -0.28465325578E+02 -0.18331067820E+02  0.89689226833E+01  0.89975089125E+02  0.82878056693E+02 0.  0.
         13    1    3    3    0    0  0.67940585643E+01  0.17615415884E+02 -0.23436888548E+02  0.30095863793E+02  0.10566000000E+00 0. -1.
         22    1    1    0    0    0  0.28465325578E+02  0.18331067820E+02 -0.89689226833E+01  0.35024910875E+02  0.00000000000E+00 0.  1.
</event>
<event>
 5    1  0.6835449E-004  0.9118800E+02  0.7818608E-02  0.1130116E+00
         25   -1    0    0    0    0  0.00000000000E+00  0.00000000000E+00  0.99999998245E-14  0.12500000000E+03  0.12500000000E+03 0.  0.
        -13    1    3    3    0    0 -0.41469860147E+02  0.36614187037E+02 -0.17534626879E+02  0.58032941480E+02  0.10566000000E+00 0.  1.
         23    2    1    0    0    0 -0.28621389547E+02  0.57774130580E+01  0.84702192134E-01  0.95801205235E+02  0.91243089102E+02 0.  0.
         13    1    3    3    0    0  0.12848470600E+02 -0.30836773979E+02  0.17619329071E+02  0.37768263756E+02  0.10566000000E+00 0. -1.
         22    1    1    0    0    0  0.28621389547E+02 -0.57774130580E+01 -0.84702192134E-01  0.29198794765E+02  0.00000000000E+00 0.  1.
</event>
<event>
 5    1  0.6835449E-004  0.9118800E+02  0.7818608E-02  0.1130116E+00
         25   -1    0    0    0    0  0.00000000000E+00  0.00000000000E+00  0.99999998245E-14  0.12500000000E+03  0.12500000000E+03 0.  0.
        -13    1    3    3    0    0  0.17986607586E+02  0.53740370285E+02  0.42452977534E+00  0.56672187538E+02  0.10566000000E+00 0.  1.
         23    2    1    0    0    0 -0.53836496737E+01  0.26882441164E+02  0.13295928736E+02  0.94529833480E+02  0.89484402943E+02 0.  0.
         13    1    3    3    0    0 -0.23370257260E+02 -0.26857929120E+02  0.12871398961E+02  0.37857645942E+02  0.10566000000E+00 0. -1.
         22    1    1    0    0    0  0.53836496737E+01 -0.26882441164E+02 -0.13295928736E+02  0.30470166520E+02  0.00000000000E+00 0.  1.
</event>
<event>
 5    1  0.6835449E-004  0.9118800E+02  0.7818608E-02  0.1130116E+00
         25   -1    0    0    0    0  0.00000000000E+00  0.00000000000E+00  0.99999998245E-14  0.12500000000E+03  0.12500000000E+03 0.  0.
        -13    1    3    3    0    0  0.61573193508E+00 -0.43473507534E+02 -0.45909623253E+01  0.43719710455E+02  0.10566000000E+00 0. -1.
         23    2    1    0    0    0 -0.18813762953E+02 -0.14147584897E+01  0.21099294854E+02  0.96695592899E+02  0.92460252134E+02 0.  0.
         13    1    3    3    0    0 -0.19429494888E+02  0.42058749044E+02  0.25690257179E+02  0.52975882444E+02  0.10566000000E+00 0.  1.
         22    1    1    0    0    0  0.18813762953E+02  0.14147584897E+01 -0.21099294854E+02  0.28304407101E+02  0.00000000000E+00 0.  1.
</event>
<event>
 5    1  0.6835449E-004  0.9118800E+02  0.7818608E-02  0.1130116E+00
         25   -1    0    0    0    0  0.00000000000E+00  0.00000000000E+00  0.99999998245E-14  0.12500000000E+03  0.12500000000E+03 0.  0.
        -13    1    3    3    0    0 -0.81048856173E+01 -0.27332923129E+02  0.32453233613E+02  0.43197238264E+02  0.10566000000E+00 0.  1.
         23    2    1    0    0    0  0.23920229976E+02 -0.14594843452E+02 -0.75298049187E+01  0.95984748500E+02  0.91494191756E+02 0.  0.
         13    1    3    3    0    0  0.32025115593E+02  0.12738079678E+02 -0.39983038532E+02  0.52787510236E+02  0.10566000000E+00 0. -1.
         22    1    1    0    0    0 -0.23920229976E+02  0.14594843452E+02  0.75298049187E+01  0.29015251500E+02  0.00000000000E+00 0.  1.
</event>
<event>
 5    1  0.6835449E-004  0.9118800E+02  0.7818608E-02  0.1130116E+00
         25   -1    0    0    0    0  0.00000000000E+00  0.00000000000E+00  0.99999998245E-14  0.12500000000E+03  0.12500000000E+03 0.  0.
        -13    1    3    3    0    0 -0.82093344001E+01 -0.36527426878E+02 -0.21081172596E+01  0.37498018721E+02  0.10566000000E+00 0.  1.
         23    2    1    0    0    0  0.22523929174E+02  0.14278802419E+02  0.66391778302E+01  0.97517455245E+02  0.93564757314E+02 0.  0.
         13    1    3    3    0    0  0.30733263574E+02  0.50806229297E+02  0.87472950897E+01  0.60019436524E+02  0.10566000000E+00 0. -1.
         22    1    1    0    0    0 -0.22523929174E+02 -0.14278802419E+02 -0.66391778302E+01  0.27482544755E+02  0.00000000000E+00 0. -1.
</event>
<event>
 5    1  0.6835449E-004  0.9118800E+02  0.7818608E-02  0.1130116E+00
         25   -1    0    0    0    0  0.00000000000E+00  0.00000000000E+00  0.99999998245E-14  0.12500000000E+03  0.12500000000E+03 0.  0.
        -13    1    3    3    0    0 -0.21715266753E+02 -0.27075155996E+02 -0.38550859369E+02  0.51872890844E+02  0.10566000000E+00 0. -1.
         23    2    1    0    0    0 -0.85090946787E+01  0.13575111434E+02 -0.22171455924E+02  0.97645625569E+02  0.93735833022E+02 0.  0.
         13    1    3    3    0    0  0.13206172074E+02  0.40650267430E+02  0.16379403445E+02  0.45772734726E+02  0.10566000000E+00 0.  1.
         22    1    1    0    0    0  0.85090946787E+01 -0.13575111434E+02  0.22171455924E+02  0.27354374431E+02  0.00000000000E+00 0. -1.
</event>
<event>
 5    1  0.6835449E-004  0.9118800E+02  0.7818608E-02  0.1130116E+00
         25   -1    0    0    0    0  0.00000000000E+00  0.00000000000E+00  0.99999998245E-14  0.12500000000E+03  0.12500000000E+03 0.  0.
        -13    1    3    3    0    0 -0.12142904508E+02 -0.42864878559E+02 -0.13023988533E+02  0.46416412885E+02  0.10566000000E+00 0.  1.
         23    2    1    0    0    0  0.13984768493E+02 -0.17853035487E+02  0.19524398479E+02  0.95074981005E+02  0.90242701927E+02 0.  0.
         13    1    3    3    0    0  0.26127673002E+02  0.25011843072E+02  0.32548387012E+02  0.48658568119E+02  0.10566000000E+00 0. -1.
         22    1    1    0    0    0 -0.13984768493E+02  0.17853035487E+02 -0.19524398479E+02  0.29925018995E+02  0.00000000000E+00 0. -1.
</event>
<event>
 5    1  0.6835449E-004  0.9118800E+02  0.7818608E-02  0.1130116E+00
         25   -1    0    0    0    0  0.00000000000E+00  0.00000000000E+00  0.99999998245E-14  0.12500000000E+03  0.12500000000E+03 0.  0.
        -13    1    3    3    0    0 -0.34166612915E+02  0.10553777899E+02  0.50226196401E+02  0.61655669934E+02  0.10566000000E+00 0.  1.
         23    2    1    0    0    0 -0.17262823731E+02  0.11089467669E+02  0.19689342120E+02  0.96563200436E+02  0.92281092912E+02 0.  0.
         13    1    3    3    0    0  0.16903789184E+02  0.53568976996E+00 -0.30536854282E+02  0.34907530502E+02  0.10566000000E+00 0. -1.
         22    1    1    0    0    0  0.17262823731E+02 -0.11089467669E+02 -0.19689342120E+02  0.28436799564E+02  0.00000000000E+00 0.  1.
</event>
<event>
 5    1  0.6835449E-004  0.9118800E+02  0.7818608E-02  0.1130116E+00
         25   -1    0    0    0    0  0.00000000000E+00  0.00000000000E+00  0.99999998245E-14  0.12500000000E+03  0.12500000000E+03 0.  0.
        -13    1    3    3    0    0 -0.15561795677E+01  0.16786829011E+02  0.44450955338E+02  0.47540697488E+02  0.10566000000E+00 0.  1.
         23    2    1    0    0    0  0.27296745547E+02 -0.17357057499E+01  0.10766924703E+02  0.95605244354E+02  0.90974233102E+02 0.  0.
         13    1    3    3    0    0  0.28852925115E+02 -0.18522534761E+02 -0.33684030635E+02  0.48064546867E+02  0.10566000000E+00 0. -1.
         22    1    1    0    0    0 -0.27296745547E+02  0.17357057499E+01 -0.10766924703E+02  0.29394755646E+02  0.00000000000E+00 0.  1.
</event>
<event>
 5    1  0.6835449E-004  0.9118800E+02  0.7818608E-02  0.1130116E+00
         25   -1    0    0    0    0  0.00000000000E+00  0.00000000000E+00  0.99999998245E-14  0.12500000000E+03  0.12500000000E+03 0.  0.
        -13    1    3    3    0    0 -0.43499375887E+02  0.20058347891E+02 -0.23457134825E+02  0.53336491832E+02  0.10566000000E+00 0.  1.
         23    2    1    0    0    0 -0.18676025560E+02  0.81781814780E+01  0.14327710954E+02  0.10008093332E+03  0.96929011807E+02 0.  0.
         13    1    3    3    0    0  0.24823350327E+02 -0.11880166413E+02  0.37784845780E+02  0.46744441488E+02  0.10566000000E+00 0. -1.
         22    1    1    0    0    0  0.18676025560E+02 -0.81781814780E+01 -0.14327710954E+02  0.24919066680E+02  0.00000000000E+00 0. -1.
</event>
<event>
 5    1  0.6835449E-004  0.9118800E+02  0.7818608E-02  0.1130116E+00
         25   -1    0    0    0    0  0.00000000000E+00  0.00000000000E+00  0.99999998245E-14  0.12500000000E+03  0.12500000000E+03 0.  0.
        -13    1    3    3    0    0  0.21106960740E+02  0.17523038609E+02  0.45923357799E+02  0.53493239099E+02  0.10566000000E+00 0. -1.
         23    2    1    0    0    0  0.29383859559E+02  0.29316235859E+00  0.10408063347E+02  0.93825893286E+02  0.88495611878E+02 0.  0.
         13    1    3    3    0    0  0.82768988195E+01 -0.17229876251E+02 -0.35515294453E+02  0.40332654187E+02  0.10566000000E+00 0.  1.
         22    1    1    0    0    0 -0.29383859559E+02 -0.29316235859E+00 -0.10408063347E+02  0.31174106714E+02  0.00000000000E+00 0. -1.
</event>
<event>
 5    1  0.6835449E-004  0.9118800E+02  0.7818608E-02  0.1130116E+00
         25   -1    0    0    0    0  0.00000000000E+00  0.00000000000E+00  0.99999998245E-14  0.12500000000E+03  0.12500000000E+03 0.  0.
        -13    1    3    3    0    0  0.15186016357E+02  0.60390991880E+01 -0.45088773757E+02  0.47959300399E+02  0.10566000000E+00 0. -1.
         23    2    1    0    0    0 -0.15897302925E+02 -0.17364456711E+02 -0.17862980250E+02  0.95447763865E+02  0.90757594538E+02 0.  0.
         13    1    3    3    0    0 -0.31083319282E+02 -0.23403555898E+02  0.27225793507E+02  0.47488463466E+02  0.10566000000E+00 0.  1.
         22    1    1    0    0    0  0.15897302925E+02  0.17364456711E+02  0.17862980250E+02  0.29552236135E+02  0.00000000000E+00 0. -1.
</event>
<event>
 5    1  0.6835449E-004  0.9118800E+02  0.7818608E-02  0.1130116E+00
         25   -1    0    0    0    0  0.00000000000E+00  0.00000000000E+00  0.99999998245E-14  0.12500000000E+03  0.12500000000E+03 0.  0.
        -13    1    3    3    0    0  0.35404803742E+02  0.28366381448E+01  0.10143700142E+02  0.36938495646E+02  0.10566000000E+00 0.  1.
         23    2    1    0    0    0 -0.16374585771E+02  0.25838121707E+02  0.65905738075E+01  0.93708287748E+02  0.88329337918E+02 0.  0.
         13    1    3    3    0    0 -0.51779389514E+02  0.23001483563E+02 -0.35531263349E+01  0.56769792102E+02  0.10566000000E+00 0. -1.
         22    1    1    0    0    0  0.16374585771E+02 -0.25838121707E+02 -0.65905738075E+01  0.31291712252E+02  0.00000000000E+00 0. -1.
</event>
<event>
 5    1  0.6835449E-004  0.9118800E+02  0.7818608E-02  0.1130116E+00
         25   -1    0    0    0    0  0.00000000000E+00  0.00000000000E+00  0.99999998245E-14  0.12500000000E+03  0.12500000000E+03 0.  0.
        -13    1    3    3    0    0 -0.20912546313E+02 -0.10137448891E+02 -0.53689373818E+02  0.58503525435E+02  0.10566000000E+00 0.  1.
         23    2    1    0    0    0  0.41507137405E+01 -0.11242893287E+02 -0.28629185796E+02  0.93963547990E+02  0.88689835931E+02 0.  0.
         13    1    3    3    0    0  0.25063260054E+02 -0.11054443958E+01  0.25060188022E+02  0.35460022555E+02  0.10566000000E+00 0. -1.
         22    1    1    0    0    0 -0.41507137405E+01  0.11242893287E+02  0.28629185796E+02  0.31036452010E+02  0.00000000000E+00 0.  1.
</event>
<event>
 5    1  0.6835449E-004  0.9118800E+02  0.7818608E-02  0.1130116E+00
         25   -1    0    0    0    0  0.00000000000E+00  0.00000000000E+00  0.99999998245E-14  0.12500000000E+03  0.12500000000E+03 0.  0.
        -13    1    3    3    0    0 -0.18232607905E+02  0.46427494100E+02  0.94896713167E+00  0.49888394463E+02  0.10566000000E+00 0. -1.
         23    2    1    0    0    0 -0.26891863828E+02 -0.44278311563E+00 -0.40018257776E+01  0.97808401912E+02  0.93952650192E+02 0.  0.
         13    1    3    3    0    0 -0.86592559227E+01 -0.46870277216E+02 -0.49507929093E+01  0.47920007449E+02  0.10566000000E+00 0.  1.
         22    1    1    0    0    0  0.26891863828E+02  0.44278311563E+00  0.40018257776E+01  0.27191598088E+02  0.00000000000E+00 0. -1.
</event>
<event>
 5    1  0.6835449E-004  0.9118800E+02  0.7818608E-02  0.1130116E+00
         25   -1    0    0    0    0  0.00000000000E+00  0.00000000000E+00  0.99999998245E-14  0.12500000000E+03  0.12500000000E+03 0.  0.
        -13    1    3    3    0    0 -0.39149624696E+02 -0.56914062209E+01  0.38957222872E+02  0.55522622385E+02  0.10566000000E+00 0. -1.
         23    2    1    0    0    0 -0.11729466358E+02 -0.21122268049E+02  0.82977349143E+01  0.99454295992E+02  0.96117500997E+02 0.  0.
         13    1    3    3    0    0  0.27420158338E+02 -0.15430861828E+02 -0.30659487957E+02  0.43931673606E+02  0.10566000000E+00 0.  1.
         22    1    1    0    0    0  0.11729466358E+02  0.21122268049E+02 -0.82977349143E+01  0.25545704008E+02  0.00000000000E+00 0.  1.
</event>
<event>
 5    1  0.6835449E-004  0.9118800E+02  0.7818608E-02  0.1130116E+00
         25   -1    0    0    0    0  0.00000000000E+00  0.00000000000E+00  0.99999998245E-14  0.12500000000E+03  0.12500000000E+03 0.  0.
        -13    1    3    3    0    0  0.39434537325E+02 -0.35867909649E+02 -0.19248139120E+02  0.56675318263E+02  0.10566000000E+00 0.  1.
         23    2    1    0    0    0  0.28011431519E+02 -0.34600111941E+01  0.13588536145E+01  0.96742992792E+02  0.92524311388E+02 0.  0.
         13    1    3    3    0    0 -0.11423105806E+02  0.32407898455E+02  0.20606992735E+02  0.40067674528E+02  0.10566000000E+00 0. -1.
         22    1    1    0    0    0 -0.28011431519E+02  0.34600111941E+01 -0.13588536145E+01  0.28257007208E+02  0.00000000000E+00 0. -1.
</event>
<event>
 5    1  0.6835449E-004  0.9118800E+02  0.7818608E-02  0.1130116E+00
         25   -1    0    0    0    0  0.00000000000E+00  0.00000000000E+00  0.99999998245E-14  0.12500000000E+03  0.12500000000E+03 0.  0.
        -13    1    3    3    0    0  0.18228663353E+02 -0.45930545228E+01  0.34295147416E+02  0.39109444100E+02  0.10566000000E+00 0.  1.
         23    2    1    0    0    0 -0.27864921058E+02 -0.56119697699E+01 -0.77389645088E-02  0.96575572299E+02  0.92297849784E+02 0.  0.
         13    1    3    3    0    0 -0.46093584411E+02 -0.10189152471E+01 -0.34302886380E+02  0.57466128199E+02  0.10566000000E+00 0. -1.
         22    1    1    0    0    0  0.27864921058E+02  0.56119697699E+01  0.77389645088E-02  0.28424427701E+02  0.00000000000E+00 0. -1.
</event>
<event>
 5    1  0.6835449E-004  0.9118800E+02  0.7818608E-02  0.1130116E+00
         25   -1    0    0    0    0  0.00000000000E+00  0.00000000000E+00  0.99999998245E-14  0.12500000000E+03  0.12500000000E+03 0.  0.
        -13    1    3    3    0    0  0.34533462120E+01  0.17081579796E+00  0.34963281936E+02  0.35133986763E+02  0.10566000000E+00 0.  1.
         23    2    1    0    0    0  0.12304243999E+02  0.13075273217E+02 -0.23369830727E+02  0.95529571121E+02  0.90870197426E+02 0.  0.
         13    1    3    3    0    0  0.88508977870E+01  0.12904457419E+02 -0.58333112663E+02  0.60395584358E+02  0.10566000000E+00 0. -1.
         22    1    1    0    0    0 -0.12304243999E+02 -0.13075273217E+02  0.23369830727E+02  0.29470428879E+02  0.00000000000E+00 0. -1.
</event>
<event>
 5    1  0.6835449E-004  0.9118800E+02  0.7818608E-02  0.1130116E+00
         25   -1    0    0    0    0  0.00000000000E+00  0.00000000000E+00  0.99999998245E-14  0.12500000000E+03  0.12500000000E+03 0.  0.
        -13    1    3    3    0    0  0.32028507566E+02 -0.33394959536E+02 -0.36272488488E+00  0.46273008900E+02  0.10566000000E+00 0. -1.
         23    2    1    0    0    0  0.84667968180E+01  0.95622730957E-01  0.27778837820E+02  0.95959345347E+02  0.91459479206E+02 0.  0.
         13    1    3    3    0    0 -0.23561710748E+02  0.33490582267E+02  0.28141562705E+02  0.49686336446E+02  0.10566000000E+00 0.  1.
         22    1    1    0    0    0 -0.84667968180E+01 -0.95622730957E-01 -0.27778837820E+02  0.29040654653E+02  0.00000000000E+00 0.  1.
</event>
<event>
 5    1  0.6835449E-004  0.9118800E+02  0.7818608E-02  0.1130116E+00
         25   -1    0    0    0    0  0.00000000000E+00  0.00000000000E+00  0.99999998245E-14  0.12500000000E+03  0.12500000000E+03 0.  0.
        -13    1    3    3    0    0  0.29461500343E+02 -0.37523398537E+02  0.40030634393E+02  0.62277189196E+02  0.10566000000E+00 0. -1.
         23    2    1    0    0    0  0.22221726020E+02 -0.23184294875E+02  0.28649173927E+02  0.81964063820E+02  0.69756834468E+02 0.  0.
         13    1    3    3    0    0 -0.72397743237E+01  0.14339103662E+02 -0.11381460466E+02  0.19686874624E+02  0.10566000000E+00 0.  1.
         22    1    1    0    0    0 -0.22221726020E+02  0.23184294875E+02 -0.28649173927E+02  0.43035936180E+02  0.00000000000E+00 0. -1.
</event>
<event>
 5    1  0.6835449E-004  0.9118800E+02  0.7818608E-02  0.1130116E+00
         25   -1    0    0    0    0  0.00000000000E+00  0.00000000000E+00  0.99999998245E-14  0.12500000000E+03  0.12500000000E+03 0.  0.
        -13    1    3    3    0    0  0.36672824863E+02  0.33590561999E+02  0.12656350156E+02  0.51316822799E+02  0.10566000000E+00 0. -1.
         23    2    1    0    0    0 -0.65712771443E+01  0.27867628127E+02  0.84860541591E+01  0.95136987829E+02  0.90328550067E+02 0.  0.
         13    1    3    3    0    0 -0.43244102007E+02 -0.57229338720E+01 -0.41702959973E+01  0.43820165030E+02  0.10566000000E+00 0.  1.
         22    1    1    0    0    0  0.65712771443E+01 -0.27867628127E+02 -0.84860541591E+01  0.29863012171E+02  0.00000000000E+00 0. -1.
</event>
<event>
 5    1  0.6835449E-004  0.9118800E+02  0.7818608E-02  0.1130116E+00
         25   -1    0    0    0    0  0.00000000000E+00  0.00000000000E+00  0.99999998245E-14  0.12500000000E+03  0.12500000000E+03 0.  0.
        -13    1    3    3    0    0  0.15004283922E+01  0.37641900750E+02  0.23525928894E+02  0.44414462417E+02  0.10566000000E+00 0. -1.
         23    2    1    0    0    0  0.25525562599E+02 -0.26058751755E+01 -0.43871471413E+01  0.98969402783E+02  0.95484819190E+02 0.  0.
         13    1    3    3    0    0  0.24025134207E+02 -0.40247775925E+02 -0.27913076035E+02  0.54554940366E+02  0.10566000000E+00 0.  1.
         22    1    1    0    0    0 -0.25525562599E+02  0.26058751755E+01  0.43871471413E+01  0.26030597217E+02  0.00000000000E+00 0.  1.
</event>
<event>
 5    1  0.6835449E-004  0.9118800E+02  0.7818608E-02  0.1130116E+00
         25   -1    0    0    0    0  0.00000000000E+00  0.00000000000E+00  0.99999998245E-14  0.12500000000E+03  0.12500000000E+03 0.  0.
        -13    1    3    3    0    0  0.21099510500E+02  0.53344394875E+02  0.23633921275E+02  0.62043430005E+02  0.10566000000E+00 0.  1.
         23    2    1    0    0    0  0.14334989868E+02  0.21823248345E+02  0.10884694985E+02  0.96711792425E+02  0.92482150204E+02 0.  0.
         13    1    3    3    0    0 -0.67645206313E+01 -0.31521146530E+02 -0.12749226289E+02  0.34668362421E+02  0.10566000000E+00 0. -1.
         22    1    1    0    0    0 -0.14334989868E+02 -0.21823248345E+02 -0.10884694985E+02  0.28288207575E+02  0.00000000000E+00 0.  1.
</event>
<event>
 5    1  0.6835449E-004  0.9118800E+02  0.7818608E-02  0.1130116E+00
         25   -1    0    0    0    0  0.00000000000E+00  0.00000000000E+00  0.99999998245E-14  0.12500000000E+03  0.12500000000E+03 0.  0.
        -13    1    3    3    0    0  0.11775897269E+02 -0.31435010901E+02  0.85965003085E+01  0.34651733700E+02  0.10566000000E+00 0.  1.
         23    2    1    0    0    0  0.51359722830E+01  0.23123935736E+02 -0.17553789175E+02  0.95517291006E+02  0.90853303470E+02 0.  0.
         13    1    3    3    0    0 -0.66399249856E+01  0.54558946638E+02 -0.26150289484E+02  0.60865557306E+02  0.10566000000E+00 0. -1.
         22    1    1    0    0    0 -0.51359722830E+01 -0.23123935736E+02  0.17553789175E+02  0.29482708994E+02  0.00000000000E+00 0. -1.
</event>
<event>
 5    1  0.6835449E-004  0.9118800E+02  0.7818608E-02  0.1130116E+00
         25   -1    0    0    0    0  0.00000000000E+00  0.00000000000E+00  0.99999998245E-14  0.12500000000E+03  0.12500000000E+03 0.  0.
        -13    1    3    3    0    0  0.38944802261E+02 -0.16199015530E+02  0.57213412502E+00  0.42183459185E+02  0.10566000000E+00 0.  1.
         23    2    1    0    0    0 -0.26531222525E+01  0.10676297310E+02  0.25207197837E+02  0.97496814644E+02  0.93537177962E+02 0.  0.
         13    1    3    3    0    0 -0.41597924513E+02  0.26875312840E+02  0.24635063712E+02  0.55313355459E+02  0.10566000000E+00 0. -1.
         22    1    1    0    0    0  0.26531222525E+01 -0.10676297310E+02 -0.25207197837E+02  0.27503185356E+02  0.00000000000E+00 0. -1.
</event>
<event>
 5    1  0.6835449E-004  0.9118800E+02  0.7818608E-02  0.1130116E+00
         25   -1    0    0    0    0  0.00000000000E+00  0.00000000000E+00  0.99999998245E-14  0.12500000000E+03  0.12500000000E+03 0.  0.
        -13    1    3    3    0    0  0.54763006902E+02 -0.70141706511E+01  0.16703920558E+02  0.57682039154E+02  0.10566000000E+00 0. -1.
         23    2    1    0    0    0  0.25347725000E+02 -0.13887789797E+02 -0.60126393050E+01  0.95478318145E+02  0.90799667049E+02 0.  0.
         13    1    3    3    0    0 -0.29415281902E+02 -0.68736191462E+01 -0.22716559863E+02  0.37796278991E+02  0.10566000000E+00 0.  1.
         22    1    1    0    0    0 -0.25347725000E+02  0.13887789797E+02  0.60126393050E+01  0.29521681855E+02  0.00000000000E+00 0. -1.
</event>
<event>
 5    1  0.6835449E-004  0.9118800E+02  0.7818608E-02  0.1130116E+00
         25   -1    0    0    0    0  0.00000000000E+00  0.00000000000E+00  0.99999998245E-14  0.12500000000E+03  0.12500000000E+03 0.  0.
        -13    1    3    3    0    0  0.76963936938E+01  0.40519542791E+02 -0.28118485517E+02  0.49917213621E+02  0.10566000000E+00 0.  1.
         23    2    1    0    0    0 -0.23760048836E+02  0.10100333748E+02 -0.11698989665E+02  0.96655282296E+02  0.92405738859E+02 0.  0.
         13    1    3    3    0    0 -0.31456442530E+02 -0.30419209043E+02  0.16419495852E+02  0.46738068675E+02  0.10566000000E+00 0. -1.
         22    1    1    0    0    0  0.23760048836E+02 -0.10100333748E+02  0.11698989665E+02  0.28344717704E+02  0.00000000000E+00 0.  1.
</event>
<event>
 5    1  0.6835449E-004  0.9118800E+02  0.7818608E-02  0.1130116E+00
         25   -1    0    0    0    0  0.00000000000E+00  0.00000000000E+00  0.99999998245E-14  0.12500000000E+03  0.12500000000E+03 0.  0.
        -13    1    3    3    0    0  0.27294165458E+02 -0.54669681997E+00  0.30695356043E+02  0.41079026183E+02  0.10566000000E+00 0.  1.
         23    2    1    0    0    0 -0.29571446008E+01  0.31028760076E+02  0.12335633379E+01  0.93806245263E+02  0.88467854703E+02 0.  0.
         13    1    3    3    0    0 -0.30251310059E+02  0.31575456896E+02 -0.29461792705E+02  0.52727219080E+02  0.10566000000E+00 0. -1.
         22    1    1    0    0    0  0.29571446008E+01 -0.31028760076E+02 -0.12335633379E+01  0.31193754737E+02  0.00000000000E+00 0.  1.
</event>
<event>
 5    1  0.6835449E-004  0.9118800E+02  0.7818608E-02  0.1130116E+00
         25   -1    0    0    0    0  0.00000000000E+00  0.00000000000E+00  0.99999998245E-14  0.12500000000E+03  0.12500000000E+03 0.  0.
        -13    1    3    3    0    0  0.32463941847E+02  0.21746389832E+02  0.87012592283E+01  0.40031688288E+02  0.10566000000E+00 0. -1.
         23    2    1    0    0    0 -0.14132709584E+01 -0.25890413156E+02  0.49193008346E+01  0.98608517494E+02  0.95011206567E+02 0.  0.
         13    1    3    3    0    0 -0.33877212806E+02 -0.47636802988E+02 -0.37819583937E+01  0.58576829205E+02  0.10566000000E+00 0.  1.
         22    1    1    0    0    0  0.14132709584E+01  0.25890413156E+02 -0.49193008346E+01  0.26391482506E+02  0.00000000000E+00 0.  1.
</event>
<event>
 5    1  0.6835449E-004  0.9118800E+02  0.7818608E-02  0.1130116E+00
         25   -1    0    0    0    0  0.00000000000E+00  0.00000000000E+00  0.99999998245E-14  0.12500000000E+03  0.12500000000E+03 0.  0.
        -13    1    3    3    0    0  0.30965380499E+02 -0.35124744123E+01 -0.43260002905E+02  0.53316332219E+02  0.10566000000E+00 0.  1.
         23    2    1    0    0    0  0.24745265234E+02 -0.13396131896E+02 -0.13435541891E+01  0.96829276915E+02  0.92640807579E+02 0.  0.
         13    1    3    3    0    0 -0.62201152657E+01 -0.98836574836E+01  0.41916448715E+02  0.43512944696E+02  0.10566000000E+00 0. -1.
         22    1    1    0    0    0 -0.24745265234E+02  0.13396131896E+02  0.13435541891E+01  0.28170723085E+02  0.00000000000E+00 0.  1.
</event>
<event>
 5    1  0.6835449E-004  0.9118800E+02  0.7818608E-02  0.1130116E+00
         25   -1    0    0    0    0  0.00000000000E+00  0.00000000000E+00  0.99999998245E-14  0.12500000000E+03  0.12500000000E+03 0.  0.
        -13    1    3    3    0    0  0.48381720414E+02  0.75096241060E+01  0.99875727043E+01  0.49969471650E+02  0.10566000000E+00 0.  1.
         23    2    1    0    0    0  0.75567719882E+01 -0.12382915382E+01  0.28388901285E+02  0.95596464753E+02  0.90962168995E+02 0.  0.
         13    1    3    3    0    0 -0.40824948426E+02 -0.87479156441E+01  0.18401328581E+02  0.45626993103E+02  0.10566000000E+00 0. -1.
         22    1    1    0    0    0 -0.75567719882E+01  0.12382915382E+01 -0.28388901285E+02  0.29403535247E+02  0.00000000000E+00 0. -1.
</event>
<event>
 5    1  0.6835449E-004  0.9118800E+02  0.7818608E-02  0.1130116E+00
         25   -1    0    0    0    0  0.00000000000E+00  0.00000000000E+00  0.99999998245E-14  0.12500000000E+03  0.12500000000E+03 0.  0.
        -13    1    3    3    0    0 -0.29547614120E+02  0.29192432909E+02 -0.13399900177E+02  0.43644336725E+02  0.10566000000E+00 0. -1.
         23    2    1    0    0    0 -0.87074999990E+01  0.29891389372E+01  0.27209242623E+02  0.96275474035E+02  0.91890524586E+02 0.  0.
         13    1    3    3    0    0  0.20840114121E+02 -0.26203293972E+02  0.40609142799E+02  0.52631137310E+02  0.10566000000E+00 0.  1.
         22    1    1    0    0    0  0.87074999990E+01 -0.29891389372E+01 -0.27209242623E+02  0.28724525965E+02  0.00000000000E+00 0.  1.
</event>
<event>
 4    1  0.6835449E-004  0.9118800E+02  0.7818608E-02  0.1130116E+00
         25   -1    0    0    0    0  0.00000000000E+00  0.00000000000E+00  0.99999998245E-14  0.12500000000E+03  0.12500000000E+03 0.  0.
        -13    1    1    0    0    0 -0.34524176523E+02 -0.46309160976E+02  0.15013456511E+02  0.59681422531E+02  0.10566000000E+00 0.  1.
         13    1    1    0    0    0  0.10093115316E+02  0.32592770603E+00 -0.77797286409E+01  0.12748040925E+02  0.10566000000E+00 0. -1.
         22    1    1    0    0    0  0.24431061206E+02  0.45983233270E+02 -0.72337278696E+01  0.52570536544E+02  0.00000000000E+00 0.  1.
</event>
<event>
 5    1  0.6835449E-004  0.9118800E+02  0.7818608E-02  0.1130116E+00
         25   -1    0    0    0    0  0.00000000000E+00  0.00000000000E+00  0.99999998245E-14  0.12500000000E+03  0.12500000000E+03 0.  0.
        -13    1    3    3    0    0 -0.40837372583E+02  0.35930907388E+02 -0.44288690919E+01  0.54574235228E+02  0.10566000000E+00 0. -1.
         23    2    1    0    0    0  0.34741282573E+00  0.24924731691E+02  0.77252856574E+01  0.98903199736E+02  0.95398112843E+02 0.  0.
         13    1    3    3    0    0  0.41184785409E+02 -0.11006175697E+02  0.12154154749E+02  0.44328964508E+02  0.10566000000E+00 0.  1.
         22    1    1    0    0    0 -0.34741282573E+00 -0.24924731691E+02 -0.77252856574E+01  0.26096800264E+02  0.00000000000E+00 0. -1.
</event>
<event>
 5    1  0.6835449E-004  0.9118800E+02  0.7818608E-02  0.1130116E+00
         25   -1    0    0    0    0  0.00000000000E+00  0.00000000000E+00  0.99999998245E-14  0.12500000000E+03  0.12500000000E+03 0.  0.
        -13    1    3    3    0    0 -0.86276574622E+01 -0.43303231650E+02  0.93265838396E+01  0.45128734469E+02  0.10566000000E+00 0.  1.
         23    2    1    0    0    0  0.24563061594E+02 -0.66864317230E+01  0.15901140939E+02  0.94985026284E+02  0.90118014686E+02 0.  0.
         13    1    3    3    0    0  0.33190719056E+02  0.36616799927E+02  0.65745570994E+01  0.49856291814E+02  0.10566000000E+00 0. -1.
         22    1    1    0    0    0 -0.24563061594E+02  0.66864317230E+01 -0.15901140939E+02  0.30014973716E+02  0.00000000000E+00 0. -1.
</event>
<event>
 5    1  0.6835449E-004  0.9118800E+02  0.7818608E-02  0.1130116E+00
         25   -1    0    0    0    0  0.00000000000E+00  0.00000000000E+00  0.99999998245E-14  0.12500000000E+03  0.12500000000E+03 0.  0.
        -13    1    3    3    0    0 -0.19057608201E+02 -0.25285856356E+02 -0.37027882432E+02  0.48720039034E+02  0.10566000000E+00 0.  1.
         23    2    1    0    0    0 -0.27252468833E+02  0.29919315624E+01  0.18889282326E+01  0.97518792570E+02  0.93566543927E+02 0.  0.
         13    1    3    3    0    0 -0.81948606317E+01  0.28277787919E+02  0.38916810665E+02  0.48798753536E+02  0.10566000000E+00 0. -1.
         22    1    1    0    0    0  0.27252468833E+02 -0.29919315624E+01 -0.18889282326E+01  0.27481207430E+02  0.00000000000E+00 0. -1.
</event>
<event>
 5    1  0.6835449E-004  0.9118800E+02  0.7818608E-02  0.1130116E+00
         25   -1    0    0    0    0  0.00000000000E+00  0.00000000000E+00  0.99999998245E-14  0.12500000000E+03  0.12500000000E+03 0.  0.
        -13    1    3    3    0    0 -0.37050850968E+02  0.22176645726E+02  0.37303512303E+02  0.57062530327E+02  0.10566000000E+00 0. -1.
         23    2    1    0    0    0  0.13338220968E+01  0.16013758990E+02  0.19244657564E+02  0.99928573971E+02  0.96732329098E+02 0.  0.
         13    1    3    3    0    0  0.38384673064E+02 -0.61628867359E+01 -0.18058854739E+02  0.42866043644E+02  0.10566000000E+00 0.  1.
         22    1    1    0    0    0 -0.13338220968E+01 -0.16013758990E+02 -0.19244657564E+02  0.25071426029E+02  0.00000000000E+00 0. -1.
</event>
<event>
 5    1  0.6835449E-004  0.9118800E+02  0.7818608E-02  0.1130116E+00
         25   -1    0    0    0    0  0.00000000000E+00  0.00000000000E+00  0.99999998245E-14  0.12500000000E+03  0.12500000000E+03 0.  0.
        -13    1    3    3    0    0  0.35144719032E+02  0.40621433663E+01  0.15516404730E+02  0.38631881450E+02  0.10566000000E+00 0.  1.
         23    2    1    0    0    0  0.42952624046E+02 -0.19171543097E+02 -0.12965863584E+02  0.76208713937E+02  0.58542108642E+02 0.  0.
         13    1    3    3    0    0  0.78079050144E+01 -0.23233686464E+02 -0.28482268315E+02  0.37576832488E+02  0.10566000000E+00 0. -1.
         22    1    1    0    0    0 -0.42952624046E+02  0.19171543097E+02  0.12965863584E+02  0.48791286063E+02  0.00000000000E+00 0.  1.
</event>
<event>
 5    1  0.6835449E-004  0.9118800E+02  0.7818608E-02  0.1130116E+00
         25   -1    0    0    0    0  0.00000000000E+00  0.00000000000E+00  0.99999998245E-14  0.12500000000E+03  0.12500000000E+03 0.  0.
        -13    1    3    3    0    0  0.20288672419E+02  0.28546073811E+02  0.20575387762E+02  0.40618546307E+02  0.10566000000E+00 0.  1.
         23    2    1    0    0    0 -0.27040439488E+02  0.49522784918E+01  0.14695320924E+02  0.93828492384E+02  0.88499283026E+02 0.  0.
         13    1    3    3    0    0 -0.47329111907E+02 -0.23593795319E+02 -0.58800668378E+01  0.53209946077E+02  0.10566000000E+00 0. -1.
         22    1    1    0    0    0  0.27040439488E+02 -0.49522784918E+01 -0.14695320924E+02  0.31171507616E+02  0.00000000000E+00 0. -1.
</event>
<event>
 5    1  0.6835449E-004  0.9118800E+02  0.7818608E-02  0.1130116E+00
         25   -1    0    0    0    0  0.00000000000E+00  0.00000000000E+00  0.99999998245E-14  0.12500000000E+03  0.12500000000E+03 0.  0.
        -13    1    3    3    0    0 -0.29119820586E+02  0.53345574680E+02 -0.63070946759E+00  0.60779299497E+02  0.10566000000E+00 0.  1.
         23    2    1    0    0    0 -0.18672490006E+02  0.21119440417E+02 -0.84949513258E+01  0.95557567278E+02  0.90908700461E+02 0.  0.
         13    1    3    3    0    0  0.10447330580E+02 -0.32226134263E+02 -0.78642418583E+01  0.34778267781E+02  0.10566000000E+00 0. -1.
         22    1    1    0    0    0  0.18672490006E+02 -0.21119440417E+02  0.84949513258E+01  0.29442432722E+02  0.00000000000E+00 0.  1.
</event>
<event>
 5    1  0.6835449E-004  0.9118800E+02  0.7818608E-02  0.1130116E+00
         25   -1    0    0    0    0  0.00000000000E+00  0.00000000000E+00  0.99999998245E-14  0.12500000000E+03  0.12500000000E+03 0.  0.
        -13    1    3    3    0    0  0.23175030685E+02  0.72623692310E+01  0.33623295076E+02  0.41477237009E+02  0.10566000000E+00 0. -1.
         23    2    1    0    0    0  0.11533106356E+02 -0.25831170371E+02 -0.76982103841E+01  0.95682354323E+02  0.91080121764E+02 0.  0.
         13    1    3    3    0    0 -0.11641924329E+02 -0.33093539602E+02 -0.41321505460E+02  0.54205117314E+02  0.10566000000E+00 0.  1.
         22    1    1    0    0    0 -0.11533106356E+02  0.25831170371E+02  0.76982103841E+01  0.29317645677E+02  0.00000000000E+00 0.  1.
</event>
<event>
 5    1  0.6835449E-004  0.9118800E+02  0.7818608E-02  0.1130116E+00
         25   -1    0    0    0    0  0.00000000000E+00  0.00000000000E+00  0.99999998245E-14  0.12500000000E+03  0.12500000000E+03 0.  0.
        -13    1    3    3    0    0  0.42751551667E+01  0.44732606320E+02  0.36755646813E+02  0.58054041690E+02  0.10566000000E+00 0.  1.
         23    2    1    0    0    0 -0.92483093248E+01  0.15520198943E+02 -0.26335115098E-01  0.10693322126E+03  0.10539594544E+03 0.  0.
         13    1    3    3    0    0 -0.13523464492E+02 -0.29212407377E+02 -0.36781981928E+02  0.48879179567E+02  0.10566000000E+00 0. -1.
         22    1    1    0    0    0  0.92483093248E+01 -0.15520198943E+02  0.26335115098E-01  0.18066778743E+02  0.00000000000E+00 0.  1.
</event>
<event>
 5    1  0.6835449E-004  0.9118800E+02  0.7818608E-02  0.1130116E+00
         25   -1    0    0    0    0  0.00000000000E+00  0.00000000000E+00  0.99999998245E-14  0.12500000000E+03  0.12500000000E+03 0.  0.
        -13    1    3    3    0    0 -0.65577582564E+01 -0.32302574296E+02 -0.16893228997E+02  0.37038531957E+02  0.10566000000E+00 0.  1.
         23    2    1    0    0    0  0.10449781646E+02  0.22703058445E+02 -0.17280852674E+02  0.94614893972E+02  0.89603144437E+02 0.  0.
         13    1    3    3    0    0  0.17007539902E+02  0.55005632741E+02 -0.38762367734E+00  0.57576362015E+02  0.10566000000E+00 0. -1.
         22    1    1    0    0    0 -0.10449781646E+02 -0.22703058445E+02  0.17280852674E+02  0.30385106028E+02  0.00000000000E+00 0. -1.
</event>
<event>
 5    1  0.6835449E-004  0.9118800E+02  0.7818608E-02  0.1130116E+00
         25   -1    0    0    0    0  0.00000000000E+00  0.00000000000E+00  0.99999998245E-14  0.12500000000E+03  0.12500000000E+03 0.  0.
        -13    1    3    3    0    0  0.38840334865E+02  0.14033859416E+02  0.36313927522E+02  0.54993029728E+02  0.10566000000E+00 0. -1.
         23    2    1    0    0    0  0.51835579564E+01  0.23158853998E+02  0.21835161950E+02  0.92751339734E+02  0.86964561365E+02 0.  0.
         13    1    3    3    0    0 -0.33656776908E+02  0.91249945820E+01 -0.14478765572E+02  0.37758310006E+02  0.10566000000E+00 0.  1.
         22    1    1    0    0    0 -0.51835579564E+01 -0.23158853998E+02 -0.21835161950E+02  0.32248660266E+02  0.00000000000E+00 0. -1.
</event>
<event>
 5    1  0.6835449E-004  0.9118800E+02  0.7818608E-02  0.1130116E+00
         25   -1    0    0    0    0  0.00000000000E+00  0.00000000000E+00  0.99999998245E-14  0.12500000000E+03  0.12500000000E+03 0.  0.
        -13    1    3    3    0    0 -0.37982089349E+02  0.18755867679E+02 -0.46130481881E+01  0.42611184697E+02  0.10566000000E+00 0. -1.
         23    2    1    0    0    0 -0.76881125936E+01 -0.20400147546E+02  0.17704396757E+02  0.96915862846E+02  0.92757564174E+02 0.  0.
         13    1    3    3    0    0  0.30293976755E+02 -0.39156015225E+02  0.22317444946E+02  0.54304678149E+02  0.10566000000E+00 0.  1.
         22    1    1    0    0    0  0.76881125936E+01  0.20400147546E+02 -0.17704396757E+02  0.28084137154E+02  0.00000000000E+00 0. -1.
</event>
<event>
 5    1  0.6835449E-004  0.9118800E+02  0.7818608E-02  0.1130116E+00
         25   -1    0    0    0    0  0.00000000000E+00  0.00000000000E+00  0.99999998245E-14  0.12500000000E+03  0.12500000000E+03 0.  0.
        -13    1    3    3    0    0  0.16707976022E+02 -0.49381460763E+02  0.28655332500E+02  0.59488018748E+02  0.10566000000E+00 0. -1.
         23    2    1    0    0    0  0.14353536010E+02 -0.14566022983E+02  0.21910414891E+02  0.95029025671E+02  0.90179024267E+02 0.  0.
         13    1    3    3    0    0 -0.23544400127E+01  0.34815437779E+02 -0.67449176087E+01  0.35541006923E+02  0.10566000000E+00 0.  1.
         22    1    1    0    0    0 -0.14353536010E+02  0.14566022983E+02 -0.21910414891E+02  0.29970974329E+02  0.00000000000E+00 0. -1.
</event>
<event>
 5    1  0.6835449E-004  0.9118800E+02  0.7818608E-02  0.1130116E+00
         25   -1    0    0    0    0  0.00000000000E+00  0.00000000000E+00  0.99999998245E-14  0.12500000000E+03  0.12500000000E+03 0.  0.
        -13    1    3    3    0    0  0.11362085895E+02  0.33110054763E+02  0.31223188285E+02  0.46907050355E+02  0.10566000000E+00 0.  1.
         23    2    1    0    0    0 -0.24416911360E+02  0.30900968711E+01  0.13991131577E+02  0.96689471538E+02  0.92451976098E+02 0.  0.
         13    1    3    3    0    0 -0.35778997255E+02 -0.30019957892E+02 -0.17232056708E+02  0.49782421183E+02  0.10566000000E+00 0. -1.
         22    1    1    0    0    0  0.24416911360E+02 -0.30900968711E+01 -0.13991131577E+02  0.28310528462E+02  0.00000000000E+00 0. -1.
</event>
<event>
 5    1  0.6835449E-004  0.9118800E+02  0.7818608E-02  0.1130116E+00
         25   -1    0    0    0    0  0.00000000000E+00  0.00000000000E+00  0.99999998245E-14  0.12500000000E+03  0.12500000000E+03 0.  0.
        -13    1    3    3    0    0  0.11943972172E+02  0.47908882039E+02 -0.26445737996E+02  0.56011674423E+02  0.10566000000E+00 0. -1.
         23    2    1    0    0    0 -0.44187487364E+01  0.18021088168E+02 -0.29422557073E+02  0.90215350744E+02  0.83239640112E+02 0.  0.
         13    1    3    3    0    0 -0.16362720908E+02 -0.29887793871E+02 -0.29768190768E+01  0.34203676321E+02  0.10566000000E+00 0.  1.
         22    1    1    0    0    0  0.44187487364E+01 -0.18021088168E+02  0.29422557073E+02  0.34784649256E+02  0.00000000000E+00 0. -1.
</event>
<event>
 5    1  0.6835449E-004  0.9118800E+02  0.7818608E-02  0.1130116E+00
         25   -1    0    0    0    0  0.00000000000E+00  0.00000000000E+00  0.99999998245E-14  0.12500000000E+03  0.12500000000E+03 0.  0.
        -13    1    3    3    0    0  0.46465447756E+02 -0.10440010256E+02  0.25761266870E+02  0.54145043024E+02  0.10566000000E+00 0. -1.
         23    2    1    0    0    0  0.88697592037E+01  0.74897180027E+01  0.26782278448E+02  0.95809951302E+02  0.91255070136E+02 0.  0.
         13    1    3    3    0    0 -0.37595688552E+02  0.17929728258E+02  0.10210115781E+01  0.41664908278E+02  0.10566000000E+00 0.  1.
         22    1    1    0    0    0 -0.88697592037E+01 -0.74897180027E+01 -0.26782278448E+02  0.29190048698E+02  0.00000000000E+00 0. -1.
</event>
<event>
 5    1  0.6835449E-004  0.9118800E+02  0.7818608E-02  0.1130116E+00
         25   -1    0    0    0    0  0.00000000000E+00  0.00000000000E+00  0.99999998245E-14  0.12500000000E+03  0.12500000000E+03 0.  0.
        -13    1    3    3    0    0  0.20503837367E+02  0.25116714277E+00  0.34860161952E+02  0.40443942526E+02  0.10566000000E+00 0.  1.
         23    2    1    0    0    0  0.20306697895E+01 -0.21880437186E+02 -0.15248196912E+02  0.98253324313E+02  0.94542747360E+02 0.  0.
         13    1    3    3    0    0 -0.18473167578E+02 -0.22131604328E+02 -0.50108358864E+02  0.57809381787E+02  0.10566000000E+00 0. -1.
         22    1    1    0    0    0 -0.20306697895E+01  0.21880437186E+02  0.15248196912E+02  0.26746675687E+02  0.00000000000E+00 0. -1.
</event>
<event>
 5    1  0.6835449E-004  0.9118800E+02  0.7818608E-02  0.1130116E+00
         25   -1    0    0    0    0  0.00000000000E+00  0.00000000000E+00  0.99999998245E-14  0.12500000000E+03  0.12500000000E+03 0.  0.
        -13    1    3    3    0    0  0.43870484864E+01 -0.24265902320E+02 -0.54682429444E+02  0.59985493777E+02  0.10566000000E+00 0. -1.
         23    2    1    0    0    0 -0.91913716454E+01 -0.58233594531E+01 -0.26848433101E+02  0.96030512810E+02  0.91556693926E+02 0.  0.
         13    1    3    3    0    0 -0.13578420132E+02  0.18442542866E+02  0.27833996343E+02  0.36045019033E+02  0.10566000000E+00 0.  1.
         22    1    1    0    0    0  0.91913716454E+01  0.58233594531E+01  0.26848433101E+02  0.28969487190E+02  0.00000000000E+00 0. -1.
</event>
<event>
 5    1  0.6835449E-004  0.9118800E+02  0.7818608E-02  0.1130116E+00
         25   -1    0    0    0    0  0.00000000000E+00  0.00000000000E+00  0.99999998245E-14  0.12500000000E+03  0.12500000000E+03 0.  0.
        -13    1    3    3    0    0 -0.23788539013E+02 -0.24904776074E+02  0.33655399888E+02  0.48154330702E+02  0.10566000000E+00 0. -1.
         23    2    1    0    0    0 -0.11491512469E+02  0.18971779065E+02  0.18316550141E+02  0.96234060613E+02  0.91834172035E+02 0.  0.
         13    1    3    3    0    0  0.12297026545E+02  0.43876555140E+02 -0.15338849747E+02  0.48079729912E+02  0.10566000000E+00 0.  1.
         22    1    1    0    0    0  0.11491512469E+02 -0.18971779065E+02 -0.18316550141E+02  0.28765939387E+02  0.00000000000E+00 0.  1.
</event>
<event>
 5    1  0.6835449E-004  0.9118800E+02  0.7818608E-02  0.1130116E+00
         25   -1    0    0    0    0  0.00000000000E+00  0.00000000000E+00  0.99999998245E-14  0.12500000000E+03  0.12500000000E+03 0.  0.
        -13    1    3    3    0    0 -0.53865598414E+02 -0.30573017613E+02 -0.14583420010E+01  0.61954418922E+02  0.10566000000E+00 0.  1.
         23    2    1    0    0    0 -0.22713983132E+02 -0.18243862832E+02  0.28241699612E+01  0.95729887313E+02  0.91145333551E+02 0.  0.
         13    1    3    3    0    0  0.31151615282E+02  0.12329154782E+02  0.42825119622E+01  0.33775468391E+02  0.10566000000E+00 0. -1.
         22    1    1    0    0    0  0.22713983132E+02  0.18243862832E+02 -0.28241699612E+01  0.29270112687E+02  0.00000000000E+00 0.  1.
</event>
<event>
 5    1  0.6835449E-004  0.9118800E+02  0.7818608E-02  0.1130116E+00
         25   -1    0    0    0    0  0.00000000000E+00  0.00000000000E+00  0.99999998245E-14  0.12500000000E+03  0.12500000000E+03 0.  0.
        -13    1    3    3    0    0 -0.19676117099E+02 -0.14003210887E+01 -0.25461899826E+02  0.32209160033E+02  0.10566000000E+00 0. -1.
         23    2    1    0    0    0  0.25280942760E+02 -0.66003211665E+01  0.16641206490E+02  0.94022265096E+02  0.88772553607E+02 0.  0.
         13    1    3    3    0    0  0.44957059859E+02 -0.52000000778E+01  0.42103106316E+02  0.61813105063E+02  0.10566000000E+00 0.  1.
         22    1    1    0    0    0 -0.25280942760E+02  0.66003211665E+01 -0.16641206490E+02  0.30977734904E+02  0.00000000000E+00 0.  1.
</event>
<event>
 5    1  0.6835449E-004  0.9118800E+02  0.7818608E-02  0.1130116E+00
         25   -1    0    0    0    0  0.00000000000E+00  0.00000000000E+00  0.99999998245E-14  0.12500000000E+03  0.12500000000E+03 0.  0.
        -13    1    3    3    0    0  0.81981013041E+01 -0.33832730478E+02  0.32723443491E+02  0.47777582971E+02  0.10566000000E+00 0. -1.
         23    2    1    0    0    0  0.28156875420E+02 -0.74138673017E+01 -0.20726550353E+01  0.95809745450E+02  0.91254788162E+02 0.  0.
         13    1    3    3    0    0  0.19958774116E+02  0.26418863176E+02 -0.34796098526E+02  0.48032162479E+02  0.10566000000E+00 0.  1.
         22    1    1    0    0    0 -0.28156875420E+02  0.74138673017E+01  0.20726550353E+01  0.29190254550E+02  0.00000000000E+00 0.  1.
</event>
<event>
 5    1  0.6835449E-004  0.9118800E+02  0.7818608E-02  0.1130116E+00
         25   -1    0    0    0    0  0.00000000000E+00  0.00000000000E+00  0.99999998245E-14  0.12500000000E+03  0.12500000000E+03 0.  0.
        -13    1    3    3    0    0 -0.16623053078E+02  0.36032679503E+02 -0.40061519501E+02  0.56388087347E+02  0.10566000000E+00 0. -1.
         23    2    1    0    0    0  0.40228452801E+01  0.27644826598E+02 -0.71002902690E+01  0.96175811482E+02  0.91754852027E+02 0.  0.
         13    1    3    3    0    0  0.20645898358E+02 -0.83878529050E+01  0.32961229232E+02  0.39787724136E+02  0.10566000000E+00 0.  1.
         22    1    1    0    0    0 -0.40228452801E+01 -0.27644826598E+02  0.71002902690E+01  0.28824188518E+02  0.00000000000E+00 0. -1.
</event>
<event>
 5    1  0.6835449E-004  0.9118800E+02  0.7818608E-02  0.1130116E+00
         25   -1    0    0    0    0  0.00000000000E+00  0.00000000000E+00  0.99999998245E-14  0.12500000000E+03  0.12500000000E+03 0.  0.
        -13    1    3    3    0    0 -0.28938454790E+02 -0.98108538443E+00  0.37701614557E+02  0.47537559870E+02  0.10566000000E+00 0.  1.
         23    2    1    0    0    0  0.62226776061E+01 -0.24341296250E+02  0.17812095787E+02  0.94202416068E+02  0.89025861507E+02 0.  0.
         13    1    3    3    0    0  0.35161132396E+02 -0.23360210866E+02 -0.19889518770E+02  0.46664856198E+02  0.10566000000E+00 0. -1.
         22    1    1    0    0    0 -0.62226776061E+01  0.24341296250E+02 -0.17812095787E+02  0.30797583932E+02  0.00000000000E+00 0. -1.
</event>
<event>
 5    1  0.6835449E-004  0.9118800E+02  0.7818608E-02  0.1130116E+00
         25   -1    0    0    0    0  0.00000000000E+00  0.00000000000E+00  0.99999998245E-14  0.12500000000E+03  0.12500000000E+03 0.  0.
        -13    1    3    3    0    0  0.21344692653E+02  0.26652141085E+02 -0.30036827869E+02  0.45476969131E+02  0.10566000000E+00 0. -1.
         23    2    1    0    0    0 -0.19873050462E+02  0.20517857491E+02 -0.24213728224E+02  0.87553701849E+02  0.79141806034E+02 0.  0.
         13    1    3    3    0    0 -0.41217743115E+02 -0.61342835944E+01  0.58230996454E+01  0.42076732718E+02  0.10566000000E+00 0.  1.
         22    1    1    0    0    0  0.19873050462E+02 -0.20517857491E+02  0.24213728224E+02  0.37446298151E+02  0.00000000000E+00 0.  1.
</event>
<event>
 5    1  0.6835449E-004  0.9118800E+02  0.7818608E-02  0.1130116E+00
         25   -1    0    0    0    0  0.00000000000E+00  0.00000000000E+00  0.99999998245E-14  0.12500000000E+03  0.12500000000E+03 0.  0.
        -13    1    3    3    0    0  0.15621087162E+02  0.31123248389E+02 -0.43551464358E+02  0.55762139182E+02  0.10566000000E+00 0. -1.
         23    2    1    0    0    0 -0.64799337229E+01  0.26968656835E+02 -0.11367068189E+02  0.95024873115E+02  0.90173268094E+02 0.  0.
         13    1    3    3    0    0 -0.22101020885E+02 -0.41545915536E+01  0.32184396169E+02  0.39262733933E+02  0.10566000000E+00 0.  1.
         22    1    1    0    0    0  0.64799337229E+01 -0.26968656835E+02  0.11367068189E+02  0.29975126885E+02  0.00000000000E+00 0. -1.
</event>
<event>
 5    1  0.6835449E-004  0.9118800E+02  0.7818608E-02  0.1130116E+00
         25   -1    0    0    0    0  0.00000000000E+00  0.00000000000E+00  0.99999998245E-14  0.12500000000E+03  0.12500000000E+03 0.  0.
        -13    1    3    3    0    0 -0.44367959916E+02 -0.40304339819E+02 -0.10719820635E+02  0.60892375498E+02  0.10566000000E+00 0.  1.
         23    2    1    0    0    0 -0.16705021759E+02 -0.14348781564E+02 -0.13899626889E+02  0.98958784360E+02  0.95470917509E+02 0.  0.
         13    1    3    3    0    0  0.27662938157E+02  0.25955558255E+02 -0.31798062544E+01  0.38066408862E+02  0.10566000000E+00 0. -1.
         22    1    1    0    0    0  0.16705021759E+02  0.14348781564E+02  0.13899626889E+02  0.26041215640E+02  0.00000000000E+00 0.  1.
</event>
<event>
 5    1  0.6835449E-004  0.9118800E+02  0.7818608E-02  0.1130116E+00
         25   -1    0    0    0    0  0.00000000000E+00  0.00000000000E+00  0.99999998245E-14  0.12500000000E+03  0.12500000000E+03 0.  0.
        -13    1    3    3    0    0 -0.40092896660E+02 -0.15814268268E+02  0.15300447407E+02  0.45734519768E+02  0.10566000000E+00 0.  1.
         23    2    1    0    0    0  0.34681993655E+00 -0.26280346897E+02 -0.12483943692E+02  0.95903165684E+02  0.91382664773E+02 0.  0.
         13    1    3    3    0    0  0.40439716597E+02 -0.10466078629E+02 -0.27784391099E+02  0.50168645916E+02  0.10566000000E+00 0. -1.
         22    1    1    0    0    0 -0.34681993655E+00  0.26280346897E+02  0.12483943692E+02  0.29096834316E+02  0.00000000000E+00 0. -1.
</event>
<event>
 5    1  0.6835449E-004  0.9118800E+02  0.7818608E-02  0.1130116E+00
         25   -1    0    0    0    0  0.00000000000E+00  0.00000000000E+00  0.99999998245E-14  0.12500000000E+03  0.12500000000E+03 0.  0.
        -13    1    3    3    0    0 -0.12808012217E+02 -0.12067479766E+02  0.26541582721E+02  0.31845502386E+02  0.10566000000E+00 0. -1.
         23    2    1    0    0    0  0.39187677213E+01  0.18126369007E+02 -0.24996780574E+02  0.93875073769E+02  0.88565052037E+02 0.  0.
         13    1    3    3    0    0  0.16726779938E+02  0.30193848773E+02 -0.51538363294E+02  0.62029571383E+02  0.10566000000E+00 0.  1.
         22    1    1    0    0    0 -0.39187677213E+01 -0.18126369007E+02  0.24996780574E+02  0.31124926231E+02  0.00000000000E+00 0.  1.
</event>
<event>
 5    1  0.6835449E-004  0.9118800E+02  0.7818608E-02  0.1130116E+00
         25   -1    0    0    0    0  0.00000000000E+00  0.00000000000E+00  0.99999998245E-14  0.12500000000E+03  0.12500000000E+03 0.  0.
        -13    1    3    3    0    0  0.32724658139E+02 -0.80415547828E+01  0.52357793163E+02  0.62264914057E+02  0.10566000000E+00 0.  1.
         23    2    1    0    0    0  0.16585026495E+02 -0.79541647088E+00  0.21497967169E+02  0.97836451196E+02  0.93989961161E+02 0.  0.
         13    1    3    3    0    0 -0.16139631644E+02  0.72461383119E+01 -0.30859825994E+02  0.35571537139E+02  0.10566000000E+00 0. -1.
         22    1    1    0    0    0 -0.16585026495E+02  0.79541647088E+00 -0.21497967169E+02  0.27163548804E+02  0.00000000000E+00 0.  1.
</event>
<event>
 5    1  0.6835449E-004  0.9118800E+02  0.7818608E-02  0.1130116E+00
         25   -1    0    0    0    0  0.00000000000E+00  0.00000000000E+00  0.99999998245E-14  0.12500000000E+03  0.12500000000E+03 0.  0.
        -13    1    3    3    0    0 -0.18194196979E+02 -0.32903292761E+02 -0.25429082738E+02  0.45390581525E+02  0.10566000000E+00 0.  1.
         23    2    1    0    0    0  0.43628958446E+01 -0.21198129315E+02  0.18754930023E+02  0.96361862023E+02  0.92007964360E+02 0.  0.
         13    1    3    3    0    0  0.22557092823E+02  0.11705163446E+02  0.44184012761E+02  0.50971280498E+02  0.10566000000E+00 0. -1.
         22    1    1    0    0    0 -0.43628958446E+01  0.21198129315E+02 -0.18754930023E+02  0.28638137977E+02  0.00000000000E+00 0. -1.
</event>
<event>
 5    1  0.6835449E-004  0.9118800E+02  0.7818608E-02  0.1130116E+00
         25   -1    0    0    0    0  0.00000000000E+00  0.00000000000E+00  0.99999998245E-14  0.12500000000E+03  0.12500000000E+03 0.  0.
        -13    1    3    3    0    0  0.94655527669E+01 -0.20329119404E+02 -0.37654894220E+02  0.43826613007E+02  0.10566000000E+00 0.  1.
         23    2    1    0    0    0 -0.91489351095E+01 -0.22189719236E+02  0.12913748345E+02  0.97744696852E+02  0.93867855056E+02 0.  0.
         13    1    3    3    0    0 -0.18614487876E+02 -0.18605998320E+01  0.50568642565E+02  0.53918083845E+02  0.10566000000E+00 0. -1.
         22    1    1    0    0    0  0.91489351095E+01  0.22189719236E+02 -0.12913748345E+02  0.27255303148E+02  0.00000000000E+00 0. -1.
</event>
<event>
 5    1  0.6835449E-004  0.9118800E+02  0.7818608E-02  0.1130116E+00
         25   -1    0    0    0    0  0.00000000000E+00  0.00000000000E+00  0.99999998245E-14  0.12500000000E+03  0.12500000000E+03 0.  0.
        -13    1    3    3    0    0 -0.10263278846E+02 -0.15254868722E+01  0.55564359995E+02  0.56524961464E+02  0.10566000000E+00 0.  1.
         23    2    1    0    0    0 -0.22843712033E+02 -0.10907646769E+01  0.18767671383E+02  0.95415368244E+02  0.90712965230E+02 0.  0.
         13    1    3    3    0    0 -0.12580433188E+02  0.43472219531E+00 -0.36796688612E+02  0.38890406779E+02  0.10566000000E+00 0. -1.
         22    1    1    0    0    0  0.22843712033E+02  0.10907646769E+01 -0.18767671383E+02  0.29584631756E+02  0.00000000000E+00 0.  1.
</event>
<event>
 5    1  0.6835449E-004  0.9118800E+02  0.7818608E-02  0.1130116E+00
         25   -1    0    0    0    0  0.00000000000E+00  0.00000000000E+00  0.99999998245E-14  0.12500000000E+03  0.12500000000E+03 0.  0.
        -13    1    3    3    0    0  0.22026094391E+02 -0.43475335660E+01 -0.39204137881E+02  0.45177709916E+02  0.10566000000E+00 0.  1.
         23    2    1    0    0    0  0.20067747194E+02  0.20727967029E+02  0.46930355739E+01  0.95770089334E+02  0.91200451389E+02 0.  0.
         13    1    3    3    0    0 -0.19583471966E+01  0.25075500595E+02  0.43897173455E+02  0.50592379418E+02  0.10566000000E+00 0. -1.
         22    1    1    0    0    0 -0.20067747194E+02 -0.20727967029E+02 -0.46930355739E+01  0.29229910666E+02  0.00000000000E+00 0. -1.
</event>
<event>
 5    1  0.6835449E-004  0.9118800E+02  0.7818608E-02  0.1130116E+00
         25   -1    0    0    0    0  0.00000000000E+00  0.00000000000E+00  0.99999998245E-14  0.12500000000E+03  0.12500000000E+03 0.  0.
        -13    1    3    3    0    0 -0.11122885139E+02  0.10772335652E+02  0.48088333038E+02  0.50519904272E+02  0.10566000000E+00 0.  1.
         23    2    1    0    0    0 -0.25735474785E+02  0.13710560741E+02  0.59196534308E+01  0.95245396407E+02  0.90478445509E+02 0.  0.
         13    1    3    3    0    0 -0.14612589646E+02  0.29382250892E+01 -0.42168679607E+02  0.44725492135E+02  0.10566000000E+00 0. -1.
         22    1    1    0    0    0  0.25735474785E+02 -0.13710560741E+02 -0.59196534308E+01  0.29754603593E+02  0.00000000000E+00 0.  1.
</event>
<event>
 5    1  0.6835449E-004  0.9118800E+02  0.7818608E-02  0.1130116E+00
         25   -1    0    0    0    0  0.00000000000E+00  0.00000000000E+00  0.99999998245E-14  0.12500000000E+03  0.12500000000E+03 0.  0.
        -13    1    3    3    0    0 -0.39028383661E+00 -0.14428550708E+02 -0.40828093778E+02  0.43304500950E+02  0.10566000000E+00 0. -1.
         23    2    1    0    0    0 -0.15928689406E+02 -0.18999863654E+02  0.11198991503E+02  0.97794570840E+02  0.93934246737E+02 0.  0.
         13    1    3    3    0    0 -0.15538405570E+02 -0.45713129462E+01  0.52027085281E+02  0.54490069890E+02  0.10566000000E+00 0.  1.
         22    1    1    0    0    0  0.15928689406E+02  0.18999863654E+02 -0.11198991503E+02  0.27205429160E+02  0.00000000000E+00 0. -1.
</event>
<event>
 5    1  0.6835449E-004  0.9118800E+02  0.7818608E-02  0.1130116E+00
         25   -1    0    0    0    0  0.00000000000E+00  0.00000000000E+00  0.99999998245E-14  0.12500000000E+03  0.12500000000E+03 0.  0.
        -13    1    3    3    0    0  0.10408616158E+02 -0.18608323449E+02  0.27864075112E+02  0.35085992045E+02  0.10566000000E+00 0.  1.
         23    2    1    0    0    0 -0.13249830670E+01 -0.48439474658E+01 -0.29418325811E+02  0.95156117868E+02  0.90355019047E+02 0.  0.
         13    1    3    3    0    0 -0.11733599225E+02  0.13764375983E+02 -0.57282400923E+02  0.60070125824E+02  0.10566000000E+00 0. -1.
         22    1    1    0    0    0  0.13249830670E+01  0.48439474658E+01  0.29418325811E+02  0.29843882132E+02  0.00000000000E+00 0. -1.
</event>
<event>
 5    1  0.6835449E-004  0.9118800E+02  0.7818608E-02  0.1130116E+00
         25   -1    0    0    0    0  0.00000000000E+00  0.00000000000E+00  0.99999998245E-14  0.12500000000E+03  0.12500000000E+03 0.  0.
        -13    1    3    3    0    0  0.30413240174E+02 -0.16265493542E+02 -0.15537363267E+02  0.37827929885E+02  0.10566000000E+00 0.  1.
         23    2    1    0    0    0 -0.14551341001E+02  0.17408265733E+02 -0.20760604586E+02  0.94246269437E+02  0.89087414146E+02 0.  0.
         13    1    3    3    0    0 -0.44964581175E+02  0.33673759275E+02 -0.52232413192E+01  0.56418339552E+02  0.10566000000E+00 0. -1.
         22    1    1    0    0    0  0.14551341001E+02 -0.17408265733E+02  0.20760604586E+02  0.30753730563E+02  0.00000000000E+00 0. -1.
</event>
<event>
 5    1  0.6835449E-004  0.9118800E+02  0.7818608E-02  0.1130116E+00
         25   -1    0    0    0    0  0.00000000000E+00  0.00000000000E+00  0.99999998245E-14  0.12500000000E+03  0.12500000000E+03 0.  0.
        -13    1    3    3    0    0 -0.11667715080E+02 -0.19236022108E+01 -0.33353821156E+02  0.35388195354E+02  0.10566000000E+00 0. -1.
         23    2    1    0    0    0 -0.14660790889E+01 -0.27597397913E+02  0.16807477233E+02  0.92654103036E+02  0.86824684042E+02 0.  0.
         13    1    3    3    0    0  0.10201635991E+02 -0.25673795702E+02  0.50161298389E+02  0.57265907683E+02  0.10566000000E+00 0.  1.
         22    1    1    0    0    0  0.14660790889E+01  0.27597397913E+02 -0.16807477233E+02  0.32345896964E+02  0.00000000000E+00 0.  1.
</event>
<event>
 5    1  0.6835449E-004  0.9118800E+02  0.7818608E-02  0.1130116E+00
         25   -1    0    0    0    0  0.00000000000E+00  0.00000000000E+00  0.99999998245E-14  0.12500000000E+03  0.12500000000E+03 0.  0.
        -13    1    3    3    0    0 -0.42862694349E+02  0.11511288155E+02 -0.18418114027E+01  0.44419857667E+02  0.10566000000E+00 0. -1.
         23    2    1    0    0    0 -0.80002362417E+01 -0.17643641053E+02 -0.23317111788E+02  0.94685159547E+02  0.89701114189E+02 0.  0.
         13    1    3    3    0    0  0.34862458107E+02 -0.29154929209E+02 -0.21475300386E+02  0.50265301880E+02  0.10566000000E+00 0.  1.
         22    1    1    0    0    0  0.80002362417E+01  0.17643641053E+02  0.23317111788E+02  0.30314840453E+02  0.00000000000E+00 0. -1.
</event>
<event>
 5    1  0.6835449E-004  0.9118800E+02  0.7818608E-02  0.1130116E+00
         25   -1    0    0    0    0  0.00000000000E+00  0.00000000000E+00  0.99999998245E-14  0.12500000000E+03  0.12500000000E+03 0.  0.
        -13    1    3    3    0    0  0.35711089156E+01 -0.23302287509E+02 -0.22385592795E+02  0.32509619359E+02  0.10566000000E+00 0. -1.
         23    2    1    0    0    0 -0.21917732747E+01  0.19114487257E+02  0.23077779327E+02  0.94954178462E+02  0.90075216433E+02 0.  0.
         13    1    3    3    0    0 -0.57628821904E+01  0.42416774767E+02  0.45463372123E+02  0.62444559103E+02  0.10566000000E+00 0.  1.
         22    1    1    0    0    0  0.21917732747E+01 -0.19114487257E+02 -0.23077779327E+02  0.30045821538E+02  0.00000000000E+00 0.  1.
</event>
<event>
 5    1  0.6835449E-004  0.9118800E+02  0.7818608E-02  0.1130116E+00
         25   -1    0    0    0    0  0.00000000000E+00  0.00000000000E+00  0.99999998245E-14  0.12500000000E+03  0.12500000000E+03 0.  0.
        -13    1    3    3    0    0  0.11591203225E+01  0.45702944693E+02  0.28508251026E+02  0.53877957034E+02  0.10566000000E+00 0.  1.
         23    2    1    0    0    0 -0.27913716114E+01  0.49245622054E+01  0.29601648866E+02  0.94861972793E+02  0.89947168928E+02 0.  0.
         13    1    3    3    0    0 -0.39504919339E+01 -0.40778382488E+02  0.10933978393E+01  0.40984015759E+02  0.10566000000E+00 0. -1.
         22    1    1    0    0    0  0.27913716114E+01 -0.49245622054E+01 -0.29601648866E+02  0.30138027207E+02  0.00000000000E+00 0.  1.
</event>
<event>
 5    1  0.6835449E-004  0.9118800E+02  0.7818608E-02  0.1130116E+00
         25   -1    0    0    0    0  0.00000000000E+00  0.00000000000E+00  0.99999998245E-14  0.12500000000E+03  0.12500000000E+03 0.  0.
        -13    1    3    3    0    0  0.30619049913E+02 -0.37840176625E+02  0.32034933441E+02  0.58272234462E+02  0.10566000000E+00 0. -1.
         23    2    1    0    0    0  0.15510602509E+02 -0.40554505491E+01  0.23990581520E+02  0.96145650744E+02  0.91713754071E+02 0.  0.
         13    1    3    3    0    0 -0.15108447404E+02  0.33784726076E+02 -0.80443519214E+01  0.37873416282E+02  0.10566000000E+00 0.  1.
         22    1    1    0    0    0 -0.15510602509E+02  0.40554505491E+01 -0.23990581520E+02  0.28854349256E+02  0.00000000000E+00 0. -1.
</event>
<event>
 5    1  0.6835449E-004  0.9118800E+02  0.7818608E-02  0.1130116E+00
         25   -1    0    0    0    0  0.00000000000E+00  0.00000000000E+00  0.99999998245E-14  0.12500000000E+03  0.12500000000E+03 0.  0.
        -13    1    3    3    0    0 -0.49798340870E+01 -0.10278295325E+01  0.51758906578E+02  0.52008179696E+02  0.10566000000E+00 0. -1.
         23    2    1    0    0    0 -0.27573590296E+01  0.24518531544E+02  0.17730255876E+02  0.94617054268E+02  0.89606158087E+02 0.  0.
         13    1    3    3    0    0  0.22224750574E+01  0.25546361077E+02 -0.34028650702E+02  0.42608874572E+02  0.10566000000E+00 0.  1.
         22    1    1    0    0    0  0.27573590296E+01 -0.24518531544E+02 -0.17730255876E+02  0.30382945732E+02  0.00000000000E+00 0. -1.
</event>
<event>
 5    1  0.6835449E-004  0.9118800E+02  0.7818608E-02  0.1130116E+00
         25   -1    0    0    0    0  0.00000000000E+00  0.00000000000E+00  0.99999998245E-14  0.12500000000E+03  0.12500000000E+03 0.  0.
        -13    1    3    3    0    0 -0.11233146604E+02  0.16906278910E+02  0.31887542976E+02  0.37799899607E+02  0.10566000000E+00 0. -1.
         23    2    1    0    0    0  0.15546279126E+02 -0.24829164718E+02  0.21999986146E+02  0.88364312403E+02  0.80411927602E+02 0.  0.
         13    1    3    3    0    0  0.26779425730E+02 -0.41735443628E+02 -0.98875568306E+01  0.50564412796E+02  0.10566000000E+00 0.  1.
         22    1    1    0    0    0 -0.15546279126E+02  0.24829164718E+02 -0.21999986146E+02  0.36635687597E+02  0.00000000000E+00 0.  1.
</event>
<event>
 5    1  0.6835449E-004  0.9118800E+02  0.7818608E-02  0.1130116E+00
         25   -1    0    0    0    0  0.00000000000E+00  0.00000000000E+00  0.99999998245E-14  0.12500000000E+03  0.12500000000E+03 0.  0.
        -13    1    3    3    0    0 -0.31251597944E+02 -0.96899280561E+01  0.11157880325E+02  0.34569734410E+02  0.10566000000E+00 0. -1.
         23    2    1    0    0    0  0.25582399327E+02 -0.16465680643E+02 -0.52843743312E+01  0.94121165720E+02  0.88911705810E+02 0.  0.
         13    1    3    3    0    0  0.56833997271E+02 -0.67757525874E+01 -0.16442254656E+02  0.59551431311E+02  0.10566000000E+00 0.  1.
         22    1    1    0    0    0 -0.25582399327E+02  0.16465680643E+02  0.52843743312E+01  0.30878834280E+02  0.00000000000E+00 0.  1.
</event>
<event>
 5    1  0.6835449E-004  0.9118800E+02  0.7818608E-02  0.1130116E+00
         25   -1    0    0    0    0  0.00000000000E+00  0.00000000000E+00  0.99999998245E-14  0.12500000000E+03  0.12500000000E+03 0.  0.
        -13    1    3    3    0    0 -0.22268711521E+02 -0.72372233132E+01  0.18288596972E+02  0.29711224433E+02  0.10566000000E+00 0.  1.
         23    2    1    0    0    0  0.18934951199E+02  0.28172307318E+02 -0.80899103154E+01  0.90105044413E+02  0.83073829231E+02 0.  0.
         13    1    3    3    0    0  0.41203662719E+02  0.35409530631E+02 -0.26378507287E+02  0.60393819980E+02  0.10566000000E+00 0. -1.
         22    1    1    0    0    0 -0.18934951199E+02 -0.28172307318E+02  0.80899103154E+01  0.34894955587E+02  0.00000000000E+00 0. -1.
</event>
<event>
 5    1  0.6835449E-004  0.9118800E+02  0.7818608E-02  0.1130116E+00
         25   -1    0    0    0    0  0.00000000000E+00  0.00000000000E+00  0.99999998245E-14  0.12500000000E+03  0.12500000000E+03 0.  0.
        -13    1    3    3    0    0  0.22324031434E+01 -0.21098828771E+02  0.25991156884E+02  0.33551387445E+02  0.10566000000E+00 0. -1.
         23    2    1    0    0    0  0.22901470677E+01  0.24699096748E+02 -0.15832346015E+02  0.95572914958E+02  0.90929801162E+02 0.  0.
         13    1    3    3    0    0  0.57743924289E-01  0.45797925519E+02 -0.41823502899E+02  0.62021527512E+02  0.10566000000E+00 0.  1.
         22    1    1    0    0    0 -0.22901470677E+01 -0.24699096748E+02  0.15832346015E+02  0.29427085042E+02  0.00000000000E+00 0.  1.
</event>
<event>
 5    1  0.6835449E-004  0.9118800E+02  0.7818608E-02  0.1130116E+00
         25   -1    0    0    0    0  0.00000000000E+00  0.00000000000E+00  0.99999998245E-14  0.12500000000E+03  0.12500000000E+03 0.  0.
        -13    1    3    3    0    0 -0.81856946137E+01 -0.28543674290E+02 -0.50096053633E+02  0.58235493404E+02  0.10566000000E+00 0. -1.
         23    2    1    0    0    0 -0.49926538599E+01  0.22160694054E+01 -0.28564108510E+02  0.95918290092E+02  0.91403350722E+02 0.  0.
         13    1    3    3    0    0  0.31930407538E+01  0.30759743696E+02  0.21531945123E+02  0.37682796689E+02  0.10566000000E+00 0.  1.
         22    1    1    0    0    0  0.49926538599E+01 -0.22160694054E+01  0.28564108510E+02  0.29081709908E+02  0.00000000000E+00 0. -1.
</event>
<event>
 5    1  0.6835449E-004  0.9118800E+02  0.7818608E-02  0.1130116E+00
         25   -1    0    0    0    0  0.00000000000E+00  0.00000000000E+00  0.99999998245E-14  0.12500000000E+03  0.12500000000E+03 0.  0.
        -13    1    3    3    0    0 -0.57789786985E+02 -0.17175128403E+02 -0.32254127241E+01  0.60374323737E+02  0.10566000000E+00 0. -1.
         23    2    1    0    0    0 -0.27130965286E+02 -0.20448698995E+01 -0.11356535547E+02  0.95517095295E+02  0.90853034202E+02 0.  0.
         13    1    3    3    0    0  0.30658821699E+02  0.15130258504E+02 -0.81311228231E+01  0.35142771558E+02  0.10566000000E+00 0.  1.
         22    1    1    0    0    0  0.27130965286E+02  0.20448698995E+01  0.11356535547E+02  0.29482904705E+02  0.00000000000E+00 0. -1.
</event>
<event>
 5    1  0.6835449E-004  0.9118800E+02  0.7818608E-02  0.1130116E+00
         25   -1    0    0    0    0  0.00000000000E+00  0.00000000000E+00  0.99999998245E-14  0.12500000000E+03  0.12500000000E+03 0.  0.
        -13    1    3    3    0    0  0.42607906156E+02  0.19922940901E+02 -0.10802671641E+02  0.48260399084E+02  0.10566000000E+00 0. -1.
         23    2    1    0    0    0 -0.12466933816E+01  0.30758036203E+02 -0.35415174342E+01  0.94013658151E+02  0.88760433403E+02 0.  0.
         13    1    3    3    0    0 -0.43854599538E+02  0.10835095302E+02  0.72611542068E+01  0.45753259067E+02  0.10566000000E+00 0.  1.
         22    1    1    0    0    0  0.12466933816E+01 -0.30758036203E+02  0.35415174342E+01  0.30986341849E+02  0.00000000000E+00 0. -1.
</event>
<event>
 5    1  0.6835449E-004  0.9118800E+02  0.7818608E-02  0.1130116E+00
         25   -1    0    0    0    0  0.00000000000E+00  0.00000000000E+00  0.99999998245E-14  0.12500000000E+03  0.12500000000E+03 0.  0.
        -13    1    3    3    0    0 -0.90686272149E+01 -0.54618577882E+02 -0.20621638624E+02  0.59082080134E+02  0.10566000000E+00 0.  1.
         23    2    1    0    0    0  0.10401639118E+02 -0.24888802004E+02 -0.10711621608E+02  0.95976123639E+02  0.91482407651E+02 0.  0.
         13    1    3    3    0    0  0.19470266333E+02  0.29729775878E+02  0.99100170155E+01  0.36894043505E+02  0.10566000000E+00 0. -1.
         22    1    1    0    0    0 -0.10401639118E+02  0.24888802004E+02  0.10711621608E+02  0.29023876361E+02  0.00000000000E+00 0.  1.
</event>
<event>
 5    1  0.6835449E-004  0.9118800E+02  0.7818608E-02  0.1130116E+00
         25   -1    0    0    0    0  0.00000000000E+00  0.00000000000E+00  0.99999998245E-14  0.12500000000E+03  0.12500000000E+03 0.  0.
        -13    1    3    3    0    0 -0.36576791194E+02  0.15332265551E+02  0.41800705777E+02  0.57621612165E+02  0.10566000000E+00 0.  1.
         23    2    1    0    0    0 -0.11970660248E+02  0.22212696419E+02  0.11462146848E+02  0.97285718495E+02  0.93254649341E+02 0.  0.
         13    1    3    3    0    0  0.24606130946E+02  0.68804308680E+01 -0.30338558929E+02  0.39664106330E+02  0.10566000000E+00 0. -1.
         22    1    1    0    0    0  0.11970660248E+02 -0.22212696419E+02 -0.11462146848E+02  0.27714281505E+02  0.00000000000E+00 0.  1.
</event>
<event>
 5    1  0.6835449E-004  0.9118800E+02  0.7818608E-02  0.1130116E+00
         25   -1    0    0    0    0  0.00000000000E+00  0.00000000000E+00  0.99999998245E-14  0.12500000000E+03  0.12500000000E+03 0.  0.
        -13    1    3    3    0    0 -0.25457444760E+02 -0.56234657980E+02  0.96980566669E+01  0.62485852151E+02  0.10566000000E+00 0. -1.
         23    2    1    0    0    0 -0.11087459908E+02 -0.26105463070E+02  0.37888559135E+01  0.96385626017E+02  0.92040243938E+02 0.  0.
         13    1    3    3    0    0  0.14369984852E+02  0.30129194910E+02 -0.59092007534E+01  0.33899773866E+02  0.10566000000E+00 0.  1.
         22    1    1    0    0    0  0.11087459908E+02  0.26105463070E+02 -0.37888559135E+01  0.28614373983E+02  0.00000000000E+00 0. -1.
</event>
<event>
 5    1  0.6835449E-004  0.9118800E+02  0.7818608E-02  0.1130116E+00
         25   -1    0    0    0    0  0.00000000000E+00  0.00000000000E+00  0.99999998245E-14  0.12500000000E+03  0.12500000000E+03 0.  0.
        -13    1    3    3    0    0  0.33480595393E+02  0.12701288510E+01  0.25094396615E+02  0.41860523177E+02  0.10566000000E+00 0.  1.
         23    2    1    0    0    0 -0.19133628508E+02 -0.84111673426E+01  0.20772424348E+02  0.95532440052E+02  0.90874143809E+02 0.  0.
         13    1    3    3    0    0 -0.52614223901E+02 -0.96812961936E+01 -0.43219722669E+01  0.53671916875E+02  0.10566000000E+00 0. -1.
         22    1    1    0    0    0  0.19133628508E+02  0.84111673426E+01 -0.20772424348E+02  0.29467559948E+02  0.00000000000E+00 0. -1.
</event>
<event>
 5    1  0.6835449E-004  0.9118800E+02  0.7818608E-02  0.1130116E+00
         25   -1    0    0    0    0  0.00000000000E+00  0.00000000000E+00  0.99999998245E-14  0.12500000000E+03  0.12500000000E+03 0.  0.
        -13    1    3    3    0    0  0.16836181371E+02 -0.42772744773E+02 -0.30815743869E+02  0.55340635457E+02  0.10566000000E+00 0.  1.
         23    2    1    0    0    0 -0.11673586637E+02 -0.25230648937E+02 -0.72759609455E+01  0.96263300843E+02  0.91873963726E+02 0.  0.
         13    1    3    3    0    0 -0.28509768008E+02  0.17542095836E+02  0.23539782923E+02  0.40922665386E+02  0.10566000000E+00 0. -1.
         22    1    1    0    0    0  0.11673586637E+02  0.25230648937E+02  0.72759609455E+01  0.28736699157E+02  0.00000000000E+00 0.  1.
</event>
<event>
 5    1  0.6835449E-004  0.9118800E+02  0.7818608E-02  0.1130116E+00
         25   -1    0    0    0    0  0.00000000000E+00  0.00000000000E+00  0.99999998245E-14  0.12500000000E+03  0.12500000000E+03 0.  0.
        -13    1    3    3    0    0  0.12499298490E+01 -0.24812907622E+02 -0.48992360343E+02  0.54931823612E+02  0.10566000000E+00 0.  1.
         23    2    1    0    0    0  0.14694812737E+02  0.50401881434E+01 -0.25167647065E+02  0.95423802194E+02  0.90724586240E+02 0.  0.
         13    1    3    3    0    0  0.13444882888E+02  0.29853095765E+02  0.23824713278E+02  0.40491978582E+02  0.10566000000E+00 0. -1.
         22    1    1    0    0    0 -0.14694812737E+02 -0.50401881434E+01  0.25167647065E+02  0.29576197806E+02  0.00000000000E+00 0.  1.
</event>
<event>
 5    1  0.6835449E-004  0.9118800E+02  0.7818608E-02  0.1130116E+00
         25   -1    0    0    0    0  0.00000000000E+00  0.00000000000E+00  0.99999998245E-14  0.12500000000E+03  0.12500000000E+03 0.  0.
        -13    1    3    3    0    0 -0.85862435688E+01  0.32872698528E+02 -0.39615566843E+02  0.52189483495E+02  0.10566000000E+00 0. -1.
         23    2    1    0    0    0 -0.10984560793E+02  0.19892420587E+02  0.74617728085E+01  0.10108249540E+03  0.98212136985E+02 0.  0.
         13    1    3    3    0    0 -0.23983172245E+01 -0.12980277941E+02  0.47077339651E+02  0.48893011910E+02  0.10566000000E+00 0.  1.
         22    1    1    0    0    0  0.10984560793E+02 -0.19892420587E+02 -0.74617728085E+01  0.23917504596E+02  0.00000000000E+00 0.  1.
</event>
<event>
 5    1  0.6835449E-004  0.9118800E+02  0.7818608E-02  0.1130116E+00
         25   -1    0    0    0    0  0.00000000000E+00  0.00000000000E+00  0.99999998245E-14  0.12500000000E+03  0.12500000000E+03 0.  0.
        -13    1    3    3    0    0 -0.99769600124E+01 -0.43282851763E+02 -0.19126312274E+02  0.48360851658E+02  0.10566000000E+00 0. -1.
         23    2    1    0    0    0 -0.20274460213E+02 -0.44254391527E+02  0.64002075111E+01  0.75903487267E+02  0.57886715373E+02 0.  0.
         13    1    3    3    0    0 -0.10297500200E+02 -0.97153976427E+00  0.25526519785E+02  0.27542635609E+02  0.10566000000E+00 0.  1.
         22    1    1    0    0    0  0.20274460213E+02  0.44254391527E+02 -0.64002075111E+01  0.49096512733E+02  0.00000000000E+00 0.  1.
</event>
<event>
 5    1  0.6835449E-004  0.9118800E+02  0.7818608E-02  0.1130116E+00
         25   -1    0    0    0    0  0.00000000000E+00  0.00000000000E+00  0.99999998245E-14  0.12500000000E+03  0.12500000000E+03 0.  0.
        -13    1    3    3    0    0 -0.41998388332E+01 -0.33116603484E+02 -0.20646052082E+02  0.39250715957E+02  0.10566000000E+00 0. -1.
         23    2    1    0    0    0 -0.22043568044E+02  0.26436537553E+01  0.19172135194E+02  0.95666085069E+02  0.91057790810E+02 0.  0.
         13    1    3    3    0    0 -0.17843729211E+02  0.35760257240E+02  0.39818187276E+02  0.56415369111E+02  0.10566000000E+00 0.  1.
         22    1    1    0    0    0  0.22043568044E+02 -0.26436537553E+01 -0.19172135194E+02  0.29333914931E+02  0.00000000000E+00 0.  1.
</event>
<event>
 5    1  0.6835449E-004  0.9118800E+02  0.7818608E-02  0.1130116E+00
         25   -1    0    0    0    0  0.00000000000E+00  0.00000000000E+00  0.99999998245E-14  0.12500000000E+03  0.12500000000E+03 0.  0.
        -13    1    3    3    0    0  0.12959537583E+02 -0.36310376007E+02 -0.30839044362E+02  0.49370546293E+02  0.10566000000E+00 0. -1.
         23    2    1    0    0    0  0.31687208429E+02 -0.48359766385E+01 -0.10465271511E+02  0.91280750959E+02  0.84824452487E+02 0.  0.
         13    1    3    3    0    0  0.18727670846E+02  0.31474399368E+02  0.20373772851E+02  0.41910204666E+02  0.10566000000E+00 0.  1.
         22    1    1    0    0    0 -0.31687208429E+02  0.48359766385E+01  0.10465271511E+02  0.33719249041E+02  0.00000000000E+00 0.  1.
</event>
<event>
 5    1  0.6835449E-004  0.9118800E+02  0.7818608E-02  0.1130116E+00
         25   -1    0    0    0    0  0.00000000000E+00  0.00000000000E+00  0.99999998245E-14  0.12500000000E+03  0.12500000000E+03 0.  0.
        -13    1    3    3    0    0  0.10668349565E+02  0.24752299925E+02  0.21094593025E+02  0.34226934612E+02  0.10566000000E+00 0.  1.
         23    2    1    0    0    0 -0.36178287200E+02  0.87598265933E+01  0.68676208299E+00  0.87769976245E+02  0.79482665162E+02 0.  0.
         13    1    3    3    0    0 -0.46846636765E+02 -0.15992473332E+02 -0.20407830942E+02  0.53543041633E+02  0.10566000000E+00 0. -1.
         22    1    1    0    0    0  0.36178287200E+02 -0.87598265933E+01 -0.68676208299E+00  0.37230023755E+02  0.00000000000E+00 0. -1.
</event>
<event>
 5    1  0.6835449E-004  0.9118800E+02  0.7818608E-02  0.1130116E+00
         25   -1    0    0    0    0  0.00000000000E+00  0.00000000000E+00  0.99999998245E-14  0.12500000000E+03  0.12500000000E+03 0.  0.
        -13    1    3    3    0    0 -0.20767400250E+02  0.16238477108E+00 -0.52013467051E+02  0.56006456777E+02  0.10566000000E+00 0.  1.
         23    2    1    0    0    0 -0.59626732747E+01 -0.19639091215E+02 -0.21557634119E+02  0.95234601210E+02  0.90463530235E+02 0.  0.
         13    1    3    3    0    0  0.14804726975E+02 -0.19801475986E+02  0.30455832933E+02  0.39228144433E+02  0.10566000000E+00 0. -1.
         22    1    1    0    0    0  0.59626732747E+01  0.19639091215E+02  0.21557634119E+02  0.29765398790E+02  0.00000000000E+00 0.  1.
</event>
<event>
 5    1  0.6835449E-004  0.9118800E+02  0.7818608E-02  0.1130116E+00
         25   -1    0    0    0    0  0.00000000000E+00  0.00000000000E+00  0.99999998245E-14  0.12500000000E+03  0.12500000000E+03 0.  0.
        -13    1    3    3    0    0 -0.49265801735E+02 -0.27420784435E+02  0.19198230808E+02  0.59561748377E+02  0.10566000000E+00 0.  1.
         23    2    1    0    0    0 -0.70141821572E+01 -0.17051808831E+02  0.15969268171E+01  0.10649289026E+03  0.10487241088E+03 0.  0.
         13    1    3    3    0    0  0.42251619578E+02  0.10368975604E+02 -0.17601303990E+02  0.46931141880E+02  0.10566000000E+00 0. -1.
         22    1    1    0    0    0  0.70141821572E+01  0.17051808831E+02 -0.15969268171E+01  0.18507109742E+02  0.00000000000E+00 0.  1.
</event>
<event>
 5    1  0.6835449E-004  0.9118800E+02  0.7818608E-02  0.1130116E+00
         25   -1    0    0    0    0  0.00000000000E+00  0.00000000000E+00  0.99999998245E-14  0.12500000000E+03  0.12500000000E+03 0.  0.
        -13    1    3    3    0    0 -0.16998532619E+01 -0.47042006619E+02 -0.13040738871E+00  0.47073007743E+02  0.10566000000E+00 0.  1.
         23    2    1    0    0    0  0.13258290495E+02 -0.77965616244E+01  0.24728795978E+02  0.95878152693E+02  0.91348443738E+02 0.  0.
         13    1    3    3    0    0  0.14958143757E+02  0.39245444995E+02  0.24859203367E+02  0.48805144950E+02  0.10566000000E+00 0. -1.
         22    1    1    0    0    0 -0.13258290495E+02  0.77965616244E+01 -0.24728795978E+02  0.29121847307E+02  0.00000000000E+00 0. -1.
</event>
<event>
 5    1  0.6835449E-004  0.9118800E+02  0.7818608E-02  0.1130116E+00
         25   -1    0    0    0    0  0.00000000000E+00  0.00000000000E+00  0.99999998245E-14  0.12500000000E+03  0.12500000000E+03 0.  0.
        -13    1    3    3    0    0  0.93621572140E+01 -0.11687957339E+01  0.30982069813E+02  0.32386970916E+02  0.10566000000E+00 0. -1.
         23    2    1    0    0    0  0.16437365392E+02 -0.11434459840E+01 -0.28387679979E+02  0.92176916289E+02  0.86134946869E+02 0.  0.
         13    1    3    3    0    0  0.70752081779E+01  0.25349749938E-01 -0.59369749792E+02  0.59789945373E+02  0.10566000000E+00 0.  1.
         22    1    1    0    0    0 -0.16437365392E+02  0.11434459840E+01  0.28387679979E+02  0.32823083711E+02  0.00000000000E+00 0.  1.
</event>
<event>
 5    1  0.6835449E-004  0.9118800E+02  0.7818608E-02  0.1130116E+00
         25   -1    0    0    0    0  0.00000000000E+00  0.00000000000E+00  0.99999998245E-14  0.12500000000E+03  0.12500000000E+03 0.  0.
        -13    1    3    3    0    0 -0.17012263594E+01 -0.56588205266E+01 -0.51384305899E+02  0.51723055571E+02  0.10566000000E+00 0. -1.
         23    2    1    0    0    0 -0.24810527947E+02  0.26084517453E+01 -0.14149246205E+02  0.96319562666E+02  0.91950479425E+02 0.  0.
         13    1    3    3    0    0 -0.23109301587E+02  0.82672722720E+01  0.37235059693E+02  0.44596507095E+02  0.10566000000E+00 0.  1.
         22    1    1    0    0    0  0.24810527947E+02 -0.26084517453E+01  0.14149246205E+02  0.28680437334E+02  0.00000000000E+00 0. -1.
</event>
<event>
 5    1  0.6835449E-004  0.9118800E+02  0.7818608E-02  0.1130116E+00
         25   -1    0    0    0    0  0.00000000000E+00  0.00000000000E+00  0.99999998245E-14  0.12500000000E+03  0.12500000000E+03 0.  0.
        -13    1    3    3    0    0 -0.24273922834E+02 -0.30360717760E+02  0.25200014421E+02  0.46325461719E+02  0.10566000000E+00 0.  1.
         23    2    1    0    0    0 -0.12203340064E+02  0.16552196822E+02  0.22019877677E+02  0.94870749408E+02  0.89959365004E+02 0.  0.
         13    1    3    3    0    0  0.12070582769E+02  0.46912914582E+02 -0.31801367444E+01  0.48545287688E+02  0.10566000000E+00 0. -1.
         22    1    1    0    0    0  0.12203340064E+02 -0.16552196822E+02 -0.22019877677E+02  0.30129250592E+02  0.00000000000E+00 0. -1.
</event>
<event>
 5    1  0.6835449E-004  0.9118800E+02  0.7818608E-02  0.1130116E+00
         25   -1    0    0    0    0  0.00000000000E+00  0.00000000000E+00  0.99999998245E-14  0.12500000000E+03  0.12500000000E+03 0.  0.
        -13    1    3    3    0    0  0.54623441803E+02  0.14886772095E+01  0.24218148938E+02  0.59770113403E+02  0.10566000000E+00 0.  1.
         23    2    1    0    0    0  0.22819840388E+02  0.44766574641E+01 -0.27600670434E+01  0.10158198242E+03  0.98845817334E+02 0.  0.
         13    1    3    3    0    0 -0.31803601415E+02  0.29879802547E+01 -0.26978215981E+02  0.41811869015E+02  0.10566000000E+00 0. -1.
         22    1    1    0    0    0 -0.22819840388E+02 -0.44766574641E+01  0.27600670434E+01  0.23418017582E+02  0.00000000000E+00 0.  1.
</event>
<event>
 5    1  0.6835449E-004  0.9118800E+02  0.7818608E-02  0.1130116E+00
         25   -1    0    0    0    0  0.00000000000E+00  0.00000000000E+00  0.99999998245E-14  0.12500000000E+03  0.12500000000E+03 0.  0.
        -13    1    3    3    0    0  0.40062292326E+02  0.91945167093E+01  0.35457473082E+02  0.54284159433E+02  0.10566000000E+00 0. -1.
         23    2    1    0    0    0  0.25288231466E+02  0.15718108504E+02 -0.20838236344E+01  0.95152120568E+02  0.90349488887E+02 0.  0.
         13    1    3    3    0    0 -0.14774060860E+02  0.65235917942E+01 -0.37541296717E+02  0.40867961135E+02  0.10566000000E+00 0.  1.
         22    1    1    0    0    0 -0.25288231466E+02 -0.15718108504E+02  0.20838236344E+01  0.29847879432E+02  0.00000000000E+00 0. -1.
</event>
<event>
 5    1  0.6835449E-004  0.9118800E+02  0.7818608E-02  0.1130116E+00
         25   -1    0    0    0    0  0.00000000000E+00  0.00000000000E+00  0.99999998245E-14  0.12500000000E+03  0.12500000000E+03 0.  0.
        -13    1    3    3    0    0  0.12811724546E+02  0.51343447135E+02  0.14884706280E+02  0.54971406155E+02  0.10566000000E+00 0. -1.
         23    2    1    0    0    0  0.95164586136E+00  0.24445737116E+02 -0.14520879996E+02  0.96550823407E+02  0.92264325997E+02 0.  0.
         13    1    3    3    0    0 -0.11860078685E+02 -0.26897710019E+02 -0.29405586276E+02  0.41579417251E+02  0.10566000000E+00 0.  1.
         22    1    1    0    0    0 -0.95164586136E+00 -0.24445737116E+02  0.14520879996E+02  0.28449176593E+02  0.00000000000E+00 0. -1.
</event>
<event>
 5    1  0.6835449E-004  0.9118800E+02  0.7818608E-02  0.1130116E+00
         25   -1    0    0    0    0  0.00000000000E+00  0.00000000000E+00  0.99999998245E-14  0.12500000000E+03  0.12500000000E+03 0.  0.
        -13    1    3    3    0    0  0.90386125403E+01 -0.44936455465E+02 -0.12241084741E+02  0.47442985426E+02  0.10566000000E+00 0.  1.
         23    2    1    0    0    0 -0.24544823127E+02 -0.11438348828E+02 -0.13174248204E+02  0.94886133062E+02  0.89980738302E+02 0.  0.
         13    1    3    3    0    0 -0.33583435667E+02  0.33498106638E+02 -0.93316346370E+00  0.47443147636E+02  0.10566000000E+00 0. -1.
         22    1    1    0    0    0  0.24544823127E+02  0.11438348828E+02  0.13174248204E+02  0.30113866938E+02  0.00000000000E+00 0. -1.
</event>
<event>
 5    1  0.6835449E-004  0.9118800E+02  0.7818608E-02  0.1130116E+00
         25   -1    0    0    0    0  0.00000000000E+00  0.00000000000E+00  0.99999998245E-14  0.12500000000E+03  0.12500000000E+03 0.  0.
        -13    1    3    3    0    0 -0.33580547530E+02  0.27306061877E+02 -0.46077411656E+01  0.43526045425E+02  0.10566000000E+00 0. -1.
         23    2    1    0    0    0 -0.40227457641E+01 -0.13414846751E+02 -0.23804510238E+02  0.97381250852E+02  0.93382614619E+02 0.  0.
         13    1    3    3    0    0  0.29557801766E+02 -0.40720908628E+02 -0.19196769072E+02  0.53855205427E+02  0.10566000000E+00 0.  1.
         22    1    1    0    0    0  0.40227457641E+01  0.13414846751E+02  0.23804510238E+02  0.27618749148E+02  0.00000000000E+00 0.  1.
</event>
<event>
 4    1  0.6835449E-004  0.9118800E+02  0.7818608E-02  0.1130116E+00
         25   -1    0    0    0    0  0.00000000000E+00  0.00000000000E+00  0.99999998245E-14  0.12500000000E+03  0.12500000000E+03 0.  0.
        -13    1    1    0    0    0  0.70762849525E+01 -0.39571953510E+01 -0.69886545278E+00  0.81383524581E+01  0.10566000000E+00 0. -1.
         13    1    1    0    0    0 -0.26936595507E+02 -0.42723151009E+02 -0.28838576464E+02  0.58159457237E+02  0.10566000000E+00 0.  1.
         22    1    1    0    0    0  0.19860310554E+02  0.46680346360E+02  0.29537441916E+02  0.58702190305E+02  0.00000000000E+00 0.  1.
</event>
<event>
 5    1  0.6835449E-004  0.9118800E+02  0.7818608E-02  0.1130116E+00
         25   -1    0    0    0    0  0.00000000000E+00  0.00000000000E+00  0.99999998245E-14  0.12500000000E+03  0.12500000000E+03 0.  0.
        -13    1    3    3    0    0  0.12852104296E+02 -0.37717868242E+02  0.94347002105E+01  0.40949223456E+02  0.10566000000E+00 0.  1.
         23    2    1    0    0    0 -0.40547870689E+01  0.15142507602E+02  0.22129261124E+02  0.97880983931E+02  0.94049167900E+02 0.  0.
         13    1    3    3    0    0 -0.16906891365E+02  0.52860375844E+02  0.12694560914E+02  0.56931760475E+02  0.10566000000E+00 0. -1.
         22    1    1    0    0    0  0.40547870689E+01 -0.15142507602E+02 -0.22129261124E+02  0.27119016069E+02  0.00000000000E+00 0. -1.
</event>
<event>
 5    1  0.6835449E-004  0.9118800E+02  0.7818608E-02  0.1130116E+00
         25   -1    0    0    0    0  0.00000000000E+00  0.00000000000E+00  0.99999998245E-14  0.12500000000E+03  0.12500000000E+03 0.  0.
        -13    1    3    3    0    0 -0.14350703113E+02 -0.30882513036E+02 -0.10249178067E+02  0.35563030050E+02  0.10566000000E+00 0.  1.
         23    2    1    0    0    0 -0.96431819473E+01  0.28078765967E+02 -0.40663718382E+01  0.95034295666E+02  0.90186328879E+02 0.  0.
         13    1    3    3    0    0  0.47075211655E+01  0.58961279003E+02  0.61828062285E+01  0.59471265617E+02  0.10566000000E+00 0. -1.
         22    1    1    0    0    0  0.96431819473E+01 -0.28078765967E+02  0.40663718382E+01  0.29965704334E+02  0.00000000000E+00 0. -1.
</event>
<event>
 5    1  0.6835449E-004  0.9118800E+02  0.7818608E-02  0.1130116E+00
         25   -1    0    0    0    0  0.00000000000E+00  0.00000000000E+00  0.99999998245E-14  0.12500000000E+03  0.12500000000E+03 0.  0.
        -13    1    3    3    0    0  0.69267518327E+01  0.40878681552E+02  0.42949242903E+02  0.59696692759E+02  0.10566000000E+00 0. -1.
         23    2    1    0    0    0  0.47106501770E+01  0.27181997112E+02  0.96454879209E+01  0.95775239448E+02  0.91207509899E+02 0.  0.
         13    1    3    3    0    0 -0.22161016558E+01 -0.13696684440E+02 -0.33303754982E+02  0.36078546689E+02  0.10566000000E+00 0.  1.
         22    1    1    0    0    0 -0.47106501770E+01 -0.27181997112E+02 -0.96454879209E+01  0.29224760552E+02  0.00000000000E+00 0. -1.
</event>
<event>
 5    1  0.6835449E-004  0.9118800E+02  0.7818608E-02  0.1130116E+00
         25   -1    0    0    0    0  0.00000000000E+00  0.00000000000E+00  0.99999998245E-14  0.12500000000E+03  0.12500000000E+03 0.  0.
        -13    1    3    3    0    0 -0.39010469541E+02  0.15434157204E+02 -0.28764598756E+02  0.50866917029E+02  0.10566000000E+00 0.  1.
         23    2    1    0    0    0 -0.10915169237E+01 -0.56309637114E+01 -0.30192213241E+02  0.94267787228E+02  0.89117600994E+02 0.  0.
         13    1    3    3    0    0  0.37918952618E+02 -0.21065120916E+02 -0.14276144844E+01  0.43400870198E+02  0.10566000000E+00 0. -1.
         22    1    1    0    0    0  0.10915169237E+01  0.56309637114E+01  0.30192213241E+02  0.30732212772E+02  0.00000000000E+00 0.  1.
</event>
<event>
 5    1  0.6835449E-004  0.9118800E+02  0.7818608E-02  0.1130116E+00
         25   -1    0    0    0    0  0.00000000000E+00  0.00000000000E+00  0.99999998245E-14  0.12500000000E+03  0.12500000000E+03 0.  0.
        -13    1    3    3    0    0  0.14655929111E+01 -0.33362101374E+02  0.25756073008E+01  0.33493621597E+02  0.10566000000E+00 0. -1.
         23    2    1    0    0    0 -0.89246334181E+01  0.26802487435E+02 -0.84015508397E+01  0.95527835661E+02  0.90867810115E+02 0.  0.
         13    1    3    3    0    0 -0.10390226329E+02  0.60164588808E+02 -0.10977158140E+02  0.62034214064E+02  0.10566000000E+00 0.  1.
         22    1    1    0    0    0  0.89246334181E+01 -0.26802487435E+02  0.84015508397E+01  0.29472164339E+02  0.00000000000E+00 0.  1.
</event>
<event>
 5    1  0.6835449E-004  0.9118800E+02  0.7818608E-02  0.1130116E+00
         25   -1    0    0    0    0  0.00000000000E+00  0.00000000000E+00  0.99999998245E-14  0.12500000000E+03  0.12500000000E+03 0.  0.
        -13    1    3    3    0    0 -0.24723187958E+02 -0.32927261702E+02 -0.23317925364E+02  0.47319947097E+02  0.10566000000E+00 0. -1.
         23    2    1    0    0    0 -0.63817670759E+01  0.12085919206E+02 -0.25599936532E+02  0.95980125009E+02  0.91487874892E+02 0.  0.
         13    1    3    3    0    0  0.18341420882E+02  0.45013180908E+02 -0.22820111680E+01  0.48660177912E+02  0.10566000000E+00 0.  1.
         22    1    1    0    0    0  0.63817670759E+01 -0.12085919206E+02  0.25599936532E+02  0.29019874991E+02  0.00000000000E+00 0. -1.
</event>
<event>
 5    1  0.6835449E-004  0.9118800E+02  0.7818608E-02  0.1130116E+00
         25   -1    0    0    0    0  0.00000000000E+00  0.00000000000E+00  0.99999998245E-14  0.12500000000E+03  0.12500000000E+03 0.  0.
        -13    1    3    3    0    0 -0.24327836528E+02 -0.52691780106E+02  0.24296395758E+01  0.58087706388E+02  0.10566000000E+00 0.  1.
         23    2    1    0    0    0 -0.21803848001E+02 -0.14127033435E+02  0.94245410637E+01  0.97363016887E+02  0.93358203827E+02 0.  0.
         13    1    3    3    0    0  0.25239885270E+01  0.38564746672E+02  0.69949014878E+01  0.39275310499E+02  0.10566000000E+00 0. -1.
         22    1    1    0    0    0  0.21803848001E+02  0.14127033435E+02 -0.94245410637E+01  0.27636983113E+02  0.00000000000E+00 0.  1.
</event>
<event>
 5    1  0.6835449E-004  0.9118800E+02  0.7818608E-02  0.1130116E+00
         25   -1    0    0    0    0  0.00000000000E+00  0.00000000000E+00  0.99999998245E-14  0.12500000000E+03  0.12500000000E+03 0.  0.
        -13    1    3    3    0    0  0.59387370660E+02  0.12542174474E+02 -0.13828947111E+01  0.60713173992E+02  0.10566000000E+00 0. -1.
         23    2    1    0    0    0  0.25144065619E+02  0.90597295217E+01  0.92177003853E+01  0.96728658765E+02  0.92504944144E+02 0.  0.
         13    1    3    3    0    0 -0.34243305041E+02 -0.34824449519E+01  0.10600595096E+02  0.36015484772E+02  0.10566000000E+00 0.  1.
         22    1    1    0    0    0 -0.25144065619E+02 -0.90597295217E+01 -0.92177003853E+01  0.28271341235E+02  0.00000000000E+00 0. -1.
</event>
<event>
 5    1  0.6835449E-004  0.9118800E+02  0.7818608E-02  0.1130116E+00
         25   -1    0    0    0    0  0.00000000000E+00  0.00000000000E+00  0.99999998245E-14  0.12500000000E+03  0.12500000000E+03 0.  0.
        -13    1    3    3    0    0 -0.73467627383E+01 -0.42510316389E+02  0.19233724901E+02  0.47233984162E+02  0.10566000000E+00 0.  1.
         23    2    1    0    0    0 -0.18110027743E+02  0.47171002914E+01  0.22442450813E+02  0.95778642425E+02  0.91212173564E+02 0.  0.
         13    1    3    3    0    0 -0.10763265005E+02  0.47227416680E+02  0.32087259120E+01  0.48544658263E+02  0.10566000000E+00 0. -1.
         22    1    1    0    0    0  0.18110027743E+02 -0.47171002914E+01 -0.22442450813E+02  0.29221357575E+02  0.00000000000E+00 0.  1.
</event>
<event>
 5    1  0.6835449E-004  0.9118800E+02  0.7818608E-02  0.1130116E+00
         25   -1    0    0    0    0  0.00000000000E+00  0.00000000000E+00  0.99999998245E-14  0.12500000000E+03  0.12500000000E+03 0.  0.
        -13    1    3    3    0    0  0.27148337621E+02 -0.23048249380E+02  0.18343521058E+02  0.40059330547E+02  0.10566000000E+00 0. -1.
         23    2    1    0    0    0 -0.26056701691E+02 -0.82069499480E+01  0.22676848722E+01  0.97587445848E+02  0.93658216201E+02 0.  0.
         13    1    3    3    0    0 -0.53205039312E+02  0.14841299432E+02 -0.16075836185E+02  0.57528115301E+02  0.10566000000E+00 0.  1.
         22    1    1    0    0    0  0.26056701691E+02  0.82069499480E+01 -0.22676848722E+01  0.27412554152E+02  0.00000000000E+00 0.  1.
</event>
<event>
 5    1  0.6835449E-004  0.9118800E+02  0.7818608E-02  0.1130116E+00
         25   -1    0    0    0    0  0.00000000000E+00  0.00000000000E+00  0.99999998245E-14  0.12500000000E+03  0.12500000000E+03 0.  0.
        -13    1    3    3    0    0 -0.30735965587E+02  0.14067778470E+02  0.11543594338E+02  0.35719290389E+02  0.10566000000E+00 0.  1.
         23    2    1    0    0    0  0.28114489429E+02  0.36762877539E+01  0.77777010221E+01  0.95598771443E+02  0.90965338787E+02 0.  0.
         13    1    3    3    0    0  0.58850455015E+02 -0.10391490716E+02 -0.37658933156E+01  0.59879481054E+02  0.10566000000E+00 0. -1.
         22    1    1    0    0    0 -0.28114489429E+02 -0.36762877539E+01 -0.77777010221E+01  0.29401228557E+02  0.00000000000E+00 0. -1.
</event>
<event>
 5    1  0.6835449E-004  0.9118800E+02  0.7818608E-02  0.1130116E+00
         25   -1    0    0    0    0  0.00000000000E+00  0.00000000000E+00  0.99999998245E-14  0.12500000000E+03  0.12500000000E+03 0.  0.
        -13    1    3    3    0    0  0.55222380183E+01  0.13031880436E+02 -0.33359621575E+02  0.36238108893E+02  0.10566000000E+00 0. -1.
         23    2    1    0    0    0  0.16184317328E+02  0.62348326228E+01  0.24231562390E+02  0.95201109399E+02  0.90417240334E+02 0.  0.
         13    1    3    3    0    0  0.10662079310E+02 -0.67970478131E+01  0.57591183965E+02  0.58963000506E+02  0.10566000000E+00 0.  1.
         22    1    1    0    0    0 -0.16184317328E+02 -0.62348326228E+01 -0.24231562390E+02  0.29798890601E+02  0.00000000000E+00 0.  1.
</event>
<event>
 5    1  0.6835449E-004  0.9118800E+02  0.7818608E-02  0.1130116E+00
         25   -1    0    0    0    0  0.00000000000E+00  0.00000000000E+00  0.99999998245E-14  0.12500000000E+03  0.12500000000E+03 0.  0.
        -13    1    3    3    0    0  0.22920764809E+02  0.17480732925E+02 -0.51017659121E+02  0.58598209778E+02  0.10566000000E+00 0.  1.
         23    2    1    0    0    0  0.79519263455E+01  0.22647255896E+02 -0.18751026587E+02  0.94541301238E+02  0.89500420723E+02 0.  0.
         13    1    3    3    0    0 -0.14968838464E+02  0.51665229711E+01  0.32266632534E+02  0.35943091460E+02  0.10566000000E+00 0. -1.
         22    1    1    0    0    0 -0.79519263455E+01 -0.22647255896E+02  0.18751026587E+02  0.30458698762E+02  0.00000000000E+00 0.  1.
</event>
<event>
 5    1  0.6835449E-004  0.9118800E+02  0.7818608E-02  0.1130116E+00
         25   -1    0    0    0    0  0.00000000000E+00  0.00000000000E+00  0.99999998245E-14  0.12500000000E+03  0.12500000000E+03 0.  0.
        -13    1    3    3    0    0  0.40082535186E+02  0.22802217441E+02  0.38558512001E+02  0.60110903827E+02  0.10566000000E+00 0. -1.
         23    2    1    0    0    0  0.18369878948E+02  0.18267174770E+02  0.79702893044E+01  0.97895246944E+02  0.94068122847E+02 0.  0.
         13    1    3    3    0    0 -0.21712656237E+02 -0.45350426710E+01 -0.30588222697E+02  0.37784343116E+02  0.10566000000E+00 0.  1.
         22    1    1    0    0    0 -0.18369878948E+02 -0.18267174770E+02 -0.79702893044E+01  0.27104753056E+02  0.00000000000E+00 0. -1.
</event>
<event>
 5    1  0.6835449E-004  0.9118800E+02  0.7818608E-02  0.1130116E+00
         25   -1    0    0    0    0  0.00000000000E+00  0.00000000000E+00  0.99999998245E-14  0.12500000000E+03  0.12500000000E+03 0.  0.
        -13    1    3    3    0    0  0.97788195548E+01 -0.19510272594E+02  0.21306135349E+02  0.30499813379E+02  0.10566000000E+00 0. -1.
         23    2    1    0    0    0 -0.30706077875E+01  0.35056139946E+02  0.14379448781E+02  0.86985132811E+02  0.78238629863E+02 0.  0.
         13    1    3    3    0    0 -0.12849427342E+02  0.54566412541E+02 -0.69266865677E+01  0.56485319433E+02  0.10566000000E+00 0.  1.
         22    1    1    0    0    0  0.30706077875E+01 -0.35056139946E+02 -0.14379448781E+02  0.38014867189E+02  0.00000000000E+00 0.  1.
</event>
<event>
 5    1  0.6835449E-004  0.9118800E+02  0.7818608E-02  0.1130116E+00
         25   -1    0    0    0    0  0.00000000000E+00  0.00000000000E+00  0.99999998245E-14  0.12500000000E+03  0.12500000000E+03 0.  0.
        -13    1    3    3    0    0  0.32516900292E+02 -0.34384963641E+02 -0.14589746528E+02  0.49523190496E+02  0.10566000000E+00 0. -1.
         23    2    1    0    0    0 -0.69612386775E+01 -0.17771268956E+02  0.14268912519E+02  0.10116979419E+03  0.98323184187E+02 0.  0.
         13    1    3    3    0    0 -0.39478138969E+02  0.16613694685E+02  0.28858659047E+02  0.51646603698E+02  0.10566000000E+00 0.  1.
         22    1    1    0    0    0  0.69612386775E+01  0.17771268956E+02 -0.14268912519E+02  0.23830205805E+02  0.00000000000E+00 0. -1.
</event>
<event>
 5    1  0.6835449E-004  0.9118800E+02  0.7818608E-02  0.1130116E+00
         25   -1    0    0    0    0  0.00000000000E+00  0.00000000000E+00  0.99999998245E-14  0.12500000000E+03  0.12500000000E+03 0.  0.
        -13    1    3    3    0    0  0.29048174921E+01 -0.45651379102E+01 -0.55597882371E+02  0.55860667173E+02  0.10566000000E+00 0.  1.
         23    2    1    0    0    0 -0.53145209592E+00 -0.21401650598E+02 -0.18656440092E+02  0.96603242323E+02  0.92335316000E+02 0.  0.
         13    1    3    3    0    0 -0.34362695881E+01 -0.16836512687E+02  0.36941442279E+02  0.40742575150E+02  0.10566000000E+00 0. -1.
         22    1    1    0    0    0  0.53145209592E+00  0.21401650598E+02  0.18656440092E+02  0.28396757677E+02  0.00000000000E+00 0.  1.
</event>
<event>
 5    1  0.6835449E-004  0.9118800E+02  0.7818608E-02  0.1130116E+00
         25   -1    0    0    0    0  0.00000000000E+00  0.00000000000E+00  0.99999998245E-14  0.12500000000E+03  0.12500000000E+03 0.  0.
        -13    1    3    3    0    0  0.38088244589E+02  0.15603131524E+02  0.59689212723E+01  0.41590999921E+02  0.10566000000E+00 0.  1.
         23    2    1    0    0    0  0.10902194244E+02 -0.28572354844E+02 -0.31479053907E+01  0.94256763199E+02  0.89102136897E+02 0.  0.
         13    1    3    3    0    0 -0.27186050345E+02 -0.44175486368E+02 -0.91168266630E+01  0.52665763278E+02  0.10566000000E+00 0. -1.
         22    1    1    0    0    0 -0.10902194244E+02  0.28572354844E+02  0.31479053907E+01  0.30743236801E+02  0.00000000000E+00 0. -1.
</event>
<event>
 5    1  0.6835449E-004  0.9118800E+02  0.7818608E-02  0.1130116E+00
         25   -1    0    0    0    0  0.00000000000E+00  0.00000000000E+00  0.99999998245E-14  0.12500000000E+03  0.12500000000E+03 0.  0.
        -13    1    3    3    0    0  0.16643065604E+02 -0.47514227018E+02 -0.31651954231E+02  0.59468065149E+02  0.10566000000E+00 0. -1.
         23    2    1    0    0    0  0.70525443267E+01 -0.14777066956E+02 -0.26330197141E+02  0.93993881720E+02  0.88732578177E+02 0.  0.
         13    1    3    3    0    0 -0.95905212773E+01  0.32737160063E+02  0.53217570898E+01  0.34525816571E+02  0.10566000000E+00 0.  1.
         22    1    1    0    0    0 -0.70525443267E+01  0.14777066956E+02  0.26330197141E+02  0.31006118280E+02  0.00000000000E+00 0. -1.
</event>
<event>
 5    1  0.6835449E-004  0.9118800E+02  0.7818608E-02  0.1130116E+00
         25   -1    0    0    0    0  0.00000000000E+00  0.00000000000E+00  0.99999998245E-14  0.12500000000E+03  0.12500000000E+03 0.  0.
        -13    1    3    3    0    0  0.13736649786E+02 -0.23232664516E+02 -0.42121675653E+02  0.50026982437E+02  0.10566000000E+00 0.  1.
         23    2    1    0    0    0  0.25402018625E+02  0.85251283686E+01 -0.10870271636E+02  0.96084551372E+02  0.91630441682E+02 0.  0.
         13    1    3    3    0    0  0.11665368839E+02  0.31757792885E+02  0.31251404018E+02  0.46057568935E+02  0.10566000000E+00 0. -1.
         22    1    1    0    0    0 -0.25402018625E+02 -0.85251283686E+01  0.10870271636E+02  0.28915448628E+02  0.00000000000E+00 0.  1.
</event>
<event>
 5    1  0.6835449E-004  0.9118800E+02  0.7818608E-02  0.1130116E+00
         25   -1    0    0    0    0  0.00000000000E+00  0.00000000000E+00  0.99999998245E-14  0.12500000000E+03  0.12500000000E+03 0.  0.
        -13    1    3    3    0    0  0.10020323601E+02  0.31343171581E+02 -0.19539333411E+02  0.38270066684E+02  0.10566000000E+00 0. -1.
         23    2    1    0    0    0 -0.17862294340E+02 -0.13007393734E+02  0.12435670024E+02  0.99644532350E+02  0.96364584197E+02 0.  0.
         13    1    3    3    0    0 -0.27882617941E+02 -0.44350565315E+02  0.31975003435E+02  0.61374465665E+02  0.10566000000E+00 0.  1.
         22    1    1    0    0    0  0.17862294340E+02  0.13007393734E+02 -0.12435670024E+02  0.25355467650E+02  0.00000000000E+00 0.  1.
</event>
<event>
 5    1  0.6835449E-004  0.9118800E+02  0.7818608E-02  0.1130116E+00
         25   -1    0    0    0    0  0.00000000000E+00  0.00000000000E+00  0.99999998245E-14  0.12500000000E+03  0.12500000000E+03 0.  0.
        -13    1    3    3    0    0  0.42363518687E+02  0.13545830243E+02 -0.37823330103E+02  0.58384695739E+02  0.10566000000E+00 0.  1.
         23    2    1    0    0    0  0.19387415857E+02  0.19995954303E+02 -0.91630547726E+01  0.95679842175E+02  0.91076673983E+02 0.  0.
         13    1    3    3    0    0 -0.22976102830E+02  0.64501240601E+01  0.28660275330E+02  0.37295146436E+02  0.10566000000E+00 0. -1.
         22    1    1    0    0    0 -0.19387415857E+02 -0.19995954303E+02  0.91630547726E+01  0.29320157825E+02  0.00000000000E+00 0.  1.
</event>
<event>
 5    1  0.6835449E-004  0.9118800E+02  0.7818608E-02  0.1130116E+00
         25   -1    0    0    0    0  0.00000000000E+00  0.00000000000E+00  0.99999998245E-14  0.12500000000E+03  0.12500000000E+03 0.  0.
        -13    1    3    3    0    0 -0.21046745364E+01 -0.46860096244E+02 -0.16031761487E+02  0.49571431443E+02  0.10566000000E+00 0. -1.
         23    2    1    0    0    0 -0.24917310079E+02 -0.15614586002E+02  0.72366347890E+01  0.94717058917E+02  0.89745555484E+02 0.  0.
         13    1    3    3    0    0 -0.22812635542E+02  0.31245510242E+02  0.23268396276E+02  0.45145627474E+02  0.10566000000E+00 0.  1.
         22    1    1    0    0    0  0.24917310079E+02  0.15614586002E+02 -0.72366347890E+01  0.30282941083E+02  0.00000000000E+00 0.  1.
</event>
<event>
 5    1  0.6835449E-004  0.9118800E+02  0.7818608E-02  0.1130116E+00
         25   -1    0    0    0    0  0.00000000000E+00  0.00000000000E+00  0.99999998245E-14  0.12500000000E+03  0.12500000000E+03 0.  0.
        -13    1    3    3    0    0  0.39969639552E+02  0.19031914608E+02 -0.16226117821E+02  0.47149590911E+02  0.10566000000E+00 0. -1.
         23    2    1    0    0    0  0.14418160934E+01 -0.87616010093E+01 -0.27606735721E+02  0.96000407881E+02  0.91515583210E+02 0.  0.
         13    1    3    3    0    0 -0.38527823458E+02 -0.27793515617E+02 -0.11380617900E+02  0.48850816970E+02  0.10566000000E+00 0.  1.
         22    1    1    0    0    0 -0.14418160934E+01  0.87616010093E+01  0.27606735721E+02  0.28999592119E+02  0.00000000000E+00 0.  1.
</event>
<event>
 5    1  0.6835449E-004  0.9118800E+02  0.7818608E-02  0.1130116E+00
         25   -1    0    0    0    0  0.00000000000E+00  0.00000000000E+00  0.99999998245E-14  0.12500000000E+03  0.12500000000E+03 0.  0.
        -13    1    3    3    0    0 -0.46564107495E+02 -0.14086526046E+02  0.14826214410E+01  0.48670891231E+02  0.10566000000E+00 0.  1.
         23    2    1    0    0    0 -0.59428636674E+01 -0.20618633736E+02 -0.20504275693E+02  0.95320528856E+02  0.90582184860E+02 0.  0.
         13    1    3    3    0    0  0.40621243827E+02 -0.65321076898E+01 -0.21986897134E+02  0.46649637625E+02  0.10566000000E+00 0. -1.
         22    1    1    0    0    0  0.59428636674E+01  0.20618633736E+02  0.20504275693E+02  0.29679471144E+02  0.00000000000E+00 0. -1.
</event>
<event>
 5    1  0.6835449E-004  0.9118800E+02  0.7818608E-02  0.1130116E+00
         25   -1    0    0    0    0  0.00000000000E+00  0.00000000000E+00  0.99999998245E-14  0.12500000000E+03  0.12500000000E+03 0.  0.
        -13    1    3    3    0    0  0.22316813839E+02  0.16478193874E+02 -0.24882877406E+02  0.37265799405E+02  0.10566000000E+00 0.  1.
         23    2    1    0    0    0  0.27965966437E+01  0.53631032122E+01  0.28859294403E+02  0.95513686186E+02  0.90848343665E+02 0.  0.
         13    1    3    3    0    0 -0.19520217195E+02 -0.11115090662E+02  0.53742171809E+02  0.58247886782E+02  0.10566000000E+00 0. -1.
         22    1    1    0    0    0 -0.27965966437E+01 -0.53631032122E+01 -0.28859294403E+02  0.29486313814E+02  0.00000000000E+00 0. -1.
</event>
<event>
 5    1  0.6835449E-004  0.9118800E+02  0.7818608E-02  0.1130116E+00
         25   -1    0    0    0    0  0.00000000000E+00  0.00000000000E+00  0.99999998245E-14  0.12500000000E+03  0.12500000000E+03 0.  0.
        -13    1    3    3    0    0 -0.26376729547E+02 -0.42586457322E+01  0.32455622452E+02  0.42038631256E+02  0.10566000000E+00 0.  1.
         23    2    1    0    0    0 -0.20139209557E+02  0.34661094018E+01 -0.20581125093E+02  0.95996821104E+02  0.91510683945E+02 0.  0.
         13    1    3    3    0    0  0.62375199902E+01  0.77247551340E+01 -0.53036747545E+02  0.53958189848E+02  0.10566000000E+00 0. -1.
         22    1    1    0    0    0  0.20139209557E+02 -0.34661094018E+01  0.20581125093E+02  0.29003178896E+02  0.00000000000E+00 0. -1.
</event>
<event>
 5    1  0.6835449E-004  0.9118800E+02  0.7818608E-02  0.1130116E+00
         25   -1    0    0    0    0  0.00000000000E+00  0.00000000000E+00  0.99999998245E-14  0.12500000000E+03  0.12500000000E+03 0.  0.
        -13    1    3    3    0    0  0.49739594566E+02  0.15777850393E+02  0.26399691194E+02  0.58480105076E+02  0.10566000000E+00 0.  1.
         23    2    1    0    0    0  0.27366869822E+02 -0.57986512212E+01  0.41170367601E+01  0.96724216871E+02  0.92498941712E+02 0.  0.
         13    1    3    3    0    0 -0.22372724744E+02 -0.21576501614E+02 -0.22282654434E+02  0.38244111795E+02  0.10566000000E+00 0. -1.
         22    1    1    0    0    0 -0.27366869822E+02  0.57986512212E+01 -0.41170367601E+01  0.28275783129E+02  0.00000000000E+00 0.  1.
</event>
<event>
 5    1  0.6835449E-004  0.9118800E+02  0.7818608E-02  0.1130116E+00
         25   -1    0    0    0    0  0.00000000000E+00  0.00000000000E+00  0.99999998245E-14  0.12500000000E+03  0.12500000000E+03 0.  0.
        -13    1    3    3    0    0  0.42153741284E+02 -0.13273543484E+02 -0.33967657555E+02  0.55739911954E+02  0.10566000000E+00 0.  1.
         23    2    1    0    0    0  0.22599230284E+02 -0.14668345938E+02  0.33068856491E+01  0.97855551678E+02  0.94015360019E+02 0.  0.
         13    1    3    3    0    0 -0.19554510999E+02 -0.13948024543E+01  0.37274543204E+02  0.42115639724E+02  0.10566000000E+00 0. -1.
         22    1    1    0    0    0 -0.22599230284E+02  0.14668345938E+02 -0.33068856491E+01  0.27144448322E+02  0.00000000000E+00 0.  1.
</event>
<event>
 5    1  0.6835449E-004  0.9118800E+02  0.7818608E-02  0.1130116E+00
         25   -1    0    0    0    0  0.00000000000E+00  0.00000000000E+00  0.99999998245E-14  0.12500000000E+03  0.12500000000E+03 0.  0.
        -13    1    3    3    0    0 -0.49679548332E+02  0.26861377486E+02 -0.16105555488E+02  0.58728112557E+02  0.10566000000E+00 0. -1.
         23    2    1    0    0    0 -0.17244904264E+02  0.24074712163E+02  0.72818191272E+00  0.95377226029E+02  0.90660391061E+02 0.  0.
         13    1    3    3    0    0  0.32434644068E+02 -0.27866653225E+01  0.16833737401E+02  0.36649113472E+02  0.10566000000E+00 0.  1.
         22    1    1    0    0    0  0.17244904264E+02 -0.24074712163E+02 -0.72818191272E+00  0.29622773971E+02  0.00000000000E+00 0. -1.
</event>
<event>
 5    1  0.6835449E-004  0.9118800E+02  0.7818608E-02  0.1130116E+00
         25   -1    0    0    0    0  0.00000000000E+00  0.00000000000E+00  0.99999998245E-14  0.12500000000E+03  0.12500000000E+03 0.  0.
        -13    1    3    3    0    0  0.39968172114E+02  0.19921819758E+01 -0.10367156576E+02  0.41338996973E+02  0.10566000000E+00 0.  1.
         23    2    1    0    0    0 -0.13394039863E+02 -0.74777386961E+01 -0.23343850603E+02  0.97067004442E+02  0.92961019307E+02 0.  0.
         13    1    3    3    0    0 -0.53362211977E+02 -0.94699206718E+01 -0.12976694027E+02  0.55728007470E+02  0.10566000000E+00 0. -1.
         22    1    1    0    0    0  0.13394039863E+02  0.74777386961E+01  0.23343850603E+02  0.27932995558E+02  0.00000000000E+00 0. -1.
</event>
<event>
 5    1  0.6835449E-004  0.9118800E+02  0.7818608E-02  0.1130116E+00
         25   -1    0    0    0    0  0.00000000000E+00  0.00000000000E+00  0.99999998245E-14  0.12500000000E+03  0.12500000000E+03 0.  0.
        -13    1    3    3    0    0  0.56348945108E+01  0.33581740914E+02  0.25073035904E+02  0.42286565862E+02  0.10566000000E+00 0. -1.
         23    2    1    0    0    0 -0.13403502375E+02 -0.19452389193E+01 -0.18777568301E+02  0.10184757245E+03  0.99181112675E+02 0.  0.
         13    1    3    3    0    0 -0.19038396886E+02 -0.35526979833E+02 -0.43850604205E+02  0.59561006583E+02  0.10566000000E+00 0.  1.
         22    1    1    0    0    0  0.13403502375E+02  0.19452389193E+01  0.18777568301E+02  0.23152427555E+02  0.00000000000E+00 0.  1.
</event>
<event>
 5    1  0.6835449E-004  0.9118800E+02  0.7818608E-02  0.1130116E+00
         25   -1    0    0    0    0  0.00000000000E+00  0.00000000000E+00  0.99999998245E-14  0.12500000000E+03  0.12500000000E+03 0.  0.
        -13    1    3    3    0    0  0.33311723764E+00 -0.10858423622E+02  0.45581243260E+02  0.46858054076E+02  0.10566000000E+00 0. -1.
         23    2    1    0    0    0  0.27550175367E+02 -0.78523790920E+01  0.48396188167E+01  0.95946705343E+02  0.91442202159E+02 0.  0.
         13    1    3    3    0    0  0.27217058129E+02  0.30060445296E+01 -0.40741624443E+02  0.49088651267E+02  0.10566000000E+00 0.  1.
         22    1    1    0    0    0 -0.27550175367E+02  0.78523790920E+01 -0.48396188167E+01  0.29053294657E+02  0.00000000000E+00 0. -1.
</event>
<event>
 5    1  0.6835449E-004  0.9118800E+02  0.7818608E-02  0.1130116E+00
         25   -1    0    0    0    0  0.00000000000E+00  0.00000000000E+00  0.99999998245E-14  0.12500000000E+03  0.12500000000E+03 0.  0.
        -13    1    3    3    0    0 -0.13615746611E+02 -0.46208832863E+01 -0.54828249574E+02  0.56682353810E+02  0.10566000000E+00 0. -1.
         23    2    1    0    0    0 -0.23320976311E+02 -0.40107506589E+01 -0.16684942346E+02  0.96045874939E+02  0.91577665043E+02 0.  0.
         13    1    3    3    0    0 -0.97052297003E+01  0.61013262746E+00  0.38143307228E+02  0.39363521129E+02  0.10566000000E+00 0.  1.
         22    1    1    0    0    0  0.23320976311E+02  0.40107506589E+01  0.16684942346E+02  0.28954125061E+02  0.00000000000E+00 0. -1.
</event>
<event>
 5    1  0.6835449E-004  0.9118800E+02  0.7818608E-02  0.1130116E+00
         25   -1    0    0    0    0  0.00000000000E+00  0.00000000000E+00  0.99999998245E-14  0.12500000000E+03  0.12500000000E+03 0.  0.
        -13    1    3    3    0    0 -0.13977120288E+02 -0.22191529523E+02 -0.11352515074E+02  0.28578219620E+02  0.10566000000E+00 0.  1.
         23    2    1    0    0    0 -0.91158011782E+01  0.23719063460E+02 -0.36017398589E+02  0.80921152423E+02  0.67862273067E+02 0.  0.
         13    1    3    3    0    0  0.48613191103E+01  0.45910592983E+02 -0.24664883515E+02  0.52342932803E+02  0.10566000000E+00 0. -1.
         22    1    1    0    0    0  0.91158011782E+01 -0.23719063460E+02  0.36017398589E+02  0.44078847577E+02  0.00000000000E+00 0. -1.
</event>
<event>
 5    1  0.6835449E-004  0.9118800E+02  0.7818608E-02  0.1130116E+00
         25   -1    0    0    0    0  0.00000000000E+00  0.00000000000E+00  0.99999998245E-14  0.12500000000E+03  0.12500000000E+03 0.  0.
        -13    1    3    3    0    0  0.12585426554E+02  0.45080631967E+02 -0.56849911641E+00  0.46808019563E+02  0.10566000000E+00 0. -1.
         23    2    1    0    0    0  0.66454720867E-01  0.69033077965E+01  0.28035045848E+02  0.96127454729E+02  0.91688950709E+02 0.  0.
         13    1    3    3    0    0 -0.12518971833E+02 -0.38177324170E+02  0.28603544964E+02  0.49319435166E+02  0.10566000000E+00 0.  1.
         22    1    1    0    0    0 -0.66454720867E-01 -0.69033077965E+01 -0.28035045848E+02  0.28872545271E+02  0.00000000000E+00 0.  1.
</event>
<event>
 5    1  0.6835449E-004  0.9118800E+02  0.7818608E-02  0.1130116E+00
         25   -1    0    0    0    0  0.00000000000E+00  0.00000000000E+00  0.99999998245E-14  0.12500000000E+03  0.12500000000E+03 0.  0.
        -13    1    3    3    0    0 -0.45267985322E+02  0.34413393542E+02  0.22381880518E+02  0.61109998280E+02  0.10566000000E+00 0. -1.
         23    2    1    0    0    0 -0.15983454650E+02  0.23229170638E+02  0.74320623738E+01  0.95840083295E+02  0.91296335216E+02 0.  0.
         13    1    3    3    0    0  0.29284530672E+02 -0.11184222903E+02 -0.14949818144E+02  0.34730085016E+02  0.10566000000E+00 0.  1.
         22    1    1    0    0    0  0.15983454650E+02 -0.23229170638E+02 -0.74320623738E+01  0.29159916705E+02  0.00000000000E+00 0. -1.
</event>
<event>
 5    1  0.6835449E-004  0.9118800E+02  0.7818608E-02  0.1130116E+00
         25   -1    0    0    0    0  0.00000000000E+00  0.00000000000E+00  0.99999998245E-14  0.12500000000E+03  0.12500000000E+03 0.  0.
        -13    1    3    3    0    0 -0.10906505537E+02  0.48403831288E+01 -0.43624622793E+02  0.45227204753E+02  0.10566000000E+00 0. -1.
         23    2    1    0    0    0 -0.85101615049E+00 -0.29539759385E+02 -0.11677548791E+02  0.93224431417E+02  0.87641929773E+02 0.  0.
         13    1    3    3    0    0  0.10055489387E+02 -0.34380142514E+02  0.31947074003E+02  0.47997226664E+02  0.10566000000E+00 0.  1.
         22    1    1    0    0    0  0.85101615049E+00  0.29539759385E+02  0.11677548791E+02  0.31775568583E+02  0.00000000000E+00 0.  1.
</event>
<event>
 5    1  0.6835449E-004  0.9118800E+02  0.7818608E-02  0.1130116E+00
         25   -1    0    0    0    0  0.00000000000E+00  0.00000000000E+00  0.99999998245E-14  0.12500000000E+03  0.12500000000E+03 0.  0.
        -13    1    3    3    0    0 -0.15493088752E+01  0.38140371151E+02  0.18887687298E+02  0.42589249406E+02  0.10566000000E+00 0. -1.
         23    2    1    0    0    0  0.29935099537E+02  0.41654571868E+01 -0.44399887037E+01  0.94452091438E+02  0.89375739770E+02 0.  0.
         13    1    3    3    0    0  0.31484408412E+02 -0.33974913964E+02 -0.23327676002E+02  0.51862842031E+02  0.10566000000E+00 0.  1.
         22    1    1    0    0    0 -0.29935099537E+02 -0.41654571868E+01  0.44399887037E+01  0.30547908562E+02  0.00000000000E+00 0.  1.
</event>
<event>
 5    1  0.6835449E-004  0.9118800E+02  0.7818608E-02  0.1130116E+00
         25   -1    0    0    0    0  0.00000000000E+00  0.00000000000E+00  0.99999998245E-14  0.12500000000E+03  0.12500000000E+03 0.  0.
        -13    1    3    3    0    0  0.49112876132E+00 -0.45974202689E+02  0.24611137823E+02  0.52149667203E+02  0.10566000000E+00 0.  1.
         23    2    1    0    0    0 -0.22614102390E+02 -0.78007481720E+01  0.95108876655E+01  0.99256917762E+02  0.95860468601E+02 0.  0.
         13    1    3    3    0    0 -0.23105231151E+02  0.38173454517E+02 -0.15100250158E+02  0.47107250559E+02  0.10566000000E+00 0. -1.
         22    1    1    0    0    0  0.22614102390E+02  0.78007481720E+01 -0.95108876655E+01  0.25743082238E+02  0.00000000000E+00 0. -1.
</event>
<event>
 5    1  0.6835449E-004  0.9118800E+02  0.7818608E-02  0.1130116E+00
         25   -1    0    0    0    0  0.00000000000E+00  0.00000000000E+00  0.99999998245E-14  0.12500000000E+03  0.12500000000E+03 0.  0.
        -13    1    3    3    0    0 -0.42599235032E+02 -0.96804410546E+01 -0.84232452611E+01  0.44490088661E+02  0.10566000000E+00 0.  1.
         23    2    1    0    0    0 -0.11139609359E+02  0.24131856270E+02  0.13012739153E+02  0.95406609454E+02  0.90700895054E+02 0.  0.
         13    1    3    3    0    0  0.31459625673E+02  0.33812297325E+02  0.21435984414E+02  0.50916520793E+02  0.10566000000E+00 0. -1.
         22    1    1    0    0    0  0.11139609359E+02 -0.24131856270E+02 -0.13012739153E+02  0.29593390546E+02  0.00000000000E+00 0.  1.
</event>
<event>
 5    1  0.6835449E-004  0.9118800E+02  0.7818608E-02  0.1130116E+00
         25   -1    0    0    0    0  0.00000000000E+00  0.00000000000E+00  0.99999998245E-14  0.12500000000E+03  0.12500000000E+03 0.  0.
        -13    1    3    3    0    0  0.22999603155E+02 -0.15834648832E+02  0.29188577834E+01  0.28075767910E+02  0.10566000000E+00 0.  1.
         23    2    1    0    0    0 -0.11097030956E+02  0.26013541069E+02  0.25812317332E+02  0.86709999464E+02  0.77797814018E+02 0.  0.
         13    1    3    3    0    0 -0.34096634112E+02  0.41848189901E+02  0.22893459549E+02  0.58634231554E+02  0.10566000000E+00 0. -1.
         22    1    1    0    0    0  0.11097030956E+02 -0.26013541069E+02 -0.25812317332E+02  0.38290000536E+02  0.00000000000E+00 0. -1.
</event>
<event>
 5    1  0.6835449E-004  0.9118800E+02  0.7818608E-02  0.1130116E+00
         25   -1    0    0    0    0  0.00000000000E+00  0.00000000000E+00  0.99999998245E-14  0.12500000000E+03  0.12500000000E+03 0.  0.
        -13    1    3    3    0    0 -0.15289937731E+02 -0.32243182376E+02  0.21422644831E+01  0.35749202322E+02  0.10566000000E+00 0. -1.
         23    2    1    0    0    0  0.13767451312E+02  0.17772844938E+02  0.18525888943E+02  0.95868826080E+02  0.91335680432E+02 0.  0.
         13    1    3    3    0    0  0.29057389043E+02  0.50016027314E+02  0.16383624460E+02  0.60119623758E+02  0.10566000000E+00 0.  1.
         22    1    1    0    0    0 -0.13767451312E+02 -0.17772844938E+02 -0.18525888943E+02  0.29131173920E+02  0.00000000000E+00 0.  1.
</event>
<event>
 5    1  0.6835449E-004  0.9118800E+02  0.7818608E-02  0.1130116E+00
         25   -1    0    0    0    0  0.00000000000E+00  0.00000000000E+00  0.99999998245E-14  0.12500000000E+03  0.12500000000E+03 0.  0.
        -13    1    3    3    0    0  0.94642753664E+01 -0.43998276784E+02 -0.26539265209E+01  0.45082983022E+02  0.10566000000E+00 0.  1.
         23    2    1    0    0    0 -0.19854716350E+02 -0.57690452732E+01 -0.19947380771E+02  0.96270404731E+02  0.91883628480E+02 0.  0.
         13    1    3    3    0    0 -0.29318991717E+02  0.38229231511E+02 -0.17293454251E+02  0.51187421708E+02  0.10566000000E+00 0. -1.
         22    1    1    0    0    0  0.19854716350E+02  0.57690452732E+01  0.19947380771E+02  0.28729595269E+02  0.00000000000E+00 0. -1.
</event>
<event>
 5    1  0.6835449E-004  0.9118800E+02  0.7818608E-02  0.1130116E+00
         25   -1    0    0    0    0  0.00000000000E+00  0.00000000000E+00  0.99999998245E-14  0.12500000000E+03  0.12500000000E+03 0.  0.
        -13    1    3    3    0    0  0.46651802708E+02 -0.34276755750E+02  0.13309177473E+02  0.59400606476E+02  0.10566000000E+00 0. -1.
         23    2    1    0    0    0  0.25621444709E+02 -0.13960711215E+02 -0.69894825226E+01  0.94996454334E+02  0.90133864799E+02 0.  0.
         13    1    3    3    0    0 -0.21030357999E+02  0.20316044535E+02 -0.20298659995E+02  0.35595847858E+02  0.10566000000E+00 0.  1.
         22    1    1    0    0    0 -0.25621444709E+02  0.13960711215E+02  0.69894825226E+01  0.30003545666E+02  0.00000000000E+00 0. -1.
</event>
<event>
 5    1  0.6835449E-004  0.9118800E+02  0.7818608E-02  0.1130116E+00
         25   -1    0    0    0    0  0.00000000000E+00  0.00000000000E+00  0.99999998245E-14  0.12500000000E+03  0.12500000000E+03 0.  0.
        -13    1    3    3    0    0  0.59224701201E+02 -0.14589865373E+02 -0.85364044947E+01  0.61589859309E+02  0.10566000000E+00 0. -1.
         23    2    1    0    0    0  0.24772212177E+02 -0.13694812802E+02 -0.24378663196E+01  0.96589551464E+02  0.92316779980E+02 0.  0.
         13    1    3    3    0    0 -0.34452489024E+02  0.89505257041E+00  0.60985381750E+01  0.34999692155E+02  0.10566000000E+00 0.  1.
         22    1    1    0    0    0 -0.24772212177E+02  0.13694812802E+02  0.24378663196E+01  0.28410448536E+02  0.00000000000E+00 0. -1.
</event>
<event>
 5    1  0.6835449E-004  0.9118800E+02  0.7818608E-02  0.1130116E+00
         25   -1    0    0    0    0  0.00000000000E+00  0.00000000000E+00  0.99999998245E-14  0.12500000000E+03  0.12500000000E+03 0.  0.
        -13    1    3    3    0    0  0.22129907515E+02 -0.21775861970E+02  0.30856730247E+02  0.43772936122E+02  0.10566000000E+00 0.  1.
         23    2    1    0    0    0  0.25621777563E+02  0.85821494906E+01 -0.11192108735E+02  0.95752913422E+02  0.91176906920E+02 0.  0.
         13    1    3    3    0    0  0.34918700481E+01  0.30358011461E+02 -0.42048838983E+02  0.51979977300E+02  0.10566000000E+00 0. -1.
         22    1    1    0    0    0 -0.25621777563E+02 -0.85821494906E+01  0.11192108735E+02  0.29247086578E+02  0.00000000000E+00 0.  1.
</event>
<event>
 5    1  0.6835449E-004  0.9118800E+02  0.7818608E-02  0.1130116E+00
         25   -1    0    0    0    0  0.00000000000E+00  0.00000000000E+00  0.99999998245E-14  0.12500000000E+03  0.12500000000E+03 0.  0.
        -13    1    3    3    0    0 -0.47147504486E+02  0.91871741336E+01  0.19475636007E+02  0.51832450354E+02  0.10566000000E+00 0.  1.
         23    2    1    0    0    0 -0.29864498035E+02  0.59466266103E+01 -0.15389675866E+02  0.90881196765E+02  0.84233598946E+02 0.  0.
         13    1    3    3    0    0  0.17283006451E+02 -0.32405475233E+01 -0.34865311873E+02  0.39048746411E+02  0.10566000000E+00 0. -1.
         22    1    1    0    0    0  0.29864498035E+02 -0.59466266103E+01  0.15389675866E+02  0.34118803235E+02  0.00000000000E+00 0.  1.
</event>
<event>
 5    1  0.6835449E-004  0.9118800E+02  0.7818608E-02  0.1130116E+00
         25   -1    0    0    0    0  0.00000000000E+00  0.00000000000E+00  0.99999998245E-14  0.12500000000E+03  0.12500000000E+03 0.  0.
        -13    1    3    3    0    0  0.16111879130E+02 -0.18374967092E+02 -0.24969770155E+02  0.34938984679E+02  0.10566000000E+00 0.  1.
         23    2    1    0    0    0 -0.25106024093E+02  0.18476706131E+02 -0.10725859604E+02  0.92034181651E+02  0.85927559099E+02 0.  0.
         13    1    3    3    0    0 -0.41217903223E+02  0.36851673223E+02  0.14243910552E+02  0.57095196972E+02  0.10566000000E+00 0. -1.
         22    1    1    0    0    0  0.25106024093E+02 -0.18476706131E+02  0.10725859604E+02  0.32965818349E+02  0.00000000000E+00 0. -1.
</event>
<event>
 5    1  0.6835449E-004  0.9118800E+02  0.7818608E-02  0.1130116E+00
         25   -1    0    0    0    0  0.00000000000E+00  0.00000000000E+00  0.99999998245E-14  0.12500000000E+03  0.12500000000E+03 0.  0.
        -13    1    3    3    0    0 -0.36875969149E+02 -0.40631895794E+02 -0.15702689736E+02  0.57073406114E+02  0.10566000000E+00 0. -1.
         23    2    1    0    0    0 -0.28221382207E+02 -0.43441451304E+01 -0.40260340626E+01  0.96163790803E+02  0.91738474484E+02 0.  0.
         13    1    3    3    0    0  0.86545869422E+01  0.36287750663E+02  0.11676655673E+02  0.39090384688E+02  0.10566000000E+00 0.  1.
         22    1    1    0    0    0  0.28221382207E+02  0.43441451304E+01  0.40260340626E+01  0.28836209197E+02  0.00000000000E+00 0. -1.
</event>
<event>
 5    1  0.6835449E-004  0.9118800E+02  0.7818608E-02  0.1130116E+00
         25   -1    0    0    0    0  0.00000000000E+00  0.00000000000E+00  0.99999998245E-14  0.12500000000E+03  0.12500000000E+03 0.  0.
        -13    1    3    3    0    0  0.37482781705E+02  0.14502194032E+02  0.49887001936E+01  0.40499022825E+02  0.10566000000E+00 0.  1.
         23    2    1    0    0    0 -0.30556066130E+01 -0.14808546593E+02 -0.22737625732E+02  0.97693784446E+02  0.93800032577E+02 0.  0.
         13    1    3    3    0    0 -0.40538388318E+02 -0.29310740626E+02 -0.27726325925E+02  0.57194761621E+02  0.10566000000E+00 0. -1.
         22    1    1    0    0    0  0.30556066130E+01  0.14808546593E+02  0.22737625732E+02  0.27306215554E+02  0.00000000000E+00 0. -1.
</event>
<event>
 5    1  0.6835449E-004  0.9118800E+02  0.7818608E-02  0.1130116E+00
         25   -1    0    0    0    0  0.00000000000E+00  0.00000000000E+00  0.99999998245E-14  0.12500000000E+03  0.12500000000E+03 0.  0.
        -13    1    3    3    0    0  0.24990116171E+01 -0.48286983564E+02 -0.17105127952E+02  0.51288150747E+02  0.10566000000E+00 0. -1.
         23    2    1    0    0    0 -0.22402382101E+01 -0.22475869255E+02  0.18697070947E+02  0.95678270378E+02  0.91074516713E+02 0.  0.
         13    1    3    3    0    0 -0.47392498272E+01  0.25811114309E+02  0.35802198899E+02  0.44390119631E+02  0.10566000000E+00 0.  1.
         22    1    1    0    0    0  0.22402382101E+01  0.22475869255E+02 -0.18697070947E+02  0.29321729622E+02  0.00000000000E+00 0. -1.
</event>
<event>
 5    1  0.6835449E-004  0.9118800E+02  0.7818608E-02  0.1130116E+00
         25   -1    0    0    0    0  0.00000000000E+00  0.00000000000E+00  0.99999998245E-14  0.12500000000E+03  0.12500000000E+03 0.  0.
        -13    1    3    3    0    0  0.23329938817E+02 -0.54589912054E+02 -0.72581596101E+01  0.59808332097E+02  0.10566000000E+00 0.  1.
         23    2    1    0    0    0 -0.59989608560E+00 -0.24946582000E+02 -0.10251156424E+02  0.98022638438E+02  0.94237251709E+02 0.  0.
         13    1    3    3    0    0 -0.23929834902E+02  0.29643330054E+02 -0.29929968140E+01  0.38214306341E+02  0.10566000000E+00 0. -1.
         22    1    1    0    0    0  0.59989608560E+00  0.24946582000E+02  0.10251156424E+02  0.26977361562E+02  0.00000000000E+00 0.  1.
</event>
<event>
 5    1  0.6835449E-004  0.9118800E+02  0.7818608E-02  0.1130116E+00
         25   -1    0    0    0    0  0.00000000000E+00  0.00000000000E+00  0.99999998245E-14  0.12500000000E+03  0.12500000000E+03 0.  0.
        -13    1    3    3    0    0  0.25287529353E+02 -0.45661021508E+02  0.52163241468E+01  0.52455783547E+02  0.10566000000E+00 0.  1.
         23    2    1    0    0    0 -0.70558138570E+01 -0.21497549316E+02  0.19347073066E+02  0.95230244005E+02  0.90457509369E+02 0.  0.
         13    1    3    3    0    0 -0.32343343210E+02  0.24163472192E+02  0.14130748919E+02  0.42774460457E+02  0.10566000000E+00 0. -1.
         22    1    1    0    0    0  0.70558138570E+01  0.21497549316E+02 -0.19347073066E+02  0.29769755995E+02  0.00000000000E+00 0.  1.
</event>
<event>
 5    1  0.6835449E-004  0.9118800E+02  0.7818608E-02  0.1130116E+00
         25   -1    0    0    0    0  0.00000000000E+00  0.00000000000E+00  0.99999998245E-14  0.12500000000E+03  0.12500000000E+03 0.  0.
        -13    1    3    3    0    0 -0.21938636434E+02 -0.12824647546E+02 -0.24090880115E+02  0.35016524984E+02  0.10566000000E+00 0.  1.
         23    2    1    0    0    0 -0.40015106023E+01 -0.94438256596E+01  0.30628353828E+02  0.92699938260E+02  0.86890647166E+02 0.  0.
         13    1    3    3    0    0  0.17937125831E+02  0.33808218865E+01  0.54719233943E+02  0.57683413275E+02  0.10566000000E+00 0. -1.
         22    1    1    0    0    0  0.40015106023E+01  0.94438256596E+01 -0.30628353828E+02  0.32300061740E+02  0.00000000000E+00 0. -1.
</event>
<event>
 5    1  0.6835449E-004  0.9118800E+02  0.7818608E-02  0.1130116E+00
         25   -1    0    0    0    0  0.00000000000E+00  0.00000000000E+00  0.99999998245E-14  0.12500000000E+03  0.12500000000E+03 0.  0.
        -13    1    3    3    0    0 -0.80762583940E+00 -0.19592206587E+02  0.29593503676E+02  0.35500611858E+02  0.10566000000E+00 0. -1.
         23    2    1    0    0    0 -0.27787061687E+01  0.28765081977E+02 -0.58831653355E+01  0.95508259063E+02  0.90840876074E+02 0.  0.
         13    1    3    3    0    0 -0.19710803293E+01  0.48357288564E+02 -0.35476669012E+02  0.60007647205E+02  0.10566000000E+00 0.  1.
         22    1    1    0    0    0  0.27787061687E+01 -0.28765081977E+02  0.58831653355E+01  0.29491740937E+02  0.00000000000E+00 0.  1.
</event>
<event>
 5    1  0.6835449E-004  0.9118800E+02  0.7818608E-02  0.1130116E+00
         25   -1    0    0    0    0  0.00000000000E+00  0.00000000000E+00  0.99999998245E-14  0.12500000000E+03  0.12500000000E+03 0.  0.
        -13    1    3    3    0    0  0.17456938237E+02  0.23601754191E+02  0.17264926011E+02  0.34056957111E+02  0.10566000000E+00 0.  1.
         23    2    1    0    0    0 -0.49676068929E+01 -0.89308441098E+01 -0.28620118349E+02  0.94610063030E+02  0.89596404824E+02 0.  0.
         13    1    3    3    0    0 -0.22424545130E+02 -0.32532598300E+02 -0.45885044360E+02  0.60553105919E+02  0.10566000000E+00 0. -1.
         22    1    1    0    0    0  0.49676068929E+01  0.89308441098E+01  0.28620118349E+02  0.30389936970E+02  0.00000000000E+00 0. -1.
</event>
<event>
 5    1  0.6835449E-004  0.9118800E+02  0.7818608E-02  0.1130116E+00
         25   -1    0    0    0    0  0.00000000000E+00  0.00000000000E+00  0.99999998245E-14  0.12500000000E+03  0.12500000000E+03 0.  0.
        -13    1    3    3    0    0 -0.23567993706E+02  0.15628699812E+02 -0.34693849401E+02  0.44759143596E+02  0.10566000000E+00 0.  1.
         23    2    1    0    0    0  0.33505580357E+01 -0.23649352523E+02 -0.17517371668E+02  0.95379459423E+02  0.90663470349E+02 0.  0.
         13    1    3    3    0    0  0.26918551741E+02 -0.39278052335E+02  0.17176477733E+02  0.50620315827E+02  0.10566000000E+00 0. -1.
         22    1    1    0    0    0 -0.33505580357E+01  0.23649352523E+02  0.17517371668E+02  0.29620540577E+02  0.00000000000E+00 0.  1.
</event>
<event>
 5    1  0.6835449E-004  0.9118800E+02  0.7818608E-02  0.1130116E+00
         25   -1    0    0    0    0  0.00000000000E+00  0.00000000000E+00  0.99999998245E-14  0.12500000000E+03  0.12500000000E+03 0.  0.
        -13    1    3    3    0    0  0.58815534387E+02  0.91141391379E+00  0.18771455454E+02  0.61745254590E+02  0.10566000000E+00 0.  1.
         23    2    1    0    0    0  0.27154517943E+02 -0.63266895520E+01  0.74490634631E+01  0.96140280807E+02  0.91706434898E+02 0.  0.
         13    1    3    3    0    0 -0.31661016443E+02 -0.72381034658E+01 -0.11322391991E+02  0.34395026217E+02  0.10566000000E+00 0. -1.
         22    1    1    0    0    0 -0.27154517943E+02  0.63266895520E+01 -0.74490634631E+01  0.28859719193E+02  0.00000000000E+00 0.  1.
</event>
<event>
 5    1  0.6835449E-004  0.9118800E+02  0.7818608E-02  0.1130116E+00
         25   -1    0    0    0    0  0.00000000000E+00  0.00000000000E+00  0.99999998245E-14  0.12500000000E+03  0.12500000000E+03 0.  0.
        -13    1    3    3    0    0  0.21559754110E+02 -0.45826517676E+02  0.27346930276E+00  0.50645618459E+02  0.10566000000E+00 0.  1.
         23    2    1    0    0    0 -0.16982089307E+02 -0.23324922593E+02 -0.54400730782E+01  0.95639520333E+02  0.91021316642E+02 0.  0.
         13    1    3    3    0    0 -0.38541843417E+02  0.22501595084E+02 -0.57135423810E+01  0.44993901874E+02  0.10566000000E+00 0. -1.
         22    1    1    0    0    0  0.16982089307E+02  0.23324922593E+02  0.54400730782E+01  0.29360479667E+02  0.00000000000E+00 0.  1.
</event>
<event>
 5    1  0.6835449E-004  0.9118800E+02  0.7818608E-02  0.1130116E+00
         25   -1    0    0    0    0  0.00000000000E+00  0.00000000000E+00  0.99999998245E-14  0.12500000000E+03  0.12500000000E+03 0.  0.
        -13    1    3    3    0    0  0.14153377069E+02  0.74942578649E+01  0.45259790757E+02  0.48009809485E+02  0.10566000000E+00 0. -1.
         23    2    1    0    0    0 -0.23211812012E+02  0.80740793541E+01  0.14097607354E+02  0.96667659690E+02  0.92422480613E+02 0.  0.
         13    1    3    3    0    0 -0.37365189082E+02  0.57982148917E+00 -0.31162183403E+02  0.48657850205E+02  0.10566000000E+00 0.  1.
         22    1    1    0    0    0  0.23211812012E+02 -0.80740793541E+01 -0.14097607354E+02  0.28332340310E+02  0.00000000000E+00 0.  1.
</event>
<event>
 5    1  0.6835449E-004  0.9118800E+02  0.7818608E-02  0.1130116E+00
         25   -1    0    0    0    0  0.00000000000E+00  0.00000000000E+00  0.99999998245E-14  0.12500000000E+03  0.12500000000E+03 0.  0.
        -13    1    3    3    0    0 -0.24110858002E+02 -0.26201077378E+02 -0.35139202928E+02  0.50026039978E+02  0.10566000000E+00 0. -1.
         23    2    1    0    0    0  0.88319241829E+01  0.88300934092E+01 -0.21710767947E+02  0.99953425798E+02  0.96764437938E+02 0.  0.
         13    1    3    3    0    0  0.32942782185E+02  0.35031170787E+02  0.13428434981E+02  0.49927385821E+02  0.10566000000E+00 0.  1.
         22    1    1    0    0    0 -0.88319241829E+01 -0.88300934092E+01  0.21710767947E+02  0.25046574202E+02  0.00000000000E+00 0. -1.
</event>
<event>
 5    1  0.6835449E-004  0.9118800E+02  0.7818608E-02  0.1130116E+00
         25   -1    0    0    0    0  0.00000000000E+00  0.00000000000E+00  0.99999998245E-14  0.12500000000E+03  0.12500000000E+03 0.  0.
        -13    1    3    3    0    0 -0.12356960828E+02  0.32694482312E+02  0.89802879253E+01  0.36087122216E+02  0.10566000000E+00 0.  1.
         23    2    1    0    0    0 -0.25048766902E+00 -0.26830891411E+02  0.85697937384E+01  0.96832628047E+02  0.92645329142E+02 0.  0.
         13    1    3    3    0    0  0.12106473159E+02 -0.59525373723E+02 -0.41049418688E+00  0.60745505832E+02  0.10566000000E+00 0. -1.
         22    1    1    0    0    0  0.25048766902E+00  0.26830891411E+02 -0.85697937384E+01  0.28167371953E+02  0.00000000000E+00 0. -1.
</event>
<event>
 5    1  0.6835449E-004  0.9118800E+02  0.7818608E-02  0.1130116E+00
         25   -1    0    0    0    0  0.00000000000E+00  0.00000000000E+00  0.99999998245E-14  0.12500000000E+03  0.12500000000E+03 0.  0.
        -13    1    3    3    0    0 -0.12287710286E+02 -0.27722195143E+02 -0.15275176994E+02  0.33953646694E+02  0.10566000000E+00 0. -1.
         23    2    1    0    0    0  0.16161925734E+01  0.22481097878E+02  0.18332268524E+02  0.95946877802E+02  0.91442437908E+02 0.  0.
         13    1    3    3    0    0  0.13903902859E+02  0.50203293021E+02  0.33607445517E+02  0.61993231107E+02  0.10566000000E+00 0.  1.
         22    1    1    0    0    0 -0.16161925734E+01 -0.22481097878E+02 -0.18332268524E+02  0.29053122198E+02  0.00000000000E+00 0.  1.
</event>
<event>
 5    1  0.6835449E-004  0.9118800E+02  0.7818608E-02  0.1130116E+00
         25   -1    0    0    0    0  0.00000000000E+00  0.00000000000E+00  0.99999998245E-14  0.12500000000E+03  0.12500000000E+03 0.  0.
        -13    1    3    3    0    0  0.14395034230E+02 -0.25322598467E+02  0.54319286189E+02  0.61636409854E+02  0.10566000000E+00 0. -1.
         23    2    1    0    0    0  0.13552339472E+02 -0.92829021653E+01  0.24576418382E+02  0.95439240229E+02  0.90745854215E+02 0.  0.
         13    1    3    3    0    0 -0.84269475711E+00  0.16039696302E+02 -0.29742867807E+02  0.33802830375E+02  0.10566000000E+00 0.  1.
         22    1    1    0    0    0 -0.13552339472E+02  0.92829021653E+01 -0.24576418382E+02  0.29560759771E+02  0.00000000000E+00 0. -1.
</event>
<event>
 5    1  0.6835449E-004  0.9118800E+02  0.7818608E-02  0.1130116E+00
         25   -1    0    0    0    0  0.00000000000E+00  0.00000000000E+00  0.99999998245E-14  0.12500000000E+03  0.12500000000E+03 0.  0.
        -13    1    3    3    0    0  0.15136515535E+02  0.15354466352E+02  0.33549944287E+02  0.39880868411E+02  0.10566000000E+00 0.  1.
         23    2    1    0    0    0 -0.28174542009E+02 -0.63260706553E+01  0.63365109549E+01  0.95436925762E+02  0.90742666042E+02 0.  0.
         13    1    3    3    0    0 -0.43311057544E+02 -0.21680537007E+02 -0.27213433333E+02  0.55556057350E+02  0.10566000000E+00 0. -1.
         22    1    1    0    0    0  0.28174542009E+02  0.63260706553E+01 -0.63365109549E+01  0.29563074238E+02  0.00000000000E+00 0. -1.
</event>
<event>
 5    1  0.6835449E-004  0.9118800E+02  0.7818608E-02  0.1130116E+00
         25   -1    0    0    0    0  0.00000000000E+00  0.00000000000E+00  0.99999998245E-14  0.12500000000E+03  0.12500000000E+03 0.  0.
        -13    1    3    3    0    0  0.12529445126E+02 -0.33536295695E+02 -0.38737149848E+01  0.36009539791E+02  0.10566000000E+00 0.  1.
         23    2    1    0    0    0 -0.21214216643E+02  0.94793004156E+01  0.18715696981E+02  0.95164158506E+02  0.90366142036E+02 0.  0.
         13    1    3    3    0    0 -0.33743661769E+02  0.43015596111E+02  0.22589411966E+02  0.59154618715E+02  0.10566000000E+00 0. -1.
         22    1    1    0    0    0  0.21214216643E+02 -0.94793004156E+01 -0.18715696981E+02  0.29835841494E+02  0.00000000000E+00 0. -1.
</event>
<event>
 5    1  0.6835449E-004  0.9118800E+02  0.7818608E-02  0.1130116E+00
         25   -1    0    0    0    0  0.00000000000E+00  0.00000000000E+00  0.99999998245E-14  0.12500000000E+03  0.12500000000E+03 0.  0.
        -13    1    3    3    0    0  0.20235592549E+02  0.53399455798E+02  0.18365061754E+02  0.59985562785E+02  0.10566000000E+00 0.  1.
         23    2    1    0    0    0 -0.26405291196E+01  0.28232818461E+02  0.84832679889E+01  0.95402191499E+02  0.90694806217E+02 0.  0.
         13    1    3    3    0    0 -0.22876121669E+02 -0.25166637337E+02 -0.98817937650E+01  0.35416628715E+02  0.10566000000E+00 0. -1.
         22    1    1    0    0    0  0.26405291196E+01 -0.28232818461E+02 -0.84832679889E+01  0.29597808501E+02  0.00000000000E+00 0.  1.
</event>
<event>
 5    1  0.6835449E-004  0.9118800E+02  0.7818608E-02  0.1130116E+00
         25   -1    0    0    0    0  0.00000000000E+00  0.00000000000E+00  0.99999998245E-14  0.12500000000E+03  0.12500000000E+03 0.  0.
        -13    1    3    3    0    0 -0.19459264434E+02 -0.43782012265E+02  0.38628106623E+00  0.47913337886E+02  0.10566000000E+00 0. -1.
         23    2    1    0    0    0 -0.13466558759E+02 -0.91302102333E+01 -0.27670560455E+02  0.92900640823E+02  0.87178897708E+02 0.  0.
         13    1    3    3    0    0  0.59927056747E+01  0.34651802032E+02 -0.28056841521E+02  0.44987302937E+02  0.10566000000E+00 0.  1.
         22    1    1    0    0    0  0.13466558759E+02  0.91302102333E+01  0.27670560455E+02  0.32099359177E+02  0.00000000000E+00 0. -1.
</event>
<event>
 5    1  0.6835449E-004  0.9118800E+02  0.7818608E-02  0.1130116E+00
         25   -1    0    0    0    0  0.00000000000E+00  0.00000000000E+00  0.99999998245E-14  0.12500000000E+03  0.12500000000E+03 0.  0.
        -13    1    3    3    0    0 -0.35572320329E+02  0.23327794564E+02  0.12898664490E+02  0.44451801791E+02  0.10566000000E+00 0. -1.
         23    2    1    0    0    0  0.15113511066E+02  0.24258956018E+02  0.76171805187E+01  0.95420672711E+02  0.90720274348E+02 0.  0.
         13    1    3    3    0    0  0.50685831395E+02  0.93116145370E+00 -0.52814839716E+01  0.50968870920E+02  0.10566000000E+00 0.  1.
         22    1    1    0    0    0 -0.15113511066E+02 -0.24258956018E+02 -0.76171805187E+01  0.29579327289E+02  0.00000000000E+00 0.  1.
</event>
<event>
 4    1  0.6835449E-004  0.9118800E+02  0.7818608E-02  0.1130116E+00
         25   -1    0    0    0    0  0.00000000000E+00  0.00000000000E+00  0.99999998245E-14  0.12500000000E+03  0.12500000000E+03 0.  0.
        -13    1    1    0    0    0  0.26660650898E+02 -0.11963907927E+02  0.20651057431E+02  0.35782715607E+02  0.10566000000E+00 0. -1.
         13    1    1    0    0    0 -0.13927272840E+01  0.26030161519E+01  0.30904054578E+02  0.31044921256E+02  0.10566000000E+00 0.  1.
         22    1    1    0    0    0 -0.25267923614E+02  0.93608917751E+01 -0.51555112010E+02  0.58172363137E+02  0.00000000000E+00 0.  1.
</event>
<event>
 5    1  0.6835449E-004  0.9118800E+02  0.7818608E-02  0.1130116E+00
         25   -1    0    0    0    0  0.00000000000E+00  0.00000000000E+00  0.99999998245E-14  0.12500000000E+03  0.12500000000E+03 0.  0.
        -13    1    3    3    0    0  0.16957852725E+02 -0.13684336705E+02  0.32475480159E+02  0.39108794608E+02  0.10566000000E+00 0. -1.
         23    2    1    0    0    0 -0.21160256723E+02  0.19172758897E+02  0.66144662633E+01  0.95689552848E+02  0.91090000615E+02 0.  0.
         13    1    3    3    0    0 -0.38118109448E+02  0.32857095602E+02 -0.25861013895E+02  0.56580758240E+02  0.10566000000E+00 0.  1.
         22    1    1    0    0    0  0.21160256723E+02 -0.19172758897E+02 -0.66144662633E+01  0.29310447152E+02  0.00000000000E+00 0.  1.
</event>
<event>
 5    1  0.6835449E-004  0.9118800E+02  0.7818608E-02  0.1130116E+00
         25   -1    0    0    0    0  0.00000000000E+00  0.00000000000E+00  0.99999998245E-14  0.12500000000E+03  0.12500000000E+03 0.  0.
        -13    1    3    3    0    0  0.39753314915E+02  0.71252616750E+01 -0.32192593911E+02  0.51647552385E+02  0.10566000000E+00 0. -1.
         23    2    1    0    0    0  0.16638130299E+02 -0.22357645236E+02 -0.89815056613E+01  0.95719304580E+02  0.91130818854E+02 0.  0.
         13    1    3    3    0    0 -0.23115184616E+02 -0.29482906911E+02  0.23211088249E+02  0.44071752195E+02  0.10566000000E+00 0.  1.
         22    1    1    0    0    0 -0.16638130299E+02  0.22357645236E+02  0.89815056613E+01  0.29280695420E+02  0.00000000000E+00 0. -1.
</event>
<event>
 5    1  0.6835449E-004  0.9118800E+02  0.7818608E-02  0.1130116E+00
         25   -1    0    0    0    0  0.00000000000E+00  0.00000000000E+00  0.99999998245E-14  0.12500000000E+03  0.12500000000E+03 0.  0.
        -13    1    3    3    0    0  0.25362746346E+02  0.95379880752E+01 -0.21804384341E+02  0.34780518387E+02  0.10566000000E+00 0. -1.
         23    2    1    0    0    0 -0.26379680493E+02  0.42101124830E+01  0.10817058389E+02  0.96179497884E+02  0.91759873970E+02 0.  0.
         13    1    3    3    0    0 -0.51742426839E+02 -0.53278755923E+01  0.32621442730E+02  0.61398979497E+02  0.10566000000E+00 0.  1.
         22    1    1    0    0    0  0.26379680493E+02 -0.42101124830E+01 -0.10817058389E+02  0.28820502116E+02  0.00000000000E+00 0.  1.
</event>
<event>
 5    1  0.6835449E-004  0.9118800E+02  0.7818608E-02  0.1130116E+00
         25   -1    0    0    0    0  0.00000000000E+00  0.00000000000E+00  0.99999998245E-14  0.12500000000E+03  0.12500000000E+03 0.  0.
        -13    1    3    3    0    0  0.32980238977E+02  0.29153406787E+02 -0.18701727589E+02  0.47826593744E+02  0.10566000000E+00 0. -1.
         23    2    1    0    0    0  0.26487097762E+02 -0.55031602596E+01  0.12766234627E+02  0.95086326417E+02  0.90258415698E+02 0.  0.
         13    1    3    3    0    0 -0.64931412151E+01 -0.34656567047E+02  0.31467962216E+02  0.47259732673E+02  0.10566000000E+00 0.  1.
         22    1    1    0    0    0 -0.26487097762E+02  0.55031602596E+01 -0.12766234627E+02  0.29913673583E+02  0.00000000000E+00 0.  1.
</event>
<event>
 5    1  0.6835449E-004  0.9118800E+02  0.7818608E-02  0.1130116E+00
         25   -1    0    0    0    0  0.00000000000E+00  0.00000000000E+00  0.99999998245E-14  0.12500000000E+03  0.12500000000E+03 0.  0.
        -13    1    3    3    0    0  0.45925526446E+02  0.71136820603E+01  0.16711423336E+02  0.49386650886E+02  0.10566000000E+00 0. -1.
         23    2    1    0    0    0  0.16774317015E+02  0.11188512207E+02 -0.20106826254E+02  0.96524660165E+02  0.92228873144E+02 0.  0.
         13    1    3    3    0    0 -0.29151209431E+02  0.40748301463E+01 -0.36818249589E+02  0.47138009280E+02  0.10566000000E+00 0.  1.
         22    1    1    0    0    0 -0.16774317015E+02 -0.11188512207E+02  0.20106826254E+02  0.28475339835E+02  0.00000000000E+00 0. -1.
</event>
<event>
 5    1  0.6835449E-004  0.9118800E+02  0.7818608E-02  0.1130116E+00
         25   -1    0    0    0    0  0.00000000000E+00  0.00000000000E+00  0.99999998245E-14  0.12500000000E+03  0.12500000000E+03 0.  0.
        -13    1    3    3    0    0  0.48536866887E+02 -0.26853044340E+01 -0.24387992102E+02  0.54385877119E+02  0.10566000000E+00 0. -1.
         23    2    1    0    0    0  0.78938180557E+01 -0.85111244777E+01 -0.27084267409E+02  0.95532914218E+02  0.90874796036E+02 0.  0.
         13    1    3    3    0    0 -0.40643048832E+02 -0.58258200438E+01 -0.26962753069E+01  0.41147037100E+02  0.10566000000E+00 0.  1.
         22    1    1    0    0    0 -0.78938180557E+01  0.85111244777E+01  0.27084267409E+02  0.29467085782E+02  0.00000000000E+00 0. -1.
</event>
<event>
 5    1  0.6835449E-004  0.9118800E+02  0.7818608E-02  0.1130116E+00
         25   -1    0    0    0    0  0.00000000000E+00  0.00000000000E+00  0.99999998245E-14  0.12500000000E+03  0.12500000000E+03 0.  0.
        -13    1    3    3    0    0 -0.15957063459E+02  0.44349691766E+00  0.28740115191E+02  0.32875978297E+02  0.10566000000E+00 0.  1.
         23    2    1    0    0    0  0.51746247852E+01  0.14260739267E+02 -0.26978767864E+02  0.94048435556E+02  0.88809396400E+02 0.  0.
         13    1    3    3    0    0  0.21131688244E+02  0.13817242350E+02 -0.55718883055E+02  0.61172457259E+02  0.10566000000E+00 0. -1.
         22    1    1    0    0    0 -0.51746247852E+01 -0.14260739267E+02  0.26978767864E+02  0.30951564444E+02  0.00000000000E+00 0. -1.
</event>
<event>
 5    1  0.6835449E-004  0.9118800E+02  0.7818608E-02  0.1130116E+00
         25   -1    0    0    0    0  0.00000000000E+00  0.00000000000E+00  0.99999998245E-14  0.12500000000E+03  0.12500000000E+03 0.  0.
        -13    1    3    3    0    0  0.41949229395E+02 -0.15789351131E+02  0.29424015416E+02  0.53617397393E+02  0.10566000000E+00 0.  1.
         23    2    1    0    0    0  0.27368511602E+02  0.10647684731E+02  0.20514198545E+00  0.95632489028E+02  0.91011660006E+02 0.  0.
         13    1    3    3    0    0 -0.14580717793E+02  0.26437035862E+02 -0.29218873430E+02  0.42015091635E+02  0.10566000000E+00 0. -1.
         22    1    1    0    0    0 -0.27368511602E+02 -0.10647684731E+02 -0.20514198545E+00  0.29367510972E+02  0.00000000000E+00 0.  1.
</event>
<event>
 5    1  0.6835449E-004  0.9118800E+02  0.7818608E-02  0.1130116E+00
         25   -1    0    0    0    0  0.00000000000E+00  0.00000000000E+00  0.99999998245E-14  0.12500000000E+03  0.12500000000E+03 0.  0.
        -13    1    3    3    0    0  0.29967319274E+02 -0.22484006970E+01 -0.23463239960E+02  0.38126504215E+02  0.10566000000E+00 0.  1.
         23    2    1    0    0    0 -0.22986331874E+01  0.22624680293E+02  0.17806018794E+02  0.96117233890E+02  0.91675015530E+02 0.  0.
         13    1    3    3    0    0 -0.32265952462E+02  0.24873080990E+02  0.41269258754E+02  0.57990729675E+02  0.10566000000E+00 0. -1.
         22    1    1    0    0    0  0.22986331874E+01 -0.22624680293E+02 -0.17806018794E+02  0.28882766110E+02  0.00000000000E+00 0. -1.
</event>
<event>
 5    1  0.6835449E-004  0.9118800E+02  0.7818608E-02  0.1130116E+00
         25   -1    0    0    0    0  0.00000000000E+00  0.00000000000E+00  0.99999998245E-14  0.12500000000E+03  0.12500000000E+03 0.  0.
        -13    1    3    3    0    0  0.27555635452E+02  0.17411275070E+02  0.18478325996E+02  0.37468990384E+02  0.10566000000E+00 0.  1.
         23    2    1    0    0    0 -0.22369219003E+02  0.26387119227E+02  0.42841310602E+01  0.90142923260E+02  0.83130805452E+02 0.  0.
         13    1    3    3    0    0 -0.49924854455E+02  0.89758441567E+01 -0.14194194936E+02  0.52673932876E+02  0.10566000000E+00 0. -1.
         22    1    1    0    0    0  0.22369219003E+02 -0.26387119227E+02 -0.42841310602E+01  0.34857076740E+02  0.00000000000E+00 0. -1.
</event>
<event>
 5    1  0.6835449E-004  0.9118800E+02  0.7818608E-02  0.1130116E+00
         25   -1    0    0    0    0  0.00000000000E+00  0.00000000000E+00  0.99999998245E-14  0.12500000000E+03  0.12500000000E+03 0.  0.
        -13    1    3    3    0    0  0.11080419648E+02 -0.39981214759E+02 -0.20710680135E+02  0.46370428819E+02  0.10566000000E+00 0.  1.
         23    2    1    0    0    0  0.22466963261E+02 -0.15679948706E+02  0.17075377966E+02  0.92716974084E+02  0.86915151274E+02 0.  0.
         13    1    3    3    0    0  0.11386543613E+02  0.24301266053E+02  0.37786058101E+02  0.46346545266E+02  0.10566000000E+00 0. -1.
         22    1    1    0    0    0 -0.22466963261E+02  0.15679948706E+02 -0.17075377966E+02  0.32283025916E+02  0.00000000000E+00 0. -1.
</event>
<event>
 5    1  0.6835449E-004  0.9118800E+02  0.7818608E-02  0.1130116E+00
         25   -1    0    0    0    0  0.00000000000E+00  0.00000000000E+00  0.99999998245E-14  0.12500000000E+03  0.12500000000E+03 0.  0.
        -13    1    3    3    0    0  0.28066275003E+02 -0.17457894422E+02 -0.44669343063E+02  0.55568473471E+02  0.10566000000E+00 0. -1.
         23    2    1    0    0    0  0.16471633266E+02 -0.23481189252E+02 -0.69489660203E+01  0.95487814722E+02  0.90812739637E+02 0.  0.
         13    1    3    3    0    0 -0.11594641736E+02 -0.60232948305E+01  0.37720377043E+02  0.39919341251E+02  0.10566000000E+00 0.  1.
         22    1    1    0    0    0 -0.16471633266E+02  0.23481189252E+02  0.69489660203E+01  0.29512185278E+02  0.00000000000E+00 0.  1.
</event>
<event>
 5    1  0.6835449E-004  0.9118800E+02  0.7818608E-02  0.1130116E+00
         25   -1    0    0    0    0  0.00000000000E+00  0.00000000000E+00  0.99999998245E-14  0.12500000000E+03  0.12500000000E+03 0.  0.
        -13    1    3    3    0    0 -0.15374016670E+02 -0.32380231231E+02 -0.11376231360E+02  0.37606775548E+02  0.10566000000E+00 0. -1.
         23    2    1    0    0    0  0.25795963789E+02  0.98801090797E+01 -0.26120617244E+01  0.97253447607E+02  0.93211382898E+02 0.  0.
         13    1    3    3    0    0  0.41169980460E+02  0.42260340311E+02  0.87641696358E+01  0.59646672059E+02  0.10566000000E+00 0.  1.
         22    1    1    0    0    0 -0.25795963789E+02 -0.98801090797E+01  0.26120617244E+01  0.27746552393E+02  0.00000000000E+00 0.  1.
</event>
<event>
 5    1  0.6835449E-004  0.9118800E+02  0.7818608E-02  0.1130116E+00
         25   -1    0    0    0    0  0.00000000000E+00  0.00000000000E+00  0.99999998245E-14  0.12500000000E+03  0.12500000000E+03 0.  0.
        -13    1    3    3    0    0  0.59660961252E+02  0.49631944738E+00 -0.66604132346E+01  0.60033731343E+02  0.10566000000E+00 0. -1.
         23    2    1    0    0    0  0.24822690524E+02  0.54864278889E+01 -0.13990178313E+02  0.95982902539E+02  0.91491669756E+02 0.  0.
         13    1    3    3    0    0 -0.34838270727E+02  0.49901084415E+01 -0.73297650783E+01  0.35949171196E+02  0.10566000000E+00 0.  1.
         22    1    1    0    0    0 -0.24822690524E+02 -0.54864278889E+01  0.13990178313E+02  0.29017097461E+02  0.00000000000E+00 0. -1.
</event>
<event>
 5    1  0.6835449E-004  0.9118800E+02  0.7818608E-02  0.1130116E+00
         25   -1    0    0    0    0  0.00000000000E+00  0.00000000000E+00  0.99999998245E-14  0.12500000000E+03  0.12500000000E+03 0.  0.
        -13    1    3    3    0    0 -0.51001986041E+02  0.16217248059E+02  0.13776795140E+01  0.53536070827E+02  0.10566000000E+00 0.  1.
         23    2    1    0    0    0 -0.12079967855E+02  0.42127933409E+01  0.22272851964E+02  0.99314338908E+02  0.95935315328E+02 0.  0.
         13    1    3    3    0    0  0.38922018186E+02 -0.12004454718E+02  0.20895172450E+02  0.45778268081E+02  0.10566000000E+00 0. -1.
         22    1    1    0    0    0  0.12079967855E+02 -0.42127933409E+01 -0.22272851964E+02  0.25685661092E+02  0.00000000000E+00 0.  1.
</event>
<event>
 5    1  0.6835449E-004  0.9118800E+02  0.7818608E-02  0.1130116E+00
         25   -1    0    0    0    0  0.00000000000E+00  0.00000000000E+00  0.99999998245E-14  0.12500000000E+03  0.12500000000E+03 0.  0.
        -13    1    3    3    0    0 -0.26166948670E+02  0.27062773483E+02  0.23707776127E+02  0.44487894131E+02  0.10566000000E+00 0.  1.
         23    2    1    0    0    0  0.14314906438E+02  0.18224946681E+02 -0.11743732646E+02  0.99019613469E+02  0.95550527823E+02 0.  0.
         13    1    3    3    0    0  0.40481855108E+02 -0.88378268022E+01 -0.35451508774E+02  0.54531719338E+02  0.10566000000E+00 0. -1.
         22    1    1    0    0    0 -0.14314906438E+02 -0.18224946681E+02  0.11743732646E+02  0.25980386531E+02  0.00000000000E+00 0. -1.
</event>
<event>
 5    1  0.6835449E-004  0.9118800E+02  0.7818608E-02  0.1130116E+00
         25   -1    0    0    0    0  0.00000000000E+00  0.00000000000E+00  0.99999998245E-14  0.12500000000E+03  0.12500000000E+03 0.  0.
        -13    1    3    3    0    0 -0.49547483565E+02  0.22737197237E+02 -0.25442536213E+01  0.54574881185E+02  0.10566000000E+00 0. -1.
         23    2    1    0    0    0 -0.10210669593E+02  0.28605891077E+02  0.17359027554E+01  0.94576848681E+02  0.89550053993E+02 0.  0.
         13    1    3    3    0    0  0.39336813972E+02  0.58686938390E+01  0.42801563767E+01  0.40001967495E+02  0.10566000000E+00 0.  1.
         22    1    1    0    0    0  0.10210669593E+02 -0.28605891077E+02 -0.17359027554E+01  0.30423151319E+02  0.00000000000E+00 0. -1.
</event>
<event>
 5    1  0.6835449E-004  0.9118800E+02  0.7818608E-02  0.1130116E+00
         25   -1    0    0    0    0  0.00000000000E+00  0.00000000000E+00  0.99999998245E-14  0.12500000000E+03  0.12500000000E+03 0.  0.
        -13    1    3    3    0    0  0.15648904537E+02 -0.27248301283E+02  0.35019071462E+02  0.47050023019E+02  0.10566000000E+00 0.  1.
         23    2    1    0    0    0  0.23740063654E+02 -0.12030306552E+02 -0.11008538093E+02  0.96198840145E+02  0.91786219207E+02 0.  0.
         13    1    3    3    0    0  0.80911591175E+01  0.15217994731E+02 -0.46027609555E+02  0.49148817126E+02  0.10566000000E+00 0. -1.
         22    1    1    0    0    0 -0.23740063654E+02  0.12030306552E+02  0.11008538093E+02  0.28801159855E+02  0.00000000000E+00 0. -1.
</event>
<event>
 5    1  0.6835449E-004  0.9118800E+02  0.7818608E-02  0.1130116E+00
         25   -1    0    0    0    0  0.00000000000E+00  0.00000000000E+00  0.99999998245E-14  0.12500000000E+03  0.12500000000E+03 0.  0.
        -13    1    3    3    0    0  0.13465629854E+02 -0.33469329848E+02  0.65353418178E+01  0.36663893472E+02  0.10566000000E+00 0.  1.
         23    2    1    0    0    0  0.20021075246E+02  0.20872956060E+02 -0.10871751857E+02  0.94101476780E+02  0.88884021034E+02 0.  0.
         13    1    3    3    0    0  0.65554453917E+01  0.54342285908E+02 -0.17407093675E+02  0.57437583308E+02  0.10566000000E+00 0. -1.
         22    1    1    0    0    0 -0.20021075246E+02 -0.20872956060E+02  0.10871751857E+02  0.30898523220E+02  0.00000000000E+00 0. -1.
</event>
<event>
 5    1  0.6835449E-004  0.9118800E+02  0.7818608E-02  0.1130116E+00
         25   -1    0    0    0    0  0.00000000000E+00  0.00000000000E+00  0.99999998245E-14  0.12500000000E+03  0.12500000000E+03 0.  0.
        -13    1    3    3    0    0  0.37735984510E+02 -0.44905685293E+02 -0.18726523405E+02  0.61572875046E+02  0.10566000000E+00 0.  1.
         23    2    1    0    0    0  0.20056673159E+02 -0.12716013483E+02 -0.53625295275E+01  0.10065407919E+03  0.97665345941E+02 0.  0.
         13    1    3    3    0    0 -0.17679311351E+02  0.32189671809E+02  0.13363993877E+02  0.39081204145E+02  0.10566000000E+00 0. -1.
         22    1    1    0    0    0 -0.20056673159E+02  0.12716013483E+02  0.53625295275E+01  0.24345920809E+02  0.00000000000E+00 0.  1.
</event>
<event>
 5    1  0.6835449E-004  0.9118800E+02  0.7818608E-02  0.1130116E+00
         25   -1    0    0    0    0  0.00000000000E+00  0.00000000000E+00  0.99999998245E-14  0.12500000000E+03  0.12500000000E+03 0.  0.
        -13    1    3    3    0    0  0.70769796216E+01 -0.53477513630E+02 -0.70549852234E+01  0.54403235981E+02  0.10566000000E+00 0. -1.
         23    2    1    0    0    0  0.35359822765E+01 -0.22590088741E+02  0.19236215578E+02  0.95119449976E+02  0.90304277274E+02 0.  0.
         13    1    3    3    0    0 -0.35409973451E+01  0.30887424889E+02  0.26291200801E+02  0.40716213995E+02  0.10566000000E+00 0.  1.
         22    1    1    0    0    0 -0.35359822765E+01  0.22590088741E+02 -0.19236215578E+02  0.29880550024E+02  0.00000000000E+00 0. -1.
</event>
<event>
 5    1  0.6835449E-004  0.9118800E+02  0.7818608E-02  0.1130116E+00
         25   -1    0    0    0    0  0.00000000000E+00  0.00000000000E+00  0.99999998245E-14  0.12500000000E+03  0.12500000000E+03 0.  0.
        -13    1    3    3    0    0 -0.13253362797E+02  0.52721299457E+01 -0.31381259501E+02  0.34470880341E+02  0.10566000000E+00 0.  1.
         23    2    1    0    0    0 -0.10655660368E+02  0.89207369626E+01  0.27852112631E+02  0.93873438612E+02  0.88562744159E+02 0.  0.
         13    1    3    3    0    0  0.25977024286E+01  0.36486070169E+01  0.59233372131E+02  0.59402558271E+02  0.10566000000E+00 0. -1.
         22    1    1    0    0    0  0.10655660368E+02 -0.89207369626E+01 -0.27852112631E+02  0.31126561388E+02  0.00000000000E+00 0. -1.
</event>
<event>
 5    1  0.6835449E-004  0.9118800E+02  0.7818608E-02  0.1130116E+00
         25   -1    0    0    0    0  0.00000000000E+00  0.00000000000E+00  0.99999998245E-14  0.12500000000E+03  0.12500000000E+03 0.  0.
        -13    1    3    3    0    0  0.26230962812E+02 -0.31849666207E+02 -0.10388277424E+02  0.42548702911E+02  0.10566000000E+00 0. -1.
         23    2    1    0    0    0  0.18436805188E+02  0.42990700628E+01  0.24938123788E+02  0.93690132434E+02  0.88303641535E+02 0.  0.
         13    1    3    3    0    0 -0.77941576243E+01  0.36148736269E+02  0.35326401213E+02  0.51141429523E+02  0.10566000000E+00 0.  1.
         22    1    1    0    0    0 -0.18436805188E+02 -0.42990700628E+01 -0.24938123788E+02  0.31309867566E+02  0.00000000000E+00 0.  1.
</event>
<event>
 5    1  0.6835449E-004  0.9118800E+02  0.7818608E-02  0.1130116E+00
         25   -1    0    0    0    0  0.00000000000E+00  0.00000000000E+00  0.99999998245E-14  0.12500000000E+03  0.12500000000E+03 0.  0.
        -13    1    3    3    0    0  0.32516354498E+02  0.20418796548E+02 -0.44831579542E+02  0.59026453820E+02  0.10566000000E+00 0.  1.
         23    2    1    0    0    0  0.26694065304E+02  0.72674175786E+01 -0.12050990884E+02  0.94823604225E+02  0.89893832137E+02 0.  0.
         13    1    3    3    0    0 -0.58222891942E+01 -0.13151378970E+02  0.32780588658E+02  0.35797150405E+02  0.10566000000E+00 0. -1.
         22    1    1    0    0    0 -0.26694065304E+02 -0.72674175786E+01  0.12050990884E+02  0.30176395775E+02  0.00000000000E+00 0.  1.
</event>
<event>
 5    1  0.6835449E-004  0.9118800E+02  0.7818608E-02  0.1130116E+00
         25   -1    0    0    0    0  0.00000000000E+00  0.00000000000E+00  0.99999998245E-14  0.12500000000E+03  0.12500000000E+03 0.  0.
        -13    1    3    3    0    0 -0.32550246583E+02 -0.40053183711E+01  0.79095738667E+01  0.33736236463E+02  0.10566000000E+00 0. -1.
         23    2    1    0    0    0  0.14941829048E+02 -0.30545124761E+02 -0.72883510914E+01  0.90223816143E+02  0.83252351533E+02 0.  0.
         13    1    3    3    0    0  0.47492075632E+02 -0.26539806390E+02 -0.15197924958E+02  0.56487579680E+02  0.10566000000E+00 0.  1.
         22    1    1    0    0    0 -0.14941829048E+02  0.30545124761E+02  0.72883510914E+01  0.34776183857E+02  0.00000000000E+00 0.  1.
</event>
<event>
 5    1  0.6835449E-004  0.9118800E+02  0.7818608E-02  0.1130116E+00
         25   -1    0    0    0    0  0.00000000000E+00  0.00000000000E+00  0.99999998245E-14  0.12500000000E+03  0.12500000000E+03 0.  0.
        -13    1    3    3    0    0 -0.37233867700E+02  0.37348066015E+02  0.21969105720E+02  0.57130479686E+02  0.10566000000E+00 0.  1.
         23    2    1    0    0    0 -0.16670774800E+02  0.50881057542E+01  0.23881039338E+02  0.95434689374E+02  0.90739585316E+02 0.  0.
         13    1    3    3    0    0  0.20563092900E+02 -0.32259960261E+02  0.19119336177E+01  0.38304209688E+02  0.10566000000E+00 0. -1.
         22    1    1    0    0    0  0.16670774800E+02 -0.50881057542E+01 -0.23881039338E+02  0.29565310626E+02  0.00000000000E+00 0.  1.
</event>
<event>
 5    1  0.6835449E-004  0.9118800E+02  0.7818608E-02  0.1130116E+00
         25   -1    0    0    0    0  0.00000000000E+00  0.00000000000E+00  0.99999998245E-14  0.12500000000E+03  0.12500000000E+03 0.  0.
        -13    1    3    3    0    0 -0.18383991909E+02  0.10775650893E+02  0.21023519261E+02  0.29934684513E+02  0.10566000000E+00 0.  1.
         23    2    1    0    0    0  0.10868238892E-02 -0.21366307197E+01 -0.34812939119E+02  0.90121555050E+02  0.83098668837E+02 0.  0.
         13    1    3    3    0    0  0.18385078733E+02 -0.12912281613E+02 -0.55836458381E+02  0.60186870537E+02  0.10566000000E+00 0. -1.
         22    1    1    0    0    0 -0.10868238892E-02  0.21366307197E+01  0.34812939119E+02  0.34878444950E+02  0.00000000000E+00 0. -1.
</event>
<event>
 5    1  0.6835449E-004  0.9118800E+02  0.7818608E-02  0.1130116E+00
         25   -1    0    0    0    0  0.00000000000E+00  0.00000000000E+00  0.99999998245E-14  0.12500000000E+03  0.12500000000E+03 0.  0.
        -13    1    3    3    0    0  0.26394603559E+02  0.45613338828E+02  0.72764534118E+01  0.53199715360E+02  0.10566000000E+00 0.  1.
         23    2    1    0    0    0 -0.10751345121E+02  0.27054385702E+02 -0.22434015976E+01  0.95801300400E+02  0.91243219474E+02 0.  0.
         13    1    3    3    0    0 -0.37145948680E+02 -0.18558953126E+02 -0.95198550095E+01  0.42601585040E+02  0.10566000000E+00 0. -1.
         22    1    1    0    0    0  0.10751345121E+02 -0.27054385702E+02  0.22434015976E+01  0.29198699600E+02  0.00000000000E+00 0.  1.
</event>
<event>
 5    1  0.6835449E-004  0.9118800E+02  0.7818608E-02  0.1130116E+00
         25   -1    0    0    0    0  0.00000000000E+00  0.00000000000E+00  0.99999998245E-14  0.12500000000E+03  0.12500000000E+03 0.  0.
        -13    1    3    3    0    0  0.36623967537E+02  0.19634306035E+02 -0.31833972743E+02  0.52347244018E+02  0.10566000000E+00 0. -1.
         23    2    1    0    0    0 -0.50524361392E+01  0.14072447577E+02 -0.26287816000E+02  0.94757477588E+02  0.89801834041E+02 0.  0.
         13    1    3    3    0    0 -0.41676403676E+02 -0.55618584574E+01  0.55461567426E+01  0.42410233571E+02  0.10566000000E+00 0.  1.
         22    1    1    0    0    0  0.50524361392E+01 -0.14072447577E+02  0.26287816000E+02  0.30242522412E+02  0.00000000000E+00 0. -1.
</event>
<event>
 5    1  0.6835449E-004  0.9118800E+02  0.7818608E-02  0.1130116E+00
         25   -1    0    0    0    0  0.00000000000E+00  0.00000000000E+00  0.99999998245E-14  0.12500000000E+03  0.12500000000E+03 0.  0.
        -13    1    3    3    0    0  0.43909071347E+02  0.13855268679E+02 -0.23054787626E+02  0.51492809335E+02  0.10566000000E+00 0. -1.
         23    2    1    0    0    0  0.71366171785E+01 -0.11532547831E+02 -0.25364203773E+02  0.96237632273E+02  0.91839033467E+02 0.  0.
         13    1    3    3    0    0 -0.36772454169E+02 -0.25387816510E+02 -0.23094161477E+01  0.44744822938E+02  0.10566000000E+00 0.  1.
         22    1    1    0    0    0 -0.71366171785E+01  0.11532547831E+02  0.25364203773E+02  0.28762367727E+02  0.00000000000E+00 0. -1.
</event>
<event>
 5    1  0.6835449E-004  0.9118800E+02  0.7818608E-02  0.1130116E+00
         25   -1    0    0    0    0  0.00000000000E+00  0.00000000000E+00  0.99999998245E-14  0.12500000000E+03  0.12500000000E+03 0.  0.
        -13    1    3    3    0    0  0.28363451704E+02  0.26140940923E+02 -0.29490997969E+02  0.48554755793E+02  0.10566000000E+00 0.  1.
         23    2    1    0    0    0  0.24952475332E+02 -0.14537220438E+02 -0.65213708192E+01  0.95394509283E+02  0.90684217594E+02 0.  0.
         13    1    3    3    0    0 -0.34109763715E+01 -0.40678161361E+02  0.22969627150E+02  0.46839753489E+02  0.10566000000E+00 0. -1.
         22    1    1    0    0    0 -0.24952475332E+02  0.14537220438E+02  0.65213708192E+01  0.29605490717E+02  0.00000000000E+00 0. -1.
</event>
<event>
 5    1  0.6835449E-004  0.9118800E+02  0.7818608E-02  0.1130116E+00
         25   -1    0    0    0    0  0.00000000000E+00  0.00000000000E+00  0.99999998245E-14  0.12500000000E+03  0.12500000000E+03 0.  0.
        -13    1    3    3    0    0 -0.37434753310E+02 -0.10893633570E+02 -0.16684589067E+02  0.42407766790E+02  0.10566000000E+00 0.  1.
         23    2    1    0    0    0  0.84105407315E+01  0.17657640744E+02 -0.20644651688E+02  0.96561801826E+02  0.92279198395E+02 0.  0.
         13    1    3    3    0    0  0.45845294041E+02  0.28551274315E+02 -0.39600626216E+01  0.54154035036E+02  0.10566000000E+00 0. -1.
         22    1    1    0    0    0 -0.84105407315E+01 -0.17657640744E+02  0.20644651688E+02  0.28438198174E+02  0.00000000000E+00 0. -1.
</event>
<event>
 5    1  0.6835449E-004  0.9118800E+02  0.7818608E-02  0.1130116E+00
         25   -1    0    0    0    0  0.00000000000E+00  0.00000000000E+00  0.99999998245E-14  0.12500000000E+03  0.12500000000E+03 0.  0.
        -13    1    3    3    0    0  0.28194749262E+01  0.68393513496E+01  0.14454587927E+02  0.16237993778E+02  0.10566000000E+00 0.  1.
         23    2    1    0    0    0 -0.33088502305E+01 -0.12060624362E+02 -0.44670269079E+02  0.78612069572E+02  0.63466663634E+02 0.  0.
         13    1    3    3    0    0 -0.61283251567E+01 -0.18899975712E+02 -0.59124857006E+02  0.62374075794E+02  0.10566000000E+00 0. -1.
         22    1    1    0    0    0  0.33088502305E+01  0.12060624362E+02  0.44670269079E+02  0.46387930428E+02  0.00000000000E+00 0. -1.
</event>
<event>
 5    1  0.6835449E-004  0.9118800E+02  0.7818608E-02  0.1130116E+00
         25   -1    0    0    0    0  0.00000000000E+00  0.00000000000E+00  0.99999998245E-14  0.12500000000E+03  0.12500000000E+03 0.  0.
        -13    1    3    3    0    0 -0.40527460272E+02  0.39681614807E+02 -0.43505846829E+01  0.56886240348E+02  0.10566000000E+00 0.  1.
         23    2    1    0    0    0 -0.28427105355E+02  0.34552325841E+01 -0.80356739161E+01  0.95257589096E+02  0.90495288684E+02 0.  0.
         13    1    3    3    0    0  0.12100354917E+02 -0.36226382223E+02 -0.36850892332E+01  0.38371348748E+02  0.10566000000E+00 0. -1.
         22    1    1    0    0    0  0.28427105355E+02 -0.34552325841E+01  0.80356739161E+01  0.29742410904E+02  0.00000000000E+00 0.  1.
</event>
<event>
 5    1  0.6835449E-004  0.9118800E+02  0.7818608E-02  0.1130116E+00
         25   -1    0    0    0    0  0.00000000000E+00  0.00000000000E+00  0.99999998245E-14  0.12500000000E+03  0.12500000000E+03 0.  0.
        -13    1    3    3    0    0 -0.33742917067E+02 -0.22176136211E+02  0.44628663060E+02  0.60183836700E+02  0.10566000000E+00 0.  1.
         23    2    1    0    0    0 -0.17031706228E+02 -0.17085399633E+02  0.10166829209E+02  0.98820727401E+02  0.95289988195E+02 0.  0.
         13    1    3    3    0    0  0.16711210839E+02  0.50907365776E+01 -0.34461833851E+02  0.38636890700E+02  0.10566000000E+00 0. -1.
         22    1    1    0    0    0  0.17031706228E+02  0.17085399633E+02 -0.10166829209E+02  0.26179272599E+02  0.00000000000E+00 0.  1.
</event>
<event>
 5    1  0.6835449E-004  0.9118800E+02  0.7818608E-02  0.1130116E+00
         25   -1    0    0    0    0  0.00000000000E+00  0.00000000000E+00  0.99999998245E-14  0.12500000000E+03  0.12500000000E+03 0.  0.
        -13    1    3    3    0    0 -0.20102531321E+02  0.38364630513E+02 -0.16887563002E+02  0.46488252152E+02  0.10566000000E+00 0. -1.
         23    2    1    0    0    0  0.21612983090E+02  0.12802592245E+02 -0.15600399648E+02  0.95429746781E+02  0.90732776301E+02 0.  0.
         13    1    3    3    0    0  0.41715514412E+02 -0.25562038268E+02  0.12871633536E+01  0.48941494629E+02  0.10566000000E+00 0.  1.
         22    1    1    0    0    0 -0.21612983090E+02 -0.12802592245E+02  0.15600399648E+02  0.29570253219E+02  0.00000000000E+00 0.  1.
</event>
<event>
 4    1  0.6835449E-004  0.9118800E+02  0.7818608E-02  0.1130116E+00
         25   -1    0    0    0    0  0.00000000000E+00  0.00000000000E+00  0.99999998245E-14  0.12500000000E+03  0.12500000000E+03 0.  0.
        -13    1    1    0    0    0 -0.22691564834E+01  0.37168795530E+01  0.19418748162E+02  0.19901336864E+02  0.10566000000E+00 0.  1.
         13    1    1    0    0    0  0.41697938527E+02  0.27452000737E+02  0.31094616703E+01  0.50020099337E+02  0.10566000000E+00 0. -1.
         22    1    1    0    0    0 -0.39428782043E+02 -0.31168880290E+02 -0.22528209832E+02  0.55078563799E+02  0.00000000000E+00 0. -1.
</event>
<event>
 5    1  0.6835449E-004  0.9118800E+02  0.7818608E-02  0.1130116E+00
         25   -1    0    0    0    0  0.00000000000E+00  0.00000000000E+00  0.99999998245E-14  0.12500000000E+03  0.12500000000E+03 0.  0.
        -13    1    3    3    0    0  0.43442016444E+02 -0.41517530578E+02  0.47892552134E+00  0.60092883703E+02  0.10566000000E+00 0. -1.
         23    2    1    0    0    0  0.26001071402E+02 -0.14074155462E+02 -0.92279907059E+01  0.94027538385E+02  0.88779978577E+02 0.  0.
         13    1    3    3    0    0 -0.17440945041E+02  0.27443375116E+02 -0.97069162273E+01  0.33934654682E+02  0.10566000000E+00 0.  1.
         22    1    1    0    0    0 -0.26001071402E+02  0.14074155462E+02  0.92279907059E+01  0.30972461615E+02  0.00000000000E+00 0. -1.
</event>
<event>
 5    1  0.6835449E-004  0.9118800E+02  0.7818608E-02  0.1130116E+00
         25   -1    0    0    0    0  0.00000000000E+00  0.00000000000E+00  0.99999998245E-14  0.12500000000E+03  0.12500000000E+03 0.  0.
        -13    1    3    3    0    0  0.15610869671E+02  0.45974366252E+02 -0.27940676494E+02  0.56018159298E+02  0.10566000000E+00 0.  1.
         23    2    1    0    0    0 -0.11474597309E+02  0.26155711742E+02 -0.69472396598E+01  0.95605242321E+02  0.90974230309E+02 0.  0.
         13    1    3    3    0    0 -0.27085466980E+02 -0.19818654511E+02  0.20993436834E+02  0.39587083023E+02  0.10566000000E+00 0. -1.
         22    1    1    0    0    0  0.11474597309E+02 -0.26155711742E+02  0.69472396598E+01  0.29394757679E+02  0.00000000000E+00 0.  1.
</event>
<event>
 5    1  0.6835449E-004  0.9118800E+02  0.7818608E-02  0.1130116E+00
         25   -1    0    0    0    0  0.00000000000E+00  0.00000000000E+00  0.99999998245E-14  0.12500000000E+03  0.12500000000E+03 0.  0.
        -13    1    3    3    0    0 -0.29101664862E+02  0.12819041574E+02  0.10448968787E+02  0.33472777556E+02  0.10566000000E+00 0. -1.
         23    2    1    0    0    0  0.11749109059E+02 -0.21846456443E+02 -0.18205141202E+02  0.94230918295E+02  0.89065872104E+02 0.  0.
         13    1    3    3    0    0  0.40850773921E+02 -0.34665498017E+02 -0.28654109989E+02  0.60758140738E+02  0.10566000000E+00 0.  1.
         22    1    1    0    0    0 -0.11749109059E+02  0.21846456443E+02  0.18205141202E+02  0.30769081705E+02  0.00000000000E+00 0.  1.
</event>
<event>
 5    1  0.6835449E-004  0.9118800E+02  0.7818608E-02  0.1130116E+00
         25   -1    0    0    0    0  0.00000000000E+00  0.00000000000E+00  0.99999998245E-14  0.12500000000E+03  0.12500000000E+03 0.  0.
        -13    1    3    3    0    0 -0.28943881907E+01 -0.25469928017E+02  0.53147767961E+02  0.59006704021E+02  0.10566000000E+00 0.  1.
         23    2    1    0    0    0 -0.14805544514E+02 -0.55404534327E+01  0.23804178317E+02  0.96424841594E+02  0.92093487275E+02 0.  0.
         13    1    3    3    0    0 -0.11911156323E+02  0.19929474584E+02 -0.29343589644E+02  0.37418137573E+02  0.10566000000E+00 0. -1.
         22    1    1    0    0    0  0.14805544514E+02  0.55404534327E+01 -0.23804178317E+02  0.28575158406E+02  0.00000000000E+00 0.  1.
</event>
<event>
 5    1  0.6835449E-004  0.9118800E+02  0.7818608E-02  0.1130116E+00
         25   -1    0    0    0    0  0.00000000000E+00  0.00000000000E+00  0.99999998245E-14  0.12500000000E+03  0.12500000000E+03 0.  0.
        -13    1    3    3    0    0  0.11176140416E+01 -0.54114288350E+02  0.25935786982E+02  0.60019009282E+02  0.10566000000E+00 0.  1.
         23    2    1    0    0    0  0.12660425079E+02 -0.22394275453E+02  0.13090915559E+02  0.96135454163E+02  0.91699855729E+02 0.  0.
         13    1    3    3    0    0  0.11542811037E+02  0.31720012898E+02 -0.12844871423E+02  0.36116444880E+02  0.10566000000E+00 0. -1.
         22    1    1    0    0    0 -0.12660425079E+02  0.22394275453E+02 -0.13090915559E+02  0.28864545837E+02  0.00000000000E+00 0.  1.
</event>
<event>
 5    1  0.6835449E-004  0.9118800E+02  0.7818608E-02  0.1130116E+00
         25   -1    0    0    0    0  0.00000000000E+00  0.00000000000E+00  0.99999998245E-14  0.12500000000E+03  0.12500000000E+03 0.  0.
        -13    1    3    3    0    0  0.51597284191E+00 -0.33088194095E+02  0.38324967627E+02  0.50635058251E+02  0.10566000000E+00 0. -1.
         23    2    1    0    0    0 -0.96159591737E-01 -0.28342627997E+02 -0.66692608361E+01  0.95883117466E+02  0.91355237214E+02 0.  0.
         13    1    3    3    0    0 -0.61213243365E+00  0.47455660989E+01 -0.44994228463E+02  0.45248059215E+02  0.10566000000E+00 0.  1.
         22    1    1    0    0    0  0.96159591737E-01  0.28342627997E+02  0.66692608361E+01  0.29116882534E+02  0.00000000000E+00 0. -1.
</event>
<event>
 5    1  0.6835449E-004  0.9118800E+02  0.7818608E-02  0.1130116E+00
         25   -1    0    0    0    0  0.00000000000E+00  0.00000000000E+00  0.99999998245E-14  0.12500000000E+03  0.12500000000E+03 0.  0.
        -13    1    3    3    0    0 -0.47055113410E+02  0.40804056036E+02 -0.48284309781E+01  0.62469829492E+02  0.10566000000E+00 0.  1.
         23    2    1    0    0    0 -0.21111890171E+02  0.18257024158E+02 -0.79573079246E+00  0.97077535475E+02  0.92975178777E+02 0.  0.
         13    1    3    3    0    0  0.25943223240E+02 -0.22547031878E+02  0.40327001856E+01  0.34607705983E+02  0.10566000000E+00 0. -1.
         22    1    1    0    0    0  0.21111890171E+02 -0.18257024158E+02  0.79573079246E+00  0.27922464525E+02  0.00000000000E+00 0.  1.
</event>
<event>
 5    1  0.6835449E-004  0.9118800E+02  0.7818608E-02  0.1130116E+00
         25   -1    0    0    0    0  0.00000000000E+00  0.00000000000E+00  0.99999998245E-14  0.12500000000E+03  0.12500000000E+03 0.  0.
        -13    1    3    3    0    0  0.20392378903E+02 -0.42337284191E+02 -0.14496444193E+02  0.49177767418E+02  0.10566000000E+00 0. -1.
         23    2    1    0    0    0  0.27241048193E+02  0.21741891845E+01 -0.14175945007E+02  0.94214301663E+02  0.89042548346E+02 0.  0.
         13    1    3    3    0    0  0.68486692893E+01  0.44511473375E+02  0.32049918660E+00  0.45036534245E+02  0.10566000000E+00 0.  1.
         22    1    1    0    0    0 -0.27241048193E+02 -0.21741891845E+01  0.14175945007E+02  0.30785698337E+02  0.00000000000E+00 0. -1.
</event>
<event>
 5    1  0.6835449E-004  0.9118800E+02  0.7818608E-02  0.1130116E+00
         25   -1    0    0    0    0  0.00000000000E+00  0.00000000000E+00  0.99999998245E-14  0.12500000000E+03  0.12500000000E+03 0.  0.
        -13    1    3    3    0    0  0.37113086488E+02 -0.34882049841E+02 -0.25233020213E+02  0.56840611036E+02  0.10566000000E+00 0. -1.
         23    2    1    0    0    0  0.52345399954E+00 -0.20384842111E+02 -0.19811167391E+02  0.96569415318E+02  0.92289510939E+02 0.  0.
         13    1    3    3    0    0 -0.36589632489E+02  0.14497207729E+02  0.54218528223E+01  0.39728804282E+02  0.10566000000E+00 0.  1.
         22    1    1    0    0    0 -0.52345399954E+00  0.20384842111E+02  0.19811167391E+02  0.28430584682E+02  0.00000000000E+00 0. -1.
</event>
<event>
 5    1  0.6835449E-004  0.9118800E+02  0.7818608E-02  0.1130116E+00
         25   -1    0    0    0    0  0.00000000000E+00  0.00000000000E+00  0.99999998245E-14  0.12500000000E+03  0.12500000000E+03 0.  0.
        -13    1    3    3    0    0 -0.16763459867E+02  0.46246752033E+02  0.66460341584E+01  0.49638257366E+02  0.10566000000E+00 0. -1.
         23    2    1    0    0    0 -0.13859447265E+02 -0.52211789133E+01  0.17246778897E+02  0.10226684426E+03  0.99708129379E+02 0.  0.
         13    1    3    3    0    0  0.29040126028E+01 -0.51467930946E+02  0.10600744738E+02  0.52628586891E+02  0.10566000000E+00 0.  1.
         22    1    1    0    0    0  0.13859447265E+02  0.52211789133E+01 -0.17246778897E+02  0.22733155743E+02  0.00000000000E+00 0. -1.
</event>
<event>
 5    1  0.6835449E-004  0.9118800E+02  0.7818608E-02  0.1130116E+00
         25   -1    0    0    0    0  0.00000000000E+00  0.00000000000E+00  0.99999998245E-14  0.12500000000E+03  0.12500000000E+03 0.  0.
        -13    1    3    3    0    0 -0.37801302422E+02 -0.19360762256E+02  0.20920186288E+02  0.47343879629E+02  0.10566000000E+00 0. -1.
         23    2    1    0    0    0 -0.14991014646E+02  0.51466083664E+01 -0.19526923634E+02  0.99850072676E+02  0.96630834463E+02 0.  0.
         13    1    3    3    0    0  0.22810287776E+02  0.24507370623E+02 -0.40447109921E+02  0.52506193047E+02  0.10566000000E+00 0.  1.
         22    1    1    0    0    0  0.14991014646E+02 -0.51466083664E+01  0.19526923634E+02  0.25149927324E+02  0.00000000000E+00 0.  1.
</event>
<event>
 5    1  0.6835449E-004  0.9118800E+02  0.7818608E-02  0.1130116E+00
         25   -1    0    0    0    0  0.00000000000E+00  0.00000000000E+00  0.99999998245E-14  0.12500000000E+03  0.12500000000E+03 0.  0.
        -13    1    3    3    0    0 -0.46119831299E+01  0.46511705114E+02  0.20711709091E+02  0.51123332819E+02  0.10566000000E+00 0. -1.
         23    2    1    0    0    0 -0.21849837093E+02  0.23237754829E+01  0.13792937517E+02  0.99056591611E+02  0.95598890699E+02 0.  0.
         13    1    3    3    0    0 -0.17237853963E+02 -0.44187929631E+02 -0.69187715732E+01  0.47933258792E+02  0.10566000000E+00 0.  1.
         22    1    1    0    0    0  0.21849837093E+02 -0.23237754829E+01 -0.13792937517E+02  0.25943408389E+02  0.00000000000E+00 0. -1.
</event>
<event>
 5    1  0.6835449E-004  0.9118800E+02  0.7818608E-02  0.1130116E+00
         25   -1    0    0    0    0  0.00000000000E+00  0.00000000000E+00  0.99999998245E-14  0.12500000000E+03  0.12500000000E+03 0.  0.
        -13    1    3    3    0    0 -0.41090005611E+02  0.17372931638E+02 -0.36789310739E+02  0.57824491900E+02  0.10566000000E+00 0.  1.
         23    2    1    0    0    0 -0.27502297454E+02  0.10395750785E+02 -0.23433729998E+01  0.95505264934E+02  0.90836755960E+02 0.  0.
         13    1    3    3    0    0  0.13587708157E+02 -0.69771808531E+01  0.34445937740E+02  0.37680773034E+02  0.10566000000E+00 0. -1.
         22    1    1    0    0    0  0.27502297454E+02 -0.10395750785E+02  0.23433729998E+01  0.29494735066E+02  0.00000000000E+00 0.  1.
</event>
<event>
 5    1  0.6835449E-004  0.9118800E+02  0.7818608E-02  0.1130116E+00
         25   -1    0    0    0    0  0.00000000000E+00  0.00000000000E+00  0.99999998245E-14  0.12500000000E+03  0.12500000000E+03 0.  0.
        -13    1    3    3    0    0 -0.29911008789E+02 -0.21221316537E+02  0.18025270230E+02  0.40864829049E+02  0.10566000000E+00 0. -1.
         23    2    1    0    0    0 -0.52213873833E+01 -0.60063565841E+01 -0.28345788250E+02  0.95558143449E+02  0.90909492696E+02 0.  0.
         13    1    3    3    0    0  0.24689621405E+02  0.15214959953E+02 -0.46371058480E+02  0.54693314400E+02  0.10566000000E+00 0.  1.
         22    1    1    0    0    0  0.52213873833E+01  0.60063565841E+01  0.28345788250E+02  0.29441856551E+02  0.00000000000E+00 0.  1.
</event>
<event>
 5    1  0.6835449E-004  0.9118800E+02  0.7818608E-02  0.1130116E+00
         25   -1    0    0    0    0  0.00000000000E+00  0.00000000000E+00  0.99999998245E-14  0.12500000000E+03  0.12500000000E+03 0.  0.
        -13    1    3    3    0    0  0.76823837739E+00 -0.36264854913E+02  0.24086752554E+02  0.43542079702E+02  0.10566000000E+00 0.  1.
         23    2    1    0    0    0 -0.10184372539E+02  0.14651218737E+02  0.23330422056E+02  0.95628444920E+02  0.91006105455E+02 0.  0.
         13    1    3    3    0    0 -0.10952610916E+02  0.50916073650E+02 -0.75633049860E+00  0.52086365219E+02  0.10566000000E+00 0. -1.
         22    1    1    0    0    0  0.10184372539E+02 -0.14651218737E+02 -0.23330422056E+02  0.29371555080E+02  0.00000000000E+00 0. -1.
</event>
<event>
 5    1  0.6835449E-004  0.9118800E+02  0.7818608E-02  0.1130116E+00
         25   -1    0    0    0    0  0.00000000000E+00  0.00000000000E+00  0.99999998245E-14  0.12500000000E+03  0.12500000000E+03 0.  0.
        -13    1    3    3    0    0  0.26291758897E+02  0.23137232764E+02 -0.26653301348E+02  0.44011336752E+02  0.10566000000E+00 0.  1.
         23    2    1    0    0    0 -0.22654456976E+02  0.13806838984E+02 -0.71198416578E+01  0.97531010779E+02  0.93582865390E+02 0.  0.
         13    1    3    3    0    0 -0.48946215873E+02 -0.93303937800E+01  0.19533459690E+02  0.53519674027E+02  0.10566000000E+00 0. -1.
         22    1    1    0    0    0  0.22654456976E+02 -0.13806838984E+02  0.71198416578E+01  0.27468989221E+02  0.00000000000E+00 0. -1.
</event>
<event>
 5    1  0.6835449E-004  0.9118800E+02  0.7818608E-02  0.1130116E+00
         25   -1    0    0    0    0  0.00000000000E+00  0.00000000000E+00  0.99999998245E-14  0.12500000000E+03  0.12500000000E+03 0.  0.
        -13    1    3    3    0    0 -0.28319824229E+02  0.37688346446E+02 -0.26548806612E+02  0.54104290022E+02  0.10566000000E+00 0. -1.
         23    2    1    0    0    0 -0.20897449435E-02  0.29165097431E+02  0.27152146442E+01  0.95708784541E+02  0.91116387852E+02 0.  0.
         13    1    3    3    0    0  0.28317734484E+02 -0.85232490151E+01  0.29264021256E+02  0.41604494519E+02  0.10566000000E+00 0.  1.
         22    1    1    0    0    0  0.20897449435E-02 -0.29165097431E+02 -0.27152146442E+01  0.29291215459E+02  0.00000000000E+00 0. -1.
</event>
<event>
 4    1  0.6835449E-004  0.9118800E+02  0.7818608E-02  0.1130116E+00
         25   -1    0    0    0    0  0.00000000000E+00  0.00000000000E+00  0.99999998245E-14  0.12500000000E+03  0.12500000000E+03 0.  0.
        -13    1    1    0    0    0 -0.95922377437E+01 -0.17841118489E+02  0.92496025072E+01  0.22268427076E+02  0.10566000000E+00 0. -1.
         13    1    1    0    0    0  0.45255713100E+02 -0.53463310124E+01  0.21356487409E+02  0.50326668298E+02  0.10566000000E+00 0.  1.
         22    1    1    0    0    0 -0.35663475356E+02  0.23187449502E+02 -0.30606089916E+02  0.52404904626E+02  0.00000000000E+00 0.  1.
</event>
<event>
 5    1  0.6835449E-004  0.9118800E+02  0.7818608E-02  0.1130116E+00
         25   -1    0    0    0    0  0.00000000000E+00  0.00000000000E+00  0.99999998245E-14  0.12500000000E+03  0.12500000000E+03 0.  0.
        -13    1    3    3    0    0  0.70746284510E+01  0.25129920072E+02 -0.28314565915E+02  0.38513491890E+02  0.10566000000E+00 0.  1.
         23    2    1    0    0    0  0.18596320730E+02 -0.67842173168E+00  0.21976985279E+02  0.96202929269E+02  0.91791787853E+02 0.  0.
         13    1    3    3    0    0  0.11521692279E+02 -0.25808341804E+02  0.50291551194E+02  0.57689437379E+02  0.10566000000E+00 0. -1.
         22    1    1    0    0    0 -0.18596320730E+02  0.67842173168E+00 -0.21976985279E+02  0.28797070731E+02  0.00000000000E+00 0. -1.
</event>
<event>
 5    1  0.6835449E-004  0.9118800E+02  0.7818608E-02  0.1130116E+00
         25   -1    0    0    0    0  0.00000000000E+00  0.00000000000E+00  0.99999998245E-14  0.12500000000E+03  0.12500000000E+03 0.  0.
        -13    1    3    3    0    0  0.15621877854E+02 -0.92941182342E+01  0.21530589627E+02  0.28178026104E+02  0.10566000000E+00 0.  1.
         23    2    1    0    0    0 -0.16733649467E+02  0.21346904771E+02 -0.21700064222E+02  0.90263878238E+02  0.83312481415E+02 0.  0.
         13    1    3    3    0    0 -0.32355527321E+02  0.30641023005E+02 -0.43230653849E+02  0.62085852134E+02  0.10566000000E+00 0. -1.
         22    1    1    0    0    0  0.16733649467E+02 -0.21346904771E+02  0.21700064222E+02  0.34736121762E+02  0.00000000000E+00 0. -1.
</event>
<event>
 5    1  0.6835449E-004  0.9118800E+02  0.7818608E-02  0.1130116E+00
         25   -1    0    0    0    0  0.00000000000E+00  0.00000000000E+00  0.99999998245E-14  0.12500000000E+03  0.12500000000E+03 0.  0.
        -13    1    3    3    0    0 -0.33504802966E+02  0.39449591582E+02 -0.33396023763E+02  0.61596653034E+02  0.10566000000E+00 0.  1.
         23    2    1    0    0    0 -0.17340464304E+02  0.21081013979E+02 -0.87269825046E+01  0.96342346985E+02  0.91981447838E+02 0.  0.
         13    1    3    3    0    0  0.16164338661E+02 -0.18368577603E+02  0.24669041259E+02  0.34745693951E+02  0.10566000000E+00 0. -1.
         22    1    1    0    0    0  0.17340464304E+02 -0.21081013979E+02  0.87269825046E+01  0.28657653015E+02  0.00000000000E+00 0.  1.
</event>
<event>
 5    1  0.6835449E-004  0.9118800E+02  0.7818608E-02  0.1130116E+00
         25   -1    0    0    0    0  0.00000000000E+00  0.00000000000E+00  0.99999998245E-14  0.12500000000E+03  0.12500000000E+03 0.  0.
        -13    1    3    3    0    0  0.69024006166E+01 -0.25748178915E+02 -0.51508830721E+02  0.57998126331E+02  0.10566000000E+00 0.  1.
         23    2    1    0    0    0  0.16320926034E+02 -0.13789727036E+01 -0.24070669160E+02  0.95885204687E+02  0.91358093082E+02 0.  0.
         13    1    3    3    0    0  0.94185254178E+01  0.24369206212E+02  0.27438161561E+02  0.37887078355E+02  0.10566000000E+00 0. -1.
         22    1    1    0    0    0 -0.16320926034E+02  0.13789727036E+01  0.24070669160E+02  0.29114795313E+02  0.00000000000E+00 0.  1.
</event>
<event>
 5    1  0.6835449E-004  0.9118800E+02  0.7818608E-02  0.1130116E+00
         25   -1    0    0    0    0  0.00000000000E+00  0.00000000000E+00  0.99999998245E-14  0.12500000000E+03  0.12500000000E+03 0.  0.
        -13    1    3    3    0    0  0.70016651350E+01  0.55102377236E+02 -0.26453233097E+02  0.61523003804E+02  0.10566000000E+00 0.  1.
         23    2    1    0    0    0  0.15426604037E+00  0.22113096287E+02 -0.18564838561E+02  0.96126724187E+02  0.91687954752E+02 0.  0.
         13    1    3    3    0    0 -0.68473990946E+01 -0.32989280950E+02  0.78883945360E+01  0.34603720383E+02  0.10566000000E+00 0. -1.
         22    1    1    0    0    0 -0.15426604037E+00 -0.22113096287E+02  0.18564838561E+02  0.28873275813E+02  0.00000000000E+00 0.  1.
</event>
<event>
 5    1  0.6835449E-004  0.9118800E+02  0.7818608E-02  0.1130116E+00
         25   -1    0    0    0    0  0.00000000000E+00  0.00000000000E+00  0.99999998245E-14  0.12500000000E+03  0.12500000000E+03 0.  0.
        -13    1    3    3    0    0  0.16943024382E+02 -0.13995070171E+01 -0.39695981808E+02  0.43183409208E+02  0.10566000000E+00 0. -1.
         23    2    1    0    0    0 -0.21378049608E+02  0.17637572898E+02 -0.89408256529E+01  0.95878816196E+02  0.91349351662E+02 0.  0.
         13    1    3    3    0    0 -0.38321073990E+02  0.19037079915E+02  0.30755156155E+02  0.52695406988E+02  0.10566000000E+00 0.  1.
         22    1    1    0    0    0  0.21378049608E+02 -0.17637572898E+02  0.89408256529E+01  0.29121183804E+02  0.00000000000E+00 0.  1.
</event>
<event>
 5    1  0.6835449E-004  0.9118800E+02  0.7818608E-02  0.1130116E+00
         25   -1    0    0    0    0  0.00000000000E+00  0.00000000000E+00  0.99999998245E-14  0.12500000000E+03  0.12500000000E+03 0.  0.
        -13    1    3    3    0    0  0.50757549410E+02 -0.79183642923E+00 -0.28177266006E+02  0.58059670260E+02  0.10566000000E+00 0.  1.
         23    2    1    0    0    0  0.14617024285E+02  0.72758678953E+01 -0.24885897623E+02  0.95235868011E+02  0.90465280648E+02 0.  0.
         13    1    3    3    0    0 -0.36140525125E+02  0.80677043245E+01  0.32913683835E+01  0.37176197751E+02  0.10566000000E+00 0. -1.
         22    1    1    0    0    0 -0.14617024285E+02 -0.72758678953E+01  0.24885897623E+02  0.29764131989E+02  0.00000000000E+00 0.  1.
</event>
<event>
 5    1  0.6835449E-004  0.9118800E+02  0.7818608E-02  0.1130116E+00
         25   -1    0    0    0    0  0.00000000000E+00  0.00000000000E+00  0.99999998245E-14  0.12500000000E+03  0.12500000000E+03 0.  0.
        -13    1    3    3    0    0 -0.25336825833E+02 -0.22731032539E+02  0.20566209726E+02  0.39769771562E+02  0.10566000000E+00 0.  1.
         23    2    1    0    0    0  0.17420444151E+02  0.14376752412E+02  0.17428149440E+02  0.96471009880E+02  0.92156130941E+02 0.  0.
         13    1    3    3    0    0  0.42757269984E+02  0.37107784951E+02 -0.31380602855E+01  0.56701238318E+02  0.10566000000E+00 0. -1.
         22    1    1    0    0    0 -0.17420444151E+02 -0.14376752412E+02 -0.17428149440E+02  0.28528990120E+02  0.00000000000E+00 0. -1.
</event>
<event>
 5    1  0.6835449E-004  0.9118800E+02  0.7818608E-02  0.1130116E+00
         25   -1    0    0    0    0  0.00000000000E+00  0.00000000000E+00  0.99999998245E-14  0.12500000000E+03  0.12500000000E+03 0.  0.
        -13    1    3    3    0    0  0.15335465713E+01  0.14129078387E+02  0.37591960366E+02  0.40188919733E+02  0.10566000000E+00 0.  1.
         23    2    1    0    0    0 -0.12372894528E+02 -0.26593385376E+02  0.27816995173E+01  0.95537574489E+02  0.90881206101E+02 0.  0.
         13    1    3    3    0    0 -0.13906441099E+02 -0.40722463763E+02 -0.34810260848E+02  0.55348654756E+02  0.10566000000E+00 0. -1.
         22    1    1    0    0    0  0.12372894528E+02  0.26593385376E+02 -0.27816995173E+01  0.29462425511E+02  0.00000000000E+00 0. -1.
</event>
<event>
 5    1  0.6835449E-004  0.9118800E+02  0.7818608E-02  0.1130116E+00
         25   -1    0    0    0    0  0.00000000000E+00  0.00000000000E+00  0.99999998245E-14  0.12500000000E+03  0.12500000000E+03 0.  0.
        -13    1    3    3    0    0  0.21461752650E+02  0.22323847001E+02  0.31516166500E+02  0.44184170091E+02  0.10566000000E+00 0.  1.
         23    2    1    0    0    0  0.14352607984E+02 -0.23352840001E+02  0.61709590586E+01  0.96903145590E+02  0.92740424829E+02 0.  0.
         13    1    3    3    0    0 -0.71091446661E+01 -0.45676687001E+02 -0.25345207442E+02  0.52718975499E+02  0.10566000000E+00 0. -1.
         22    1    1    0    0    0 -0.14352607984E+02  0.23352840001E+02 -0.61709590586E+01  0.28096854410E+02  0.00000000000E+00 0.  1.
</event>
<event>
 5    1  0.6835449E-004  0.9118800E+02  0.7818608E-02  0.1130116E+00
         25   -1    0    0    0    0  0.00000000000E+00  0.00000000000E+00  0.99999998245E-14  0.12500000000E+03  0.12500000000E+03 0.  0.
        -13    1    3    3    0    0  0.31539134544E+02 -0.14876207548E+02  0.23148696005E+01  0.34948366831E+02  0.10566000000E+00 0.  1.
         23    2    1    0    0    0 -0.25319785844E+02 -0.10640069113E+02 -0.13889654280E+02  0.94222977371E+02  0.89054726673E+02 0.  0.
         13    1    3    3    0    0 -0.56858920388E+02  0.42361384355E+01 -0.16204523880E+02  0.59274610541E+02  0.10566000000E+00 0. -1.
         22    1    1    0    0    0  0.25319785844E+02  0.10640069113E+02  0.13889654280E+02  0.30777022629E+02  0.00000000000E+00 0. -1.
</event>
<event>
 5    1  0.6835449E-004  0.9118800E+02  0.7818608E-02  0.1130116E+00
         25   -1    0    0    0    0  0.00000000000E+00  0.00000000000E+00  0.99999998245E-14  0.12500000000E+03  0.12500000000E+03 0.  0.
        -13    1    3    3    0    0 -0.21453574198E+01  0.24236868874E+02 -0.27607068769E+02  0.36799317675E+02  0.10566000000E+00 0. -1.
         23    2    1    0    0    0 -0.69195314582E+01  0.14511816698E+01  0.27491257987E+02  0.96614174144E+02  0.92350113893E+02 0.  0.
         13    1    3    3    0    0 -0.47741740384E+01 -0.22785687204E+02  0.55098326756E+02  0.59814856469E+02  0.10566000000E+00 0.  1.
         22    1    1    0    0    0  0.69195314582E+01 -0.14511816698E+01 -0.27491257987E+02  0.28385825856E+02  0.00000000000E+00 0.  1.
</event>
<event>
 5    1  0.6835449E-004  0.9118800E+02  0.7818608E-02  0.1130116E+00
         25   -1    0    0    0    0  0.00000000000E+00  0.00000000000E+00  0.99999998245E-14  0.12500000000E+03  0.12500000000E+03 0.  0.
        -13    1    3    3    0    0  0.18451850814E+02 -0.30733694099E+02  0.13390799388E+02  0.38266897231E+02  0.10566000000E+00 0.  1.
         23    2    1    0    0    0 -0.96699497851E+01  0.24857059464E+01 -0.26111641147E+02  0.97044598620E+02  0.92930886443E+02 0.  0.
         13    1    3    3    0    0 -0.28121800599E+02  0.33219400045E+02 -0.39502440535E+02  0.58777701389E+02  0.10566000000E+00 0. -1.
         22    1    1    0    0    0  0.96699497851E+01 -0.24857059464E+01  0.26111641147E+02  0.27955401380E+02  0.00000000000E+00 0. -1.
</event>
<event>
 5    1  0.6835449E-004  0.9118800E+02  0.7818608E-02  0.1130116E+00
         25   -1    0    0    0    0  0.00000000000E+00  0.00000000000E+00  0.99999998245E-14  0.12500000000E+03  0.12500000000E+03 0.  0.
        -13    1    3    3    0    0 -0.37936832919E+02 -0.12611576930E+02 -0.29188030179E+02  0.49499570043E+02  0.10566000000E+00 0.  1.
         23    2    1    0    0    0 -0.25844914201E+02  0.40227364707E+01  0.12519811473E+02  0.96001936649E+02  0.91517671312E+02 0.  0.
         13    1    3    3    0    0  0.12091918719E+02  0.16634313401E+02  0.41707841653E+02  0.46502366606E+02  0.10566000000E+00 0. -1.
         22    1    1    0    0    0  0.25844914201E+02 -0.40227364707E+01 -0.12519811473E+02  0.28998063351E+02  0.00000000000E+00 0.  1.
</event>
<event>
 5    1  0.6835449E-004  0.9118800E+02  0.7818608E-02  0.1130116E+00
         25   -1    0    0    0    0  0.00000000000E+00  0.00000000000E+00  0.99999998245E-14  0.12500000000E+03  0.12500000000E+03 0.  0.
        -13    1    3    3    0    0  0.20321519853E+02 -0.43590209271E+02 -0.36226020351E+02  0.60211346338E+02  0.10566000000E+00 0. -1.
         23    2    1    0    0    0 -0.17747225821E+00 -0.25465324844E+02 -0.11629449995E+02  0.97004315100E+02  0.92876685853E+02 0.  0.
         13    1    3    3    0    0 -0.20498992111E+02  0.18124884426E+02  0.24596570356E+02  0.36792968762E+02  0.10566000000E+00 0.  1.
         22    1    1    0    0    0  0.17747225821E+00  0.25465324844E+02  0.11629449995E+02  0.27995684900E+02  0.00000000000E+00 0. -1.
</event>
<event>
 5    1  0.6835449E-004  0.9118800E+02  0.7818608E-02  0.1130116E+00
         25   -1    0    0    0    0  0.00000000000E+00  0.00000000000E+00  0.99999998245E-14  0.12500000000E+03  0.12500000000E+03 0.  0.
        -13    1    3    3    0    0 -0.22388132789E+02 -0.17947412381E+02  0.50402222505E+02  0.57997700802E+02  0.10566000000E+00 0. -1.
         23    2    1    0    0    0 -0.13689060356E+02  0.86265950333E+01  0.18025224970E+02  0.10077775298E+03  0.97823505590E+02 0.  0.
         13    1    3    3    0    0  0.86990724329E+01  0.26574007415E+02 -0.32376997534E+02  0.42780052181E+02  0.10566000000E+00 0.  1.
         22    1    1    0    0    0  0.13689060356E+02 -0.86265950333E+01 -0.18025224970E+02  0.24222247016E+02  0.00000000000E+00 0. -1.
</event>
<event>
 5    1  0.6835449E-004  0.9118800E+02  0.7818608E-02  0.1130116E+00
         25   -1    0    0    0    0  0.00000000000E+00  0.00000000000E+00  0.99999998245E-14  0.12500000000E+03  0.12500000000E+03 0.  0.
        -13    1    3    3    0    0 -0.49260558842E+02  0.25448336637E+02 -0.19890005165E+01  0.55481418350E+02  0.10566000000E+00 0.  1.
         23    2    1    0    0    0 -0.16935136278E+02  0.91263692249E+01 -0.21115802859E+02  0.96434871148E+02  0.92107099547E+02 0.  0.
         13    1    3    3    0    0  0.32325422565E+02 -0.16321967412E+02 -0.19126802342E+02  0.40953452798E+02  0.10566000000E+00 0. -1.
         22    1    1    0    0    0  0.16935136278E+02 -0.91263692249E+01  0.21115802859E+02  0.28565128852E+02  0.00000000000E+00 0.  1.
</event>
<event>
 5    1  0.6835449E-004  0.9118800E+02  0.7818608E-02  0.1130116E+00
         25   -1    0    0    0    0  0.00000000000E+00  0.00000000000E+00  0.99999998245E-14  0.12500000000E+03  0.12500000000E+03 0.  0.
        -13    1    3    3    0    0  0.26268420587E+02  0.39597758865E+02 -0.25492276595E+02  0.53924760151E+02  0.10566000000E+00 0. -1.
         23    2    1    0    0    0 -0.34723835500E+01  0.29944831979E+02  0.89796160234E+00  0.94841141520E+02  0.89918214951E+02 0.  0.
         13    1    3    3    0    0 -0.29740804137E+02 -0.96529268864E+01  0.26390238198E+02  0.40916381369E+02  0.10566000000E+00 0.  1.
         22    1    1    0    0    0  0.34723835500E+01 -0.29944831979E+02 -0.89796160234E+00  0.30158858480E+02  0.00000000000E+00 0.  1.
</event>
<event>
 5    1  0.6835449E-004  0.9118800E+02  0.7818608E-02  0.1130116E+00
         25   -1    0    0    0    0  0.00000000000E+00  0.00000000000E+00  0.99999998245E-14  0.12500000000E+03  0.12500000000E+03 0.  0.
        -13    1    3    3    0    0  0.27691071480E+02  0.41007666249E+02  0.48552767172E+00  0.49484048259E+02  0.10566000000E+00 0. -1.
         23    2    1    0    0    0 -0.75316590845E+01 -0.28480936714E+00 -0.16916751623E+02  0.10648018655E+03  0.10485726792E+03 0.  0.
         13    1    3    3    0    0 -0.35222730565E+02 -0.41292475616E+02 -0.17402279294E+02  0.56996138287E+02  0.10566000000E+00 0.  1.
         22    1    1    0    0    0  0.75316590845E+01  0.28480936714E+00  0.16916751623E+02  0.18519813455E+02  0.00000000000E+00 0.  1.
</event>
<event>
 5    1  0.6835449E-004  0.9118800E+02  0.7818608E-02  0.1130116E+00
         25   -1    0    0    0    0  0.00000000000E+00  0.00000000000E+00  0.99999998245E-14  0.12500000000E+03  0.12500000000E+03 0.  0.
        -13    1    3    3    0    0  0.21508270014E+02  0.33671757158E+02  0.16800266345E+02  0.43343431133E+02  0.10566000000E+00 0. -1.
         23    2    1    0    0    0 -0.25016833068E+02  0.13363458431E+02  0.59590746116E+00  0.96631371840E+02  0.92373388808E+02 0.  0.
         13    1    3    3    0    0 -0.46525103082E+02 -0.20308298726E+02 -0.16204358884E+02  0.53287940707E+02  0.10566000000E+00 0.  1.
         22    1    1    0    0    0  0.25016833068E+02 -0.13363458431E+02 -0.59590746116E+00  0.28368628160E+02  0.00000000000E+00 0.  1.
</event>
<event>
 5    1  0.6835449E-004  0.9118800E+02  0.7818608E-02  0.1130116E+00
         25   -1    0    0    0    0  0.00000000000E+00  0.00000000000E+00  0.99999998245E-14  0.12500000000E+03  0.12500000000E+03 0.  0.
        -13    1    3    3    0    0  0.27543422903E+02  0.55250142004E+02  0.92202675002E+01  0.62419891329E+02  0.10566000000E+00 0.  1.
         23    2    1    0    0    0  0.13488853992E+02  0.26446162627E+02  0.21914716712E+01  0.95231707341E+02  0.90459531479E+02 0.  0.
         13    1    3    3    0    0 -0.14054568911E+02 -0.28803979377E+02 -0.70287958290E+01  0.32811816013E+02  0.10566000000E+00 0. -1.
         22    1    1    0    0    0 -0.13488853992E+02 -0.26446162627E+02 -0.21914716712E+01  0.29768292659E+02  0.00000000000E+00 0.  1.
</event>
<event>
 5    1  0.6835449E-004  0.9118800E+02  0.7818608E-02  0.1130116E+00
         25   -1    0    0    0    0  0.00000000000E+00  0.00000000000E+00  0.99999998245E-14  0.12500000000E+03  0.12500000000E+03 0.  0.
        -13    1    3    3    0    0 -0.40008652049E+02 -0.45705838023E+02  0.11720176502E+02  0.61863475245E+02  0.10566000000E+00 0.  1.
         23    2    1    0    0    0 -0.18204932443E+02 -0.18586410742E+02  0.11225790202E+02  0.96664640550E+02  0.92418397181E+02 0.  0.
         13    1    3    3    0    0  0.21803719606E+02  0.27119427281E+02 -0.49438629966E+00  0.34801165305E+02  0.10566000000E+00 0. -1.
         22    1    1    0    0    0  0.18204932443E+02  0.18586410742E+02 -0.11225790202E+02  0.28335359450E+02  0.00000000000E+00 0.  1.
</event>
<event>
 5    1  0.6835449E-004  0.9118800E+02  0.7818608E-02  0.1130116E+00
         25   -1    0    0    0    0  0.00000000000E+00  0.00000000000E+00  0.99999998245E-14  0.12500000000E+03  0.12500000000E+03 0.  0.
        -13    1    3    3    0    0 -0.35928920141E+01 -0.27161214163E+02  0.51808658722E+02  0.58607070482E+02  0.10566000000E+00 0.  1.
         23    2    1    0    0    0  0.80929188916E+01 -0.23802956887E+02  0.19331085173E+02  0.93286171049E+02  0.87729942222E+02 0.  0.
         13    1    3    3    0    0  0.11685810906E+02  0.33582572757E+01 -0.32477573549E+02  0.34679100567E+02  0.10566000000E+00 0. -1.
         22    1    1    0    0    0 -0.80929188916E+01  0.23802956887E+02 -0.19331085173E+02  0.31713828951E+02  0.00000000000E+00 0.  1.
</event>
<event>
 5    1  0.6835449E-004  0.9118800E+02  0.7818608E-02  0.1130116E+00
         25   -1    0    0    0    0  0.00000000000E+00  0.00000000000E+00  0.99999998245E-14  0.12500000000E+03  0.12500000000E+03 0.  0.
        -13    1    3    3    0    0  0.11100336013E+02 -0.33015746060E+02  0.82574347392E+01  0.35797392922E+02  0.10566000000E+00 0.  1.
         23    2    1    0    0    0  0.41473624406E+01  0.26706144300E+02  0.10602413305E+02  0.95968466687E+02  0.91471944726E+02 0.  0.
         13    1    3    3    0    0 -0.69529735727E+01  0.59721890359E+02  0.23449785662E+01  0.60171073766E+02  0.10566000000E+00 0. -1.
         22    1    1    0    0    0 -0.41473624406E+01 -0.26706144300E+02 -0.10602413305E+02  0.29031533313E+02  0.00000000000E+00 0. -1.
</event>
<event>
 5    1  0.6835449E-004  0.9118800E+02  0.7818608E-02  0.1130116E+00
         25   -1    0    0    0    0  0.00000000000E+00  0.00000000000E+00  0.99999998245E-14  0.12500000000E+03  0.12500000000E+03 0.  0.
        -13    1    3    3    0    0 -0.14089373250E+02 -0.37415426854E+02 -0.39809704330E+02  0.56420282950E+02  0.10566000000E+00 0.  1.
         23    2    1    0    0    0 -0.22389546018E+02 -0.14166249138E+02 -0.67883322840E+01  0.97649390487E+02  0.93740853536E+02 0.  0.
         13    1    3    3    0    0 -0.83001727683E+01  0.23249177716E+02  0.33021372046E+02  0.41229107537E+02  0.10566000000E+00 0. -1.
         22    1    1    0    0    0  0.22389546018E+02  0.14166249138E+02  0.67883322840E+01  0.27350609513E+02  0.00000000000E+00 0.  1.
</event>
<event>
 5    1  0.6835449E-004  0.9118800E+02  0.7818608E-02  0.1130116E+00
         25   -1    0    0    0    0  0.00000000000E+00  0.00000000000E+00  0.99999998245E-14  0.12500000000E+03  0.12500000000E+03 0.  0.
        -13    1    3    3    0    0  0.54704077280E+02 -0.32660806013E+01  0.12002286524E+02  0.56100529404E+02  0.10566000000E+00 0. -1.
         23    2    1    0    0    0  0.21175798619E+02 -0.16132652290E+02  0.18481172446E+02  0.92592737665E+02  0.86736292382E+02 0.  0.
         13    1    3    3    0    0 -0.33528278660E+02 -0.12866571689E+02  0.64788859220E+01  0.36492208261E+02  0.10566000000E+00 0.  1.
         22    1    1    0    0    0 -0.21175798619E+02  0.16132652290E+02 -0.18481172446E+02  0.32407262335E+02  0.00000000000E+00 0. -1.
</event>
<event>
 5    1  0.6835449E-004  0.9118800E+02  0.7818608E-02  0.1130116E+00
         25   -1    0    0    0    0  0.00000000000E+00  0.00000000000E+00  0.99999998245E-14  0.12500000000E+03  0.12500000000E+03 0.  0.
        -13    1    3    3    0    0  0.14908279071E+01 -0.24919670755E+02  0.22669635868E+02  0.33721448854E+02  0.10566000000E+00 0. -1.
         23    2    1    0    0    0  0.93602971195E+01  0.16297540035E+02 -0.22705503788E+02  0.95525182348E+02  0.90864160080E+02 0.  0.
         13    1    3    3    0    0  0.78694692124E+01  0.41217210790E+02 -0.45375139656E+02  0.61803733494E+02  0.10566000000E+00 0.  1.
         22    1    1    0    0    0 -0.93602971195E+01 -0.16297540035E+02  0.22705503788E+02  0.29474817652E+02  0.00000000000E+00 0.  1.
</event>
<event>
 5    1  0.6835449E-004  0.9118800E+02  0.7818608E-02  0.1130116E+00
         25   -1    0    0    0    0  0.00000000000E+00  0.00000000000E+00  0.99999998245E-14  0.12500000000E+03  0.12500000000E+03 0.  0.
        -13    1    3    3    0    0  0.21303258354E+01  0.32461080825E+02  0.66199022721E+01  0.33197806051E+02  0.10566000000E+00 0. -1.
         23    2    1    0    0    0  0.26874888256E+01 -0.11399649012E+02 -0.31551138651E+02  0.91345149770E+02  0.84919299589E+02 0.  0.
         13    1    3    3    0    0  0.55716299019E+00 -0.43860729836E+02 -0.38171040923E+02  0.58147343719E+02  0.10566000000E+00 0.  1.
         22    1    1    0    0    0 -0.26874888256E+01  0.11399649012E+02  0.31551138651E+02  0.33654850230E+02  0.00000000000E+00 0.  1.
</event>
<event>
 5    1  0.6835449E-004  0.9118800E+02  0.7818608E-02  0.1130116E+00
         25   -1    0    0    0    0  0.00000000000E+00  0.00000000000E+00  0.99999998245E-14  0.12500000000E+03  0.12500000000E+03 0.  0.
        -13    1    3    3    0    0  0.35810705080E+02  0.49307287088E+01  0.26795489399E+02  0.44996978788E+02  0.10566000000E+00 0. -1.
         23    2    1    0    0    0  0.21703195460E+02 -0.13207298517E+02 -0.16983586182E+02  0.94440163173E+02  0.89359055463E+02 0.  0.
         13    1    3    3    0    0 -0.14107509620E+02 -0.18138027226E+02 -0.43779075581E+02  0.49443184384E+02  0.10566000000E+00 0.  1.
         22    1    1    0    0    0 -0.21703195460E+02  0.13207298517E+02  0.16983586182E+02  0.30559836827E+02  0.00000000000E+00 0.  1.
</event>
<event>
 5    1  0.6835449E-004  0.9118800E+02  0.7818608E-02  0.1130116E+00
         25   -1    0    0    0    0  0.00000000000E+00  0.00000000000E+00  0.99999998245E-14  0.12500000000E+03  0.12500000000E+03 0.  0.
        -13    1    3    3    0    0 -0.51858146074E+01  0.50635108105E+02  0.68235616549E+01  0.51355418445E+02  0.10566000000E+00 0.  1.
         23    2    1    0    0    0 -0.23946801175E+02  0.11208782656E+02  0.13143644252E+02  0.95473038095E+02  0.90792397940E+02 0.  0.
         13    1    3    3    0    0 -0.18760986568E+02 -0.39426325450E+02  0.63200825969E+01  0.44117619649E+02  0.10566000000E+00 0. -1.
         22    1    1    0    0    0  0.23946801175E+02 -0.11208782656E+02 -0.13143644252E+02  0.29526961905E+02  0.00000000000E+00 0.  1.
</event>
<event>
 5    1  0.6835449E-004  0.9118800E+02  0.7818608E-02  0.1130116E+00
         25   -1    0    0    0    0  0.00000000000E+00  0.00000000000E+00  0.99999998245E-14  0.12500000000E+03  0.12500000000E+03 0.  0.
        -13    1    3    3    0    0 -0.22933904012E+02  0.17110778271E+02 -0.51304961400E+02  0.58744811809E+02  0.10566000000E+00 0.  1.
         23    2    1    0    0    0  0.11829114057E+01  0.17600900777E+02 -0.24563110994E+02  0.94758680431E+02  0.89803508326E+02 0.  0.
         13    1    3    3    0    0  0.24116815417E+02  0.49012250576E+00  0.26741850405E+02  0.36013868622E+02  0.10566000000E+00 0. -1.
         22    1    1    0    0    0 -0.11829114057E+01 -0.17600900777E+02  0.24563110994E+02  0.30241319569E+02  0.00000000000E+00 0.  1.
</event>
<event>
 5    1  0.6835449E-004  0.9118800E+02  0.7818608E-02  0.1130116E+00
         25   -1    0    0    0    0  0.00000000000E+00  0.00000000000E+00  0.99999998245E-14  0.12500000000E+03  0.12500000000E+03 0.  0.
        -13    1    3    3    0    0  0.20468591782E+02  0.20118672843E+02  0.26718980075E+02  0.39212744189E+02  0.10566000000E+00 0. -1.
         23    2    1    0    0    0  0.34138896126E+02 -0.14359516578E+02 -0.44993201829E+01  0.87691772661E+02  0.79359581434E+02 0.  0.
         13    1    3    3    0    0  0.13670304344E+02 -0.34478189421E+02 -0.31218300258E+02  0.48479028473E+02  0.10566000000E+00 0.  1.
         22    1    1    0    0    0 -0.34138896126E+02  0.14359516578E+02  0.44993201829E+01  0.37308227339E+02  0.00000000000E+00 0. -1.
</event>
<event>
 5    1  0.6835449E-004  0.9118800E+02  0.7818608E-02  0.1130116E+00
         25   -1    0    0    0    0  0.00000000000E+00  0.00000000000E+00  0.99999998245E-14  0.12500000000E+03  0.12500000000E+03 0.  0.
        -13    1    3    3    0    0  0.53019057942E+01 -0.42275598420E+02 -0.32198282071E+02  0.53404840223E+02  0.10566000000E+00 0.  1.
         23    2    1    0    0    0  0.24886533111E+01  0.12267384986E+01 -0.27623437850E+02  0.97237568527E+02  0.93190086017E+02 0.  0.
         13    1    3    3    0    0 -0.28132524831E+01  0.43502336919E+02  0.45748442213E+01  0.43832728305E+02  0.10566000000E+00 0. -1.
         22    1    1    0    0    0 -0.24886533111E+01 -0.12267384986E+01  0.27623437850E+02  0.27762431473E+02  0.00000000000E+00 0. -1.
</event>
<event>
 5    1  0.6835449E-004  0.9118800E+02  0.7818608E-02  0.1130116E+00
         25   -1    0    0    0    0  0.00000000000E+00  0.00000000000E+00  0.99999998245E-14  0.12500000000E+03  0.12500000000E+03 0.  0.
        -13    1    3    3    0    0 -0.35213760242E+01  0.33254749348E+02  0.27998433202E+02  0.43614239293E+02  0.10566000000E+00 0.  1.
         23    2    1    0    0    0 -0.10931710504E+02 -0.17613518242E+02  0.20996499525E+02  0.95494215623E+02  0.90821549787E+02 0.  0.
         13    1    3    3    0    0 -0.74103344803E+01 -0.50868267590E+02 -0.70019336772E+01  0.51879976330E+02  0.10566000000E+00 0. -1.
         22    1    1    0    0    0  0.10931710504E+02  0.17613518242E+02 -0.20996499525E+02  0.29505784377E+02  0.00000000000E+00 0. -1.
</event>
<event>
 5    1  0.6835449E-004  0.9118800E+02  0.7818608E-02  0.1130116E+00
         25   -1    0    0    0    0  0.00000000000E+00  0.00000000000E+00  0.99999998245E-14  0.12500000000E+03  0.12500000000E+03 0.  0.
        -13    1    3    3    0    0  0.45313047980E+02 -0.42228772049E+02 -0.48481228646E+01  0.62129356711E+02  0.10566000000E+00 0.  1.
         23    2    1    0    0    0  0.24372308332E+02 -0.16232699473E+02 -0.14992058628E+01  0.95678377197E+02  0.91074663322E+02 0.  0.
         13    1    3    3    0    0 -0.20940739648E+02  0.25996072576E+02  0.33489170018E+01  0.33549020485E+02  0.10566000000E+00 0. -1.
         22    1    1    0    0    0 -0.24372308332E+02  0.16232699473E+02  0.14992058628E+01  0.29321622803E+02  0.00000000000E+00 0.  1.
</event>
<event>
 5    1  0.6835449E-004  0.9118800E+02  0.7818608E-02  0.1130116E+00
         25   -1    0    0    0    0  0.00000000000E+00  0.00000000000E+00  0.99999998245E-14  0.12500000000E+03  0.12500000000E+03 0.  0.
        -13    1    3    3    0    0 -0.28143135056E+02 -0.51763870614E+01  0.18613293451E+02  0.34136445201E+02  0.10566000000E+00 0. -1.
         23    2    1    0    0    0  0.29859600634E+02  0.40119981059E+01  0.44627153080E+01  0.94543347086E+02  0.89503277992E+02 0.  0.
         13    1    3    3    0    0  0.58002735690E+02  0.91883851672E+01 -0.14150578143E+02  0.60406901885E+02  0.10566000000E+00 0.  1.
         22    1    1    0    0    0 -0.29859600634E+02 -0.40119981059E+01 -0.44627153080E+01  0.30456652914E+02  0.00000000000E+00 0.  1.
</event>
<event>
 5    1  0.6835449E-004  0.9118800E+02  0.7818608E-02  0.1130116E+00
         25   -1    0    0    0    0  0.00000000000E+00  0.00000000000E+00  0.99999998245E-14  0.12500000000E+03  0.12500000000E+03 0.  0.
        -13    1    3    3    0    0  0.29137205731E+01  0.28597187964E+02  0.20378414397E+02  0.35236059150E+02  0.10566000000E+00 0.  1.
         23    2    1    0    0    0  0.20949398352E+02 -0.19217894713E+02 -0.10208291531E+02  0.94793808838E+02  0.89852391229E+02 0.  0.
         13    1    3    3    0    0  0.18035677779E+02 -0.47815082677E+02 -0.30586705928E+02  0.59557749688E+02  0.10566000000E+00 0. -1.
         22    1    1    0    0    0 -0.20949398352E+02  0.19217894713E+02  0.10208291531E+02  0.30206191162E+02  0.00000000000E+00 0. -1.
</event>
<event>
 5    1  0.6835449E-004  0.9118800E+02  0.7818608E-02  0.1130116E+00
         25   -1    0    0    0    0  0.00000000000E+00  0.00000000000E+00  0.99999998245E-14  0.12500000000E+03  0.12500000000E+03 0.  0.
        -13    1    3    3    0    0 -0.18439922817E+01  0.27301340408E+02  0.37286234524E+02  0.46249734536E+02  0.10566000000E+00 0.  1.
         23    2    1    0    0    0  0.67220066240E+01  0.25992912717E+02 -0.11494936079E+02  0.95794684730E+02  0.91234155789E+02 0.  0.
         13    1    3    3    0    0  0.85659989057E+01 -0.13084276905E+01 -0.48781170603E+02  0.49544950194E+02  0.10566000000E+00 0. -1.
         22    1    1    0    0    0 -0.67220066240E+01 -0.25992912717E+02  0.11494936079E+02  0.29205315270E+02  0.00000000000E+00 0. -1.
</event>
<event>
 5    1  0.6835449E-004  0.9118800E+02  0.7818608E-02  0.1130116E+00
         25   -1    0    0    0    0  0.00000000000E+00  0.00000000000E+00  0.99999998245E-14  0.12500000000E+03  0.12500000000E+03 0.  0.
        -13    1    3    3    0    0  0.15398324584E+02 -0.28157833221E+02 -0.14834214008E+02  0.35355862894E+02  0.10566000000E+00 0. -1.
         23    2    1    0    0    0 -0.21476631787E+02  0.18891463326E+02 -0.58430269110E+01  0.95806266717E+02  0.91250022900E+02 0.  0.
         13    1    3    3    0    0 -0.36874956371E+02  0.47049296547E+02  0.89911870974E+01  0.60450403823E+02  0.10566000000E+00 0.  1.
         22    1    1    0    0    0  0.21476631787E+02 -0.18891463326E+02  0.58430269110E+01  0.29193733283E+02  0.00000000000E+00 0.  1.
</event>
<event>
 5    1  0.6835449E-004  0.9118800E+02  0.7818608E-02  0.1130116E+00
         25   -1    0    0    0    0  0.00000000000E+00  0.00000000000E+00  0.99999998245E-14  0.12500000000E+03  0.12500000000E+03 0.  0.
        -13    1    3    3    0    0  0.14993365070E+02  0.31156694552E+02  0.29336465050E+01  0.34700980640E+02  0.10566000000E+00 0.  1.
         23    2    1    0    0    0 -0.25123084905E+02 -0.19107277354E+01 -0.21250673784E+02  0.92039244367E+02  0.85934923586E+02 0.  0.
         13    1    3    3    0    0 -0.40116449975E+02 -0.33067422288E+02 -0.24184320289E+02  0.57338263727E+02  0.10566000000E+00 0. -1.
         22    1    1    0    0    0  0.25123084905E+02  0.19107277354E+01  0.21250673784E+02  0.32960755633E+02  0.00000000000E+00 0. -1.
</event>
<event>
 5    1  0.6835449E-004  0.9118800E+02  0.7818608E-02  0.1130116E+00
         25   -1    0    0    0    0  0.00000000000E+00  0.00000000000E+00  0.99999998245E-14  0.12500000000E+03  0.12500000000E+03 0.  0.
        -13    1    3    3    0    0 -0.23165691670E+02  0.30386723176E+02  0.16307963288E+02  0.41544711415E+02  0.10566000000E+00 0.  1.
         23    2    1    0    0    0  0.23973037410E+02  0.42544049236E+01  0.16755033614E+02  0.95444329896E+02  0.90752864825E+02 0.  0.
         13    1    3    3    0    0  0.47138729080E+02 -0.26132318252E+02  0.44707032621E+00  0.53899618481E+02  0.10566000000E+00 0. -1.
         22    1    1    0    0    0 -0.23973037410E+02 -0.42544049236E+01 -0.16755033614E+02  0.29555670104E+02  0.00000000000E+00 0. -1.
</event>
<event>
 5    1  0.6835449E-004  0.9118800E+02  0.7818608E-02  0.1130116E+00
         25   -1    0    0    0    0  0.00000000000E+00  0.00000000000E+00  0.99999998245E-14  0.12500000000E+03  0.12500000000E+03 0.  0.
        -13    1    3    3    0    0  0.29733847169E+02 -0.74629833981E+01  0.17119601804E+02  0.35112529368E+02  0.10566000000E+00 0. -1.
         23    2    1    0    0    0 -0.15596045122E+02  0.20427702409E+02 -0.12927102776E+02  0.96231308070E+02  0.91830425337E+02 0.  0.
         13    1    3    3    0    0 -0.45329892291E+02  0.27890685807E+02 -0.30046704580E+02  0.61118778702E+02  0.10566000000E+00 0.  1.
         22    1    1    0    0    0  0.15596045122E+02 -0.20427702409E+02  0.12927102776E+02  0.28768691930E+02  0.00000000000E+00 0.  1.
</event>
<event>
 5    1  0.6835449E-004  0.9118800E+02  0.7818608E-02  0.1130116E+00
         25   -1    0    0    0    0  0.00000000000E+00  0.00000000000E+00  0.99999998245E-14  0.12500000000E+03  0.12500000000E+03 0.  0.
        -13    1    3    3    0    0  0.32411414062E+02 -0.51465563220E+01 -0.18850066060E+02  0.37846042831E+02  0.10566000000E+00 0. -1.
         23    2    1    0    0    0 -0.16980132417E+02 -0.24708801477E+02 -0.15927680352E+02  0.91050909162E+02  0.84485071406E+02 0.  0.
         13    1    3    3    0    0 -0.49391546479E+02 -0.19562245155E+02  0.29223857083E+01  0.53204866331E+02  0.10566000000E+00 0.  1.
         22    1    1    0    0    0  0.16980132417E+02  0.24708801477E+02  0.15927680352E+02  0.33949090838E+02  0.00000000000E+00 0. -1.
</event>
<event>
 5    1  0.6835449E-004  0.9118800E+02  0.7818608E-02  0.1130116E+00
         25   -1    0    0    0    0  0.00000000000E+00  0.00000000000E+00  0.99999998245E-14  0.12500000000E+03  0.12500000000E+03 0.  0.
        -13    1    3    3    0    0 -0.15615424487E+02  0.19049209839E+02 -0.31096144183E+02  0.39669827634E+02  0.10566000000E+00 0.  1.
         23    2    1    0    0    0 -0.18240249368E+02 -0.14835499132E+02  0.15126765981E+02  0.97042571997E+02  0.92928160421E+02 0.  0.
         13    1    3    3    0    0 -0.26248248807E+01 -0.33884708971E+02  0.46222910164E+02  0.57372744363E+02  0.10566000000E+00 0. -1.
         22    1    1    0    0    0  0.18240249368E+02  0.14835499132E+02 -0.15126765981E+02  0.27957428003E+02  0.00000000000E+00 0. -1.
</event>
<event>
 5    1  0.6835449E-004  0.9118800E+02  0.7818608E-02  0.1130116E+00
         25   -1    0    0    0    0  0.00000000000E+00  0.00000000000E+00  0.99999998245E-14  0.12500000000E+03  0.12500000000E+03 0.  0.
        -13    1    3    3    0    0 -0.11952354407E+02 -0.37648455954E+02  0.66949496990E+01  0.40063680898E+02  0.10566000000E+00 0. -1.
         23    2    1    0    0    0  0.92714019003E+01  0.11206063844E+02  0.24738860424E+02  0.96302509253E+02  0.91927293625E+02 0.  0.
         13    1    3    3    0    0  0.21223756307E+02  0.48854519798E+02  0.18043910725E+02  0.56238828355E+02  0.10566000000E+00 0.  1.
         22    1    1    0    0    0 -0.92714019003E+01 -0.11206063844E+02 -0.24738860424E+02  0.28697490747E+02  0.00000000000E+00 0.  1.
</event>
<event>
 5    1  0.6835449E-004  0.9118800E+02  0.7818608E-02  0.1130116E+00
         25   -1    0    0    0    0  0.00000000000E+00  0.00000000000E+00  0.99999998245E-14  0.12500000000E+03  0.12500000000E+03 0.  0.
        -13    1    3    3    0    0 -0.17023495136E+02 -0.34340468901E+02 -0.38063648687E+02  0.54017772135E+02  0.10566000000E+00 0.  1.
         23    2    1    0    0    0 -0.10646915852E+02  0.47556740094E+01 -0.27672701783E+02  0.94970819585E+02  0.90098306845E+02 0.  0.
         13    1    3    3    0    0  0.63765792840E+01  0.39096142911E+02  0.10390946904E+02  0.40953047450E+02  0.10566000000E+00 0. -1.
         22    1    1    0    0    0  0.10646915852E+02 -0.47556740094E+01  0.27672701783E+02  0.30029180415E+02  0.00000000000E+00 0.  1.
</event>
<event>
 5    1  0.6835449E-004  0.9118800E+02  0.7818608E-02  0.1130116E+00
         25   -1    0    0    0    0  0.00000000000E+00  0.00000000000E+00  0.99999998245E-14  0.12500000000E+03  0.12500000000E+03 0.  0.
        -13    1    3    3    0    0 -0.13235536632E+01  0.19751654010E+02  0.29510479487E+02  0.35535323187E+02  0.10566000000E+00 0.  1.
         23    2    1    0    0    0  0.77474550124E+01  0.78281360494E+01 -0.27971799460E+02  0.94937991780E+02  0.90052750902E+02 0.  0.
         13    1    3    3    0    0  0.90710086756E+01 -0.11923517961E+02 -0.57482278947E+02  0.59402668593E+02  0.10566000000E+00 0. -1.
         22    1    1    0    0    0 -0.77474550124E+01 -0.78281360494E+01  0.27971799460E+02  0.30062008220E+02  0.00000000000E+00 0. -1.
</event>
<event>
 5    1  0.6835449E-004  0.9118800E+02  0.7818608E-02  0.1130116E+00
         25   -1    0    0    0    0  0.00000000000E+00  0.00000000000E+00  0.99999998245E-14  0.12500000000E+03  0.12500000000E+03 0.  0.
        -13    1    3    3    0    0  0.17756761121E+02 -0.12853061889E+02  0.38033404885E+02  0.43898232500E+02  0.10566000000E+00 0. -1.
         23    2    1    0    0    0 -0.25181831708E+02  0.40054796638E+01  0.13873571158E+02  0.95971660534E+02  0.91476309137E+02 0.  0.
         13    1    3    3    0    0 -0.42938592829E+02  0.16858541552E+02 -0.24159833727E+02  0.52073428034E+02  0.10566000000E+00 0.  1.
         22    1    1    0    0    0  0.25181831708E+02 -0.40054796638E+01 -0.13873571158E+02  0.29028339466E+02  0.00000000000E+00 0. -1.
</event>
<event>
 5    1  0.6835449E-004  0.9118800E+02  0.7818608E-02  0.1130116E+00
         25   -1    0    0    0    0  0.00000000000E+00  0.00000000000E+00  0.99999998245E-14  0.12500000000E+03  0.12500000000E+03 0.  0.
        -13    1    3    3    0    0  0.11601437193E+02  0.33632515181E+02  0.17287580269E+02  0.39555164239E+02  0.10566000000E+00 0.  1.
         23    2    1    0    0    0 -0.19618562799E+02  0.49441597645E+01 -0.20389351966E+02  0.96276170248E+02  0.91891471649E+02 0.  0.
         13    1    3    3    0    0 -0.31219999992E+02 -0.28688355416E+02 -0.37676932235E+02  0.56721006009E+02  0.10566000000E+00 0. -1.
         22    1    1    0    0    0  0.19618562799E+02 -0.49441597645E+01  0.20389351966E+02  0.28723829752E+02  0.00000000000E+00 0. -1.
</event>
<event>
 5    1  0.6835449E-004  0.9118800E+02  0.7818608E-02  0.1130116E+00
         25   -1    0    0    0    0  0.00000000000E+00  0.00000000000E+00  0.99999998245E-14  0.12500000000E+03  0.12500000000E+03 0.  0.
        -13    1    3    3    0    0 -0.21544841385E+02 -0.30528366876E+02 -0.10380975008E+02  0.38780628935E+02  0.10566000000E+00 0.  1.
         23    2    1    0    0    0  0.31609356700E+01  0.19460733499E+02 -0.21702238559E+02  0.95679378910E+02  0.91076038163E+02 0.  0.
         13    1    3    3    0    0  0.24705777055E+02  0.49989100375E+02 -0.11321263551E+02  0.56898749975E+02  0.10566000000E+00 0. -1.
         22    1    1    0    0    0 -0.31609356700E+01 -0.19460733499E+02  0.21702238559E+02  0.29320621090E+02  0.00000000000E+00 0. -1.
</event>
<event>
 5    1  0.6835449E-004  0.9118800E+02  0.7818608E-02  0.1130116E+00
         25   -1    0    0    0    0  0.00000000000E+00  0.00000000000E+00  0.99999998245E-14  0.12500000000E+03  0.12500000000E+03 0.  0.
        -13    1    3    3    0    0  0.24758938115E+02  0.25620323552E+02  0.10327785458E+02  0.37095556500E+02  0.10566000000E+00 0.  1.
         23    2    1    0    0    0 -0.26286967139E+02 -0.55843197090E+01  0.79666560708E+01  0.96970428527E+02  0.92831067708E+02 0.  0.
         13    1    3    3    0    0 -0.51045905254E+02 -0.31204643261E+02 -0.23611293876E+01  0.59874872028E+02  0.10566000000E+00 0. -1.
         22    1    1    0    0    0  0.26286967139E+02  0.55843197090E+01 -0.79666560708E+01  0.28029571473E+02  0.00000000000E+00 0. -1.
</event>
<event>
 5    1  0.6835449E-004  0.9118800E+02  0.7818608E-02  0.1130116E+00
         25   -1    0    0    0    0  0.00000000000E+00  0.00000000000E+00  0.99999998245E-14  0.12500000000E+03  0.12500000000E+03 0.  0.
        -13    1    3    3    0    0  0.64628321752E+01 -0.12161185376E+02  0.45982583397E+02  0.48000747592E+02  0.10566000000E+00 0.  1.
         23    2    1    0    0    0  0.16043353925E+02 -0.72143246424E+01 -0.98324256289E+01  0.10484777236E+03  0.10289287191E+03 0.  0.
         13    1    3    3    0    0  0.95805217494E+01  0.49468607333E+01 -0.55815009026E+02  0.56847024766E+02  0.10566000000E+00 0. -1.
         22    1    1    0    0    0 -0.16043353925E+02  0.72143246424E+01  0.98324256289E+01  0.20152227642E+02  0.00000000000E+00 0.  1.
</event>
<event>
 5    1  0.6835449E-004  0.9118800E+02  0.7818608E-02  0.1130116E+00
         25   -1    0    0    0    0  0.00000000000E+00  0.00000000000E+00  0.99999998245E-14  0.12500000000E+03  0.12500000000E+03 0.  0.
        -13    1    3    3    0    0 -0.38937444540E+02 -0.11434497739E+02 -0.96869211241E+01  0.41721935846E+02  0.10566000000E+00 0. -1.
         23    2    1    0    0    0  0.96732014994E+01 -0.19850648682E+01 -0.28609101994E+02  0.94734639822E+02  0.89770039298E+02 0.  0.
         13    1    3    3    0    0  0.48610646039E+02  0.94494328713E+01 -0.18922180870E+02  0.53012703976E+02  0.10566000000E+00 0.  1.
         22    1    1    0    0    0 -0.96732014994E+01  0.19850648682E+01  0.28609101994E+02  0.30265360178E+02  0.00000000000E+00 0.  1.
</event>
<event>
 5    1  0.6835449E-004  0.9118800E+02  0.7818608E-02  0.1130116E+00
         25   -1    0    0    0    0  0.00000000000E+00  0.00000000000E+00  0.99999998245E-14  0.12500000000E+03  0.12500000000E+03 0.  0.
        -13    1    3    3    0    0  0.82312395772E+01  0.32164870105E+02 -0.80911128307E+01  0.34173227017E+02  0.10566000000E+00 0. -1.
         23    2    1    0    0    0 -0.19116616511E+02 -0.14625247469E+02  0.18595891491E+02  0.94583720302E+02  0.89559645351E+02 0.  0.
         13    1    3    3    0    0 -0.27347856088E+02 -0.46790117574E+02  0.26687004321E+02  0.60410493285E+02  0.10566000000E+00 0.  1.
         22    1    1    0    0    0  0.19116616511E+02  0.14625247469E+02 -0.18595891491E+02  0.30416279698E+02  0.00000000000E+00 0.  1.
</event>
<event>
 5    1  0.6835449E-004  0.9118800E+02  0.7818608E-02  0.1130116E+00
         25   -1    0    0    0    0  0.00000000000E+00  0.00000000000E+00  0.99999998245E-14  0.12500000000E+03  0.12500000000E+03 0.  0.
        -13    1    3    3    0    0  0.17228571867E+02 -0.14187252831E+02  0.25608935865E+02  0.33969553892E+02  0.10566000000E+00 0.  1.
         23    2    1    0    0    0 -0.10920200631E+02  0.22492018562E+01 -0.26960655196E+02  0.95824897268E+02  0.91275540628E+02 0.  0.
         13    1    3    3    0    0 -0.28148772498E+02  0.16436454688E+02 -0.52569591061E+02  0.61855343376E+02  0.10566000000E+00 0. -1.
         22    1    1    0    0    0  0.10920200631E+02 -0.22492018562E+01  0.26960655196E+02  0.29175102732E+02  0.00000000000E+00 0. -1.
</event>
<event>
 5    1  0.6835449E-004  0.9118800E+02  0.7818608E-02  0.1130116E+00
         25   -1    0    0    0    0  0.00000000000E+00  0.00000000000E+00  0.99999998245E-14  0.12500000000E+03  0.12500000000E+03 0.  0.
        -13    1    3    3    0    0 -0.74990611754E-01 -0.34305229039E+02  0.38982714712E+02  0.51928003749E+02  0.10566000000E+00 0.  1.
         23    2    1    0    0    0  0.11066081309E+02  0.66615431732E+01  0.25403088958E+02  0.96501732656E+02  0.92197793705E+02 0.  0.
         13    1    3    3    0    0  0.11141071920E+02  0.40966772212E+02 -0.13579625754E+02  0.44573728907E+02  0.10566000000E+00 0. -1.
         22    1    1    0    0    0 -0.11066081309E+02 -0.66615431732E+01 -0.25403088958E+02  0.28498267344E+02  0.00000000000E+00 0.  1.
</event>
<event>
 5    1  0.6835449E-004  0.9118800E+02  0.7818608E-02  0.1130116E+00
         25   -1    0    0    0    0  0.00000000000E+00  0.00000000000E+00  0.99999998245E-14  0.12500000000E+03  0.12500000000E+03 0.  0.
        -13    1    3    3    0    0 -0.19753157046E+02 -0.28763416345E+01 -0.55960519190E+02  0.59414235891E+02  0.10566000000E+00 0. -1.
         23    2    1    0    0    0 -0.23713301777E+01 -0.13434084699E+02 -0.26221110716E+02  0.95442522339E+02  0.90750375121E+02 0.  0.
         13    1    3    3    0    0  0.17381826869E+02 -0.10557743064E+02  0.29739408474E+02  0.36028286447E+02  0.10566000000E+00 0.  1.
         22    1    1    0    0    0  0.23713301777E+01  0.13434084699E+02  0.26221110716E+02  0.29557477661E+02  0.00000000000E+00 0. -1.
</event>
<event>
 5    1  0.6835449E-004  0.9118800E+02  0.7818608E-02  0.1130116E+00
         25   -1    0    0    0    0  0.00000000000E+00  0.00000000000E+00  0.99999998245E-14  0.12500000000E+03  0.12500000000E+03 0.  0.
        -13    1    3    3    0    0  0.40898967833E+01  0.37272043753E+02 -0.63981633697E+01  0.38037877961E+02  0.10566000000E+00 0.  1.
         23    2    1    0    0    0 -0.25000036528E+02 -0.12591605870E+02 -0.83169449898E+01  0.95798596973E+02  0.91239515798E+02 0.  0.
         13    1    3    3    0    0 -0.29089933312E+02 -0.49863649623E+02 -0.19187816200E+01  0.57760719012E+02  0.10566000000E+00 0. -1.
         22    1    1    0    0    0  0.25000036528E+02  0.12591605870E+02  0.83169449898E+01  0.29201403027E+02  0.00000000000E+00 0. -1.
</event>
<event>
 5    1  0.6835449E-004  0.9118800E+02  0.7818608E-02  0.1130116E+00
         25   -1    0    0    0    0  0.00000000000E+00  0.00000000000E+00  0.99999998245E-14  0.12500000000E+03  0.12500000000E+03 0.  0.
        -13    1    3    3    0    0  0.17033392239E+02  0.30910262829E+02  0.78928642773E+00  0.35301769593E+02  0.10566000000E+00 0.  1.
         23    2    1    0    0    0 -0.20361153925E+02 -0.14900193777E+02  0.14352898054E+02  0.95972460554E+02  0.91477402338E+02 0.  0.
         13    1    3    3    0    0 -0.37394546164E+02 -0.45810456606E+02  0.13563611626E+02  0.60670690961E+02  0.10566000000E+00 0. -1.
         22    1    1    0    0    0  0.20361153925E+02  0.14900193777E+02 -0.14352898054E+02  0.29027539446E+02  0.00000000000E+00 0. -1.
</event>
<event>
 5    1  0.6835449E-004  0.9118800E+02  0.7818608E-02  0.1130116E+00
         25   -1    0    0    0    0  0.00000000000E+00  0.00000000000E+00  0.99999998245E-14  0.12500000000E+03  0.12500000000E+03 0.  0.
        -13    1    3    3    0    0  0.29418549966E+02 -0.61081922625E+01  0.53559519198E+02  0.61411679309E+02  0.10566000000E+00 0.  1.
         23    2    1    0    0    0  0.86086253905E+01 -0.93045764735E+01  0.25817952074E+02  0.96238042073E+02  0.91839591236E+02 0.  0.
         13    1    3    3    0    0 -0.20809924576E+02 -0.31963842110E+01 -0.27741567124E+02  0.34826362764E+02  0.10566000000E+00 0. -1.
         22    1    1    0    0    0 -0.86086253905E+01  0.93045764735E+01 -0.25817952074E+02  0.28761957927E+02  0.00000000000E+00 0.  1.
</event>
<event>
 5    1  0.6835449E-004  0.9118800E+02  0.7818608E-02  0.1130116E+00
         25   -1    0    0    0    0  0.00000000000E+00  0.00000000000E+00  0.99999998245E-14  0.12500000000E+03  0.12500000000E+03 0.  0.
        -13    1    3    3    0    0  0.31882024787E+02  0.31969357718E+02 -0.42169178828E+01  0.45346409977E+02  0.10566000000E+00 0.  1.
         23    2    1    0    0    0 -0.59417350823E+01  0.30289117095E+01 -0.26317897250E+02  0.97850225828E+02  0.94008278661E+02 0.  0.
         13    1    3    3    0    0 -0.37823759869E+02 -0.28940446008E+02 -0.22100979368E+02  0.52503815850E+02  0.10566000000E+00 0. -1.
         22    1    1    0    0    0  0.59417350823E+01 -0.30289117095E+01  0.26317897250E+02  0.27149774172E+02  0.00000000000E+00 0. -1.
</event>
<event>
 5    1  0.6835449E-004  0.9118800E+02  0.7818608E-02  0.1130116E+00
         25   -1    0    0    0    0  0.00000000000E+00  0.00000000000E+00  0.99999998245E-14  0.12500000000E+03  0.12500000000E+03 0.  0.
        -13    1    3    3    0    0 -0.26460976464E+02  0.26387858052E+02 -0.21708925845E+02  0.43217947122E+02  0.10566000000E+00 0. -1.
         23    2    1    0    0    0  0.15686604365E+01 -0.17260743996E+02 -0.24295467964E+02  0.95156009944E+02  0.90354869741E+02 0.  0.
         13    1    3    3    0    0  0.28029636901E+02 -0.43648602049E+02 -0.25865421187E+01  0.51938062822E+02  0.10566000000E+00 0.  1.
         22    1    1    0    0    0 -0.15686604365E+01  0.17260743996E+02  0.24295467964E+02  0.29843990056E+02  0.00000000000E+00 0. -1.
</event>
<event>
 5    1  0.6835449E-004  0.9118800E+02  0.7818608E-02  0.1130116E+00
         25   -1    0    0    0    0  0.00000000000E+00  0.00000000000E+00  0.99999998245E-14  0.12500000000E+03  0.12500000000E+03 0.  0.
        -13    1    3    3    0    0  0.52305206856E+00 -0.33519673133E+02  0.75927752351E+01  0.34373004963E+02  0.10566000000E+00 0.  1.
         23    2    1    0    0    0 -0.13331684573E+02  0.25971732646E+02  0.13399641127E+01  0.95775691386E+02  0.91208129278E+02 0.  0.
         13    1    3    3    0    0 -0.13854736641E+02  0.59491405779E+02 -0.62528111224E+01  0.61402686422E+02  0.10566000000E+00 0. -1.
         22    1    1    0    0    0  0.13331684573E+02 -0.25971732646E+02 -0.13399641127E+01  0.29224308614E+02  0.00000000000E+00 0. -1.
</event>
<event>
 5    1  0.6835449E-004  0.9118800E+02  0.7818608E-02  0.1130116E+00
         25   -1    0    0    0    0  0.00000000000E+00  0.00000000000E+00  0.99999998245E-14  0.12500000000E+03  0.12500000000E+03 0.  0.
        -13    1    3    3    0    0 -0.20186823214E+02 -0.25213281451E+02 -0.89505318147E+00  0.32311448083E+02  0.10566000000E+00 0.  1.
         23    2    1    0    0    0 -0.11764000274E+02  0.32393630681E+02 -0.11163726412E+00  0.90536229544E+02  0.83720113390E+02 0.  0.
         13    1    3    3    0    0  0.84228229405E+01  0.57606912132E+02  0.78341591734E+00  0.58224781461E+02  0.10566000000E+00 0. -1.
         22    1    1    0    0    0  0.11764000274E+02 -0.32393630681E+02  0.11163726412E+00  0.34463770456E+02  0.00000000000E+00 0. -1.
</event>
<event>
 5    1  0.6835449E-004  0.9118800E+02  0.7818608E-02  0.1130116E+00
         25   -1    0    0    0    0  0.00000000000E+00  0.00000000000E+00  0.99999998245E-14  0.12500000000E+03  0.12500000000E+03 0.  0.
        -13    1    3    3    0    0  0.42023692147E+02 -0.39990763881E+02 -0.64577754750E+01  0.58369220704E+02  0.10566000000E+00 0.  1.
         23    2    1    0    0    0  0.85923349291E+01 -0.28328101365E+02  0.36049722227E+01  0.95178776497E+02  0.90386360278E+02 0.  0.
         13    1    3    3    0    0 -0.33431357218E+02  0.11662662516E+02  0.10062747698E+02  0.36809555793E+02  0.10566000000E+00 0. -1.
         22    1    1    0    0    0 -0.85923349291E+01  0.28328101365E+02 -0.36049722227E+01  0.29821223503E+02  0.00000000000E+00 0.  1.
</event>
<event>
 5    1  0.6835449E-004  0.9118800E+02  0.7818608E-02  0.1130116E+00
         25   -1    0    0    0    0  0.00000000000E+00  0.00000000000E+00  0.99999998245E-14  0.12500000000E+03  0.12500000000E+03 0.  0.
        -13    1    3    3    0    0  0.16998340028E+02  0.30808532434E+02 -0.59047422526E+01  0.35678934675E+02  0.10566000000E+00 0.  1.
         23    2    1    0    0    0  0.45665921139E+01 -0.27067549013E+02 -0.11704650038E+02  0.95158672858E+02  0.90358553632E+02 0.  0.
         13    1    3    3    0    0 -0.12431747914E+02 -0.57876081447E+02 -0.57999077850E+01  0.59479738182E+02  0.10566000000E+00 0. -1.
         22    1    1    0    0    0 -0.45665921139E+01  0.27067549013E+02  0.11704650038E+02  0.29841327142E+02  0.00000000000E+00 0. -1.
</event>
<event>
 5    1  0.6835449E-004  0.9118800E+02  0.7818608E-02  0.1130116E+00
         25   -1    0    0    0    0  0.00000000000E+00  0.00000000000E+00  0.99999998245E-14  0.12500000000E+03  0.12500000000E+03 0.  0.
        -13    1    3    3    0    0  0.23767357960E+02 -0.24319967753E+02  0.48440493609E+02  0.59184801436E+02  0.10566000000E+00 0.  1.
         23    2    1    0    0    0  0.10429455841E+02  0.20722156527E+01  0.27768770609E+02  0.95264965983E+02  0.90505477711E+02 0.  0.
         13    1    3    3    0    0 -0.13337902120E+02  0.26392183406E+02 -0.20671723000E+02  0.36080164547E+02  0.10566000000E+00 0. -1.
         22    1    1    0    0    0 -0.10429455841E+02 -0.20722156527E+01 -0.27768770609E+02  0.29735034017E+02  0.00000000000E+00 0.  1.
</event>
<event>
 5    1  0.6835449E-004  0.9118800E+02  0.7818608E-02  0.1130116E+00
         25   -1    0    0    0    0  0.00000000000E+00  0.00000000000E+00  0.99999998245E-14  0.12500000000E+03  0.12500000000E+03 0.  0.
        -13    1    3    3    0    0 -0.41975076234E+02  0.22438485202E+02 -0.13079350051E+02  0.49360644290E+02  0.10566000000E+00 0.  1.
         23    2    1    0    0    0 -0.46814644530E+00  0.26492979119E+02  0.95809198780E+01  0.96823926295E+02  0.92633587720E+02 0.  0.
         13    1    3    3    0    0  0.41506929788E+02  0.40544939177E+01  0.22660269929E+02  0.47463282005E+02  0.10566000000E+00 0. -1.
         22    1    1    0    0    0  0.46814644530E+00 -0.26492979119E+02 -0.95809198780E+01  0.28176073705E+02  0.00000000000E+00 0.  1.
</event>
<event>
 5    1  0.6835449E-004  0.9118800E+02  0.7818608E-02  0.1130116E+00
         25   -1    0    0    0    0  0.00000000000E+00  0.00000000000E+00  0.99999998245E-14  0.12500000000E+03  0.12500000000E+03 0.  0.
        -13    1    3    3    0    0  0.82887254918E+01  0.83035874505E+01 -0.33393509945E+02  0.35394776526E+02  0.10566000000E+00 0. -1.
         23    2    1    0    0    0  0.38605681497E+01 -0.23040174968E+02  0.17831130629E+02  0.95611177830E+02  0.90982385425E+02 0.  0.
         13    1    3    3    0    0 -0.44281573420E+01 -0.31343762419E+02  0.51224640575E+02  0.60216401304E+02  0.10566000000E+00 0.  1.
         22    1    1    0    0    0 -0.38605681497E+01  0.23040174968E+02 -0.17831130629E+02  0.29388822170E+02  0.00000000000E+00 0.  1.
</event>
<event>
 5    1  0.6835449E-004  0.9118800E+02  0.7818608E-02  0.1130116E+00
         25   -1    0    0    0    0  0.00000000000E+00  0.00000000000E+00  0.99999998245E-14  0.12500000000E+03  0.12500000000E+03 0.  0.
        -13    1    3    3    0    0  0.20007725122E+01  0.52828958468E+01 -0.59241154136E+02  0.59509978883E+02  0.10566000000E+00 0. -1.
         23    2    1    0    0    0 -0.11207228163E+02 -0.38288355677E+01 -0.26631905134E+02  0.95853468200E+02  0.91314659557E+02 0.  0.
         13    1    3    3    0    0 -0.13208000676E+02 -0.91117314145E+01  0.32609249002E+02  0.36343489317E+02  0.10566000000E+00 0.  1.
         22    1    1    0    0    0  0.11207228163E+02  0.38288355677E+01  0.26631905134E+02  0.29146531800E+02  0.00000000000E+00 0. -1.
</event>
<event>
 5    1  0.6835449E-004  0.9118800E+02  0.7818608E-02  0.1130116E+00
         25   -1    0    0    0    0  0.00000000000E+00  0.00000000000E+00  0.99999998245E-14  0.12500000000E+03  0.12500000000E+03 0.  0.
        -13    1    3    3    0    0  0.29729053529E+02 -0.75670086527E+01  0.52216183507E+02  0.60560855573E+02  0.10566000000E+00 0.  1.
         23    2    1    0    0    0  0.49330693694E+01 -0.84879716904E+01  0.28386935359E+02  0.94963373427E+02  0.90087975650E+02 0.  0.
         13    1    3    3    0    0 -0.24795984159E+02 -0.92096303768E+00 -0.23829248148E+02  0.34402517854E+02  0.10566000000E+00 0. -1.
         22    1    1    0    0    0 -0.49330693694E+01  0.84879716904E+01 -0.28386935359E+02  0.30036626573E+02  0.00000000000E+00 0.  1.
</event>
<event>
 5    1  0.6835449E-004  0.9118800E+02  0.7818608E-02  0.1130116E+00
         25   -1    0    0    0    0  0.00000000000E+00  0.00000000000E+00  0.99999998245E-14  0.12500000000E+03  0.12500000000E+03 0.  0.
        -13    1    3    3    0    0 -0.32151922237E+02 -0.35397650344E+02 -0.47039571522E+01  0.48050786990E+02  0.10566000000E+00 0.  1.
         23    2    1    0    0    0 -0.25851631519E+02  0.10959226348E+02  0.65477483961E+01  0.96167995154E+02  0.91744203024E+02 0.  0.
         13    1    3    3    0    0  0.63002907176E+01  0.46356876692E+02  0.11251705548E+02  0.48117208165E+02  0.10566000000E+00 0. -1.
         22    1    1    0    0    0  0.25851631519E+02 -0.10959226348E+02 -0.65477483961E+01  0.28832004846E+02  0.00000000000E+00 0. -1.
</event>
<event>
 5    1  0.6835449E-004  0.9118800E+02  0.7818608E-02  0.1130116E+00
         25   -1    0    0    0    0  0.00000000000E+00  0.00000000000E+00  0.99999998245E-14  0.12500000000E+03  0.12500000000E+03 0.  0.
        -13    1    3    3    0    0 -0.47664012069E+02  0.19901588828E+02 -0.15192081584E+02  0.53839964629E+02  0.10566000000E+00 0. -1.
         23    2    1    0    0    0 -0.19236426884E+02  0.15306314885E+02  0.15509629776E+02  0.95933317864E+02  0.91423899862E+02 0.  0.
         13    1    3    3    0    0  0.28427585185E+02 -0.45952739430E+01  0.30701711360E+02  0.42093353235E+02  0.10566000000E+00 0.  1.
         22    1    1    0    0    0  0.19236426884E+02 -0.15306314885E+02 -0.15509629776E+02  0.29066682136E+02  0.00000000000E+00 0. -1.
</event>
<event>
 5    1  0.6835449E-004  0.9118800E+02  0.7818608E-02  0.1130116E+00
         25   -1    0    0    0    0  0.00000000000E+00  0.00000000000E+00  0.99999998245E-14  0.12500000000E+03  0.12500000000E+03 0.  0.
        -13    1    3    3    0    0 -0.36371150955E+00  0.39270201359E+02  0.44880696433E+02  0.59636977432E+02  0.10566000000E+00 0.  1.
         23    2    1    0    0    0 -0.57086133001E+01  0.26489471443E+02  0.11908954132E+02  0.95400953535E+02  0.90693099979E+02 0.  0.
         13    1    3    3    0    0 -0.53449017905E+01 -0.12780729917E+02 -0.32971742301E+02  0.35763976103E+02  0.10566000000E+00 0. -1.
         22    1    1    0    0    0  0.57086133001E+01 -0.26489471443E+02 -0.11908954132E+02  0.29599046465E+02  0.00000000000E+00 0.  1.
</event>
<event>
 5    1  0.6835449E-004  0.9118800E+02  0.7818608E-02  0.1130116E+00
         25   -1    0    0    0    0  0.00000000000E+00  0.00000000000E+00  0.99999998245E-14  0.12500000000E+03  0.12500000000E+03 0.  0.
        -13    1    3    3    0    0 -0.26361648765E+02 -0.41816744505E+02 -0.35920912724E+02  0.61105644433E+02  0.10566000000E+00 0. -1.
         23    2    1    0    0    0 -0.56561121000E+01 -0.26281553218E+02 -0.16632244742E+02  0.93387609885E+02  0.87874356164E+02 0.  0.
         13    1    3    3    0    0  0.20705536665E+02  0.15535191287E+02  0.19288667982E+02  0.32281965452E+02  0.10566000000E+00 0.  1.
         22    1    1    0    0    0  0.56561121000E+01  0.26281553218E+02  0.16632244742E+02  0.31612390115E+02  0.00000000000E+00 0. -1.
</event>
<event>
 5    1  0.6835449E-004  0.9118800E+02  0.7818608E-02  0.1130116E+00
         25   -1    0    0    0    0  0.00000000000E+00  0.00000000000E+00  0.99999998245E-14  0.12500000000E+03  0.12500000000E+03 0.  0.
        -13    1    3    3    0    0 -0.30117023820E+02  0.19327716672E+02 -0.99365056026E+01  0.37139481191E+02  0.10566000000E+00 0.  1.
         23    2    1    0    0    0  0.25461266534E+02  0.11431654119E+02  0.78165293777E+01  0.96016264200E+02  0.91537238598E+02 0.  0.
         13    1    3    3    0    0  0.55578290354E+02 -0.78960625534E+01  0.17753034980E+02  0.58876783009E+02  0.10566000000E+00 0. -1.
         22    1    1    0    0    0 -0.25461266534E+02 -0.11431654119E+02 -0.78165293777E+01  0.28983735800E+02  0.00000000000E+00 0. -1.
</event>
<event>
 5    1  0.6835449E-004  0.9118800E+02  0.7818608E-02  0.1130116E+00
         25   -1    0    0    0    0  0.00000000000E+00  0.00000000000E+00  0.99999998245E-14  0.12500000000E+03  0.12500000000E+03 0.  0.
        -13    1    3    3    0    0  0.23945043837E+02 -0.27921219316E+02 -0.60745888150E+01  0.37280979142E+02  0.10566000000E+00 0.  1.
         23    2    1    0    0    0  0.72838969952E+01  0.27539287725E+02  0.45378862952E+01  0.96154550864E+02  0.91725883566E+02 0.  0.
         13    1    3    3    0    0 -0.16661146841E+02  0.55460507041E+02  0.10612475110E+02  0.58873571722E+02  0.10566000000E+00 0. -1.
         22    1    1    0    0    0 -0.72838969952E+01 -0.27539287725E+02 -0.45378862952E+01  0.28845449136E+02  0.00000000000E+00 0. -1.
</event>
<event>
 5    1  0.6835449E-004  0.9118800E+02  0.7818608E-02  0.1130116E+00
         25   -1    0    0    0    0  0.00000000000E+00  0.00000000000E+00  0.99999998245E-14  0.12500000000E+03  0.12500000000E+03 0.  0.
        -13    1    3    3    0    0  0.19658492668E+02 -0.22720208280E+02 -0.28510433370E+02  0.41418838386E+02  0.10566000000E+00 0.  1.
         23    2    1    0    0    0  0.78665277543E+01  0.26659461258E+02 -0.96769096107E+01  0.95567845592E+02  0.90922832105E+02 0.  0.
         13    1    3    3    0    0 -0.11791964913E+02  0.49379669538E+02  0.18833523759E+02  0.54149007206E+02  0.10566000000E+00 0. -1.
         22    1    1    0    0    0 -0.78665277543E+01 -0.26659461258E+02  0.96769096107E+01  0.29432154408E+02  0.00000000000E+00 0. -1.
</event>
<event>
 5    1  0.6835449E-004  0.9118800E+02  0.7818608E-02  0.1130116E+00
         25   -1    0    0    0    0  0.00000000000E+00  0.00000000000E+00  0.99999998245E-14  0.12500000000E+03  0.12500000000E+03 0.  0.
        -13    1    3    3    0    0  0.30743267832E+02 -0.30587757372E+02  0.58937721250E+01  0.43766506965E+02  0.10566000000E+00 0. -1.
         23    2    1    0    0    0  0.19602427114E+02  0.14925329748E+02 -0.16140889292E+02  0.95545816529E+02  0.90892541675E+02 0.  0.
         13    1    3    3    0    0 -0.11140840718E+02  0.45513087120E+02 -0.22034661417E+02  0.51779309564E+02  0.10566000000E+00 0.  1.
         22    1    1    0    0    0 -0.19602427114E+02 -0.14925329748E+02  0.16140889292E+02  0.29454183471E+02  0.00000000000E+00 0. -1.
</event>
<event>
 5    1  0.6835449E-004  0.9118800E+02  0.7818608E-02  0.1130116E+00
         25   -1    0    0    0    0  0.00000000000E+00  0.00000000000E+00  0.99999998245E-14  0.12500000000E+03  0.12500000000E+03 0.  0.
        -13    1    3    3    0    0 -0.12654019819E+02 -0.24333373973E+02 -0.28582074986E+02  0.39612920633E+02  0.10566000000E+00 0. -1.
         23    2    1    0    0    0  0.14274526148E+02 -0.15426097526E+02  0.20076426304E+02  0.95934737662E+02  0.91425841071E+02 0.  0.
         13    1    3    3    0    0  0.26928545967E+02  0.89072764477E+01  0.48658501290E+02  0.56321817029E+02  0.10566000000E+00 0.  1.
         22    1    1    0    0    0 -0.14274526148E+02  0.15426097526E+02 -0.20076426304E+02  0.29065262338E+02  0.00000000000E+00 0.  1.
</event>
<event>
 5    1  0.6835449E-004  0.9118800E+02  0.7818608E-02  0.1130116E+00
         25   -1    0    0    0    0  0.00000000000E+00  0.00000000000E+00  0.99999998245E-14  0.12500000000E+03  0.12500000000E+03 0.  0.
        -13    1    3    3    0    0  0.19031365576E+02  0.37466359959E+02  0.37937812812E+02  0.56614572410E+02  0.10566000000E+00 0.  1.
         23    2    1    0    0    0  0.15483672231E+02  0.26053948785E+02  0.18432598321E+01  0.94636371101E+02  0.89633100891E+02 0.  0.
         13    1    3    3    0    0 -0.35476933442E+01 -0.11412411173E+02 -0.36094552980E+02  0.38021798691E+02  0.10566000000E+00 0. -1.
         22    1    1    0    0    0 -0.15483672231E+02 -0.26053948785E+02 -0.18432598321E+01  0.30363628899E+02  0.00000000000E+00 0.  1.
</event>
<event>
 5    1  0.6835449E-004  0.9118800E+02  0.7818608E-02  0.1130116E+00
         25   -1    0    0    0    0  0.00000000000E+00  0.00000000000E+00  0.99999998245E-14  0.12500000000E+03  0.12500000000E+03 0.  0.
        -13    1    3    3    0    0 -0.25163743250E+02  0.35875642275E+02 -0.18169678028E+02  0.47438634536E+02  0.10566000000E+00 0.  1.
         23    2    1    0    0    0 -0.19539544974E+02  0.71089748316E+01  0.20392565033E+02  0.95876331798E+02  0.91345952014E+02 0.  0.
         13    1    3    3    0    0  0.56241982762E+01 -0.28766667443E+02  0.38562243061E+02  0.48437697261E+02  0.10566000000E+00 0. -1.
         22    1    1    0    0    0  0.19539544974E+02 -0.71089748316E+01 -0.20392565033E+02  0.29123668202E+02  0.00000000000E+00 0. -1.
</event>
<event>
 5    1  0.6835449E-004  0.9118800E+02  0.7818608E-02  0.1130116E+00
         25   -1    0    0    0    0  0.00000000000E+00  0.00000000000E+00  0.99999998245E-14  0.12500000000E+03  0.12500000000E+03 0.  0.
        -13    1    3    3    0    0  0.43642029046E+02  0.38746184501E+02  0.17830253804E+02  0.61023131904E+02  0.10566000000E+00 0.  1.
         23    2    1    0    0    0  0.25525527106E+02  0.99196737970E+01  0.73769876481E+01  0.96638540076E+02  0.92383088382E+02 0.  0.
         13    1    3    3    0    0 -0.18116501940E+02 -0.28826510704E+02 -0.10453266156E+02  0.35615408172E+02  0.10566000000E+00 0. -1.
         22    1    1    0    0    0 -0.25525527106E+02 -0.99196737970E+01 -0.73769876481E+01  0.28361459924E+02  0.00000000000E+00 0.  1.
</event>
<event>
 5    1  0.6835449E-004  0.9118800E+02  0.7818608E-02  0.1130116E+00
         25   -1    0    0    0    0  0.00000000000E+00  0.00000000000E+00  0.99999998245E-14  0.12500000000E+03  0.12500000000E+03 0.  0.
        -13    1    3    3    0    0 -0.28281162564E+02 -0.17951076068E+02 -0.48605186562E+02  0.59029997567E+02  0.10566000000E+00 0.  1.
         23    2    1    0    0    0 -0.25724462881E+01 -0.18585216579E+02 -0.22966791850E+02  0.95343613115E+02  0.90614034667E+02 0.  0.
         13    1    3    3    0    0  0.25708716275E+02 -0.63414051110E+00  0.25638394712E+02  0.36313615548E+02  0.10566000000E+00 0. -1.
         22    1    1    0    0    0  0.25724462881E+01  0.18585216579E+02  0.22966791850E+02  0.29656386885E+02  0.00000000000E+00 0.  1.
</event>
<event>
 5    1  0.6835449E-004  0.9118800E+02  0.7818608E-02  0.1130116E+00
         25   -1    0    0    0    0  0.00000000000E+00  0.00000000000E+00  0.99999998245E-14  0.12500000000E+03  0.12500000000E+03 0.  0.
        -13    1    3    3    0    0  0.22277772102E+02 -0.22952628732E+02 -0.34709631494E+02  0.47200550612E+02  0.10566000000E+00 0. -1.
         23    2    1    0    0    0  0.24438686666E+02 -0.14804290435E+02  0.11519612636E+02  0.94192242916E+02  0.89011576376E+02 0.  0.
         13    1    3    3    0    0  0.21609145636E+01  0.81483382970E+01  0.46229244130E+02  0.46991692304E+02  0.10566000000E+00 0.  1.
         22    1    1    0    0    0 -0.24438686666E+02  0.14804290435E+02 -0.11519612636E+02  0.30807757084E+02  0.00000000000E+00 0.  1.
</event>
<event>
 5    1  0.6835449E-004  0.9118800E+02  0.7818608E-02  0.1130116E+00
         25   -1    0    0    0    0  0.00000000000E+00  0.00000000000E+00  0.99999998245E-14  0.12500000000E+03  0.12500000000E+03 0.  0.
        -13    1    3    3    0    0  0.16858631395E+02  0.46507780439E+02 -0.32433316512E+02  0.59153345450E+02  0.10566000000E+00 0.  1.
         23    2    1    0    0    0  0.15963596170E+02  0.10777452172E+02 -0.20588118643E+02  0.96806729398E+02  0.92610379275E+02 0.  0.
         13    1    3    3    0    0 -0.89503522439E+00 -0.35730328267E+02  0.11845197869E+02  0.37653383948E+02  0.10566000000E+00 0. -1.
         22    1    1    0    0    0 -0.15963596170E+02 -0.10777452172E+02  0.20588118643E+02  0.28193270602E+02  0.00000000000E+00 0.  1.
</event>
<event>
 5    1  0.6835449E-004  0.9118800E+02  0.7818608E-02  0.1130116E+00
         25   -1    0    0    0    0  0.00000000000E+00  0.00000000000E+00  0.99999998245E-14  0.12500000000E+03  0.12500000000E+03 0.  0.
        -13    1    3    3    0    0 -0.38215525944E+02  0.91073019307E+01  0.10095683746E+02  0.40562339257E+02  0.10566000000E+00 0. -1.
         23    2    1    0    0    0 -0.48606994852E+01 -0.12462804633E+02 -0.26971842341E+02  0.94893054322E+02  0.89990352708E+02 0.  0.
         13    1    3    3    0    0  0.33354826459E+02 -0.21570106563E+02 -0.37067526087E+02  0.54330715065E+02  0.10566000000E+00 0.  1.
         22    1    1    0    0    0  0.48606994852E+01  0.12462804633E+02  0.26971842341E+02  0.30106945678E+02  0.00000000000E+00 0.  1.
</event>
<event>
 5    1  0.6835449E-004  0.9118800E+02  0.7818608E-02  0.1130116E+00
         25   -1    0    0    0    0  0.00000000000E+00  0.00000000000E+00  0.99999998245E-14  0.12500000000E+03  0.12500000000E+03 0.  0.
        -13    1    3    3    0    0  0.47215196980E+02  0.12906954638E+01 -0.13595466003E+02  0.49150672228E+02  0.10566000000E+00 0.  1.
         23    2    1    0    0    0  0.33921791985E+02  0.18936126826E+02 -0.29371046661E+02  0.76297605268E+02  0.58731604073E+02 0.  0.
         13    1    3    3    0    0 -0.13293404995E+02  0.17645431362E+02 -0.15775580658E+02  0.27146933040E+02  0.10566000000E+00 0. -1.
         22    1    1    0    0    0 -0.33921791985E+02 -0.18936126826E+02  0.29371046661E+02  0.48702394732E+02  0.00000000000E+00 0.  1.
</event>
<event>
 5    1  0.6835449E-004  0.9118800E+02  0.7818608E-02  0.1130116E+00
         25   -1    0    0    0    0  0.00000000000E+00  0.00000000000E+00  0.99999998245E-14  0.12500000000E+03  0.12500000000E+03 0.  0.
        -13    1    3    3    0    0  0.20639518103E+02  0.24991206065E+02 -0.16987959703E+02  0.36594426174E+02  0.10566000000E+00 0. -1.
         23    2    1    0    0    0 -0.25078347361E+02  0.14440367125E+02  0.14029603282E+02  0.92839815341E+02  0.87091640444E+02 0.  0.
         13    1    3    3    0    0 -0.45717865464E+02 -0.10550838941E+02  0.31017562986E+02  0.56245389167E+02  0.10566000000E+00 0.  1.
         22    1    1    0    0    0  0.25078347361E+02 -0.14440367125E+02 -0.14029603282E+02  0.32160184659E+02  0.00000000000E+00 0.  1.
</event>
<event>
 5    1  0.6835449E-004  0.9118800E+02  0.7818608E-02  0.1130116E+00
         25   -1    0    0    0    0  0.00000000000E+00  0.00000000000E+00  0.99999998245E-14  0.12500000000E+03  0.12500000000E+03 0.  0.
        -13    1    3    3    0    0 -0.26116724786E+02 -0.24104507183E+02 -0.49137904319E+02  0.60643675557E+02  0.10566000000E+00 0. -1.
         23    2    1    0    0    0 -0.64733283722E+01 -0.46423715216E+01 -0.29196457444E+02  0.94736346538E+02  0.89772415778E+02 0.  0.
         13    1    3    3    0    0  0.19643396414E+02  0.19462135661E+02  0.19941446875E+02  0.34092670982E+02  0.10566000000E+00 0.  1.
         22    1    1    0    0    0  0.64733283722E+01  0.46423715216E+01  0.29196457444E+02  0.30263653462E+02  0.00000000000E+00 0. -1.
</event>
<event>
 5    1  0.6835449E-004  0.9118800E+02  0.7818608E-02  0.1130116E+00
         25   -1    0    0    0    0  0.00000000000E+00  0.00000000000E+00  0.99999998245E-14  0.12500000000E+03  0.12500000000E+03 0.  0.
        -13    1    3    3    0    0 -0.82256013178E+01  0.98485667504E+00 -0.36843225831E+02  0.37763274664E+02  0.10566000000E+00 0.  1.
         23    2    1    0    0    0 -0.15124894068E+02 -0.26851971515E+02  0.99232507942E+01  0.92623130152E+02  0.86780081459E+02 0.  0.
         13    1    3    3    0    0 -0.68992927506E+01 -0.27836828190E+02  0.46766476625E+02  0.54859855488E+02  0.10566000000E+00 0. -1.
         22    1    1    0    0    0  0.15124894068E+02  0.26851971515E+02 -0.99232507942E+01  0.32376869848E+02  0.00000000000E+00 0. -1.
</event>
<event>
 5    1  0.6835449E-004  0.9118800E+02  0.7818608E-02  0.1130116E+00
         25   -1    0    0    0    0  0.00000000000E+00  0.00000000000E+00  0.99999998245E-14  0.12500000000E+03  0.12500000000E+03 0.  0.
        -13    1    3    3    0    0 -0.23060649766E+01  0.22127663901E+02  0.40903520846E+02  0.46562437941E+02  0.10566000000E+00 0. -1.
         23    2    1    0    0    0 -0.15647067242E+02 -0.18139408452E+02  0.19690780713E+02  0.93990393466E+02  0.88727664043E+02 0.  0.
         13    1    3    3    0    0 -0.13341002266E+02 -0.40267072353E+02 -0.21212740133E+02  0.47427955525E+02  0.10566000000E+00 0.  1.
         22    1    1    0    0    0  0.15647067242E+02  0.18139408452E+02 -0.19690780713E+02  0.31009606534E+02  0.00000000000E+00 0.  1.
</event>
<event>
 5    1  0.6835449E-004  0.9118800E+02  0.7818608E-02  0.1130116E+00
         25   -1    0    0    0    0  0.00000000000E+00  0.00000000000E+00  0.99999998245E-14  0.12500000000E+03  0.12500000000E+03 0.  0.
        -13    1    3    3    0    0  0.21087441367E+02  0.44911099141E+02  0.89028280920E+01  0.50407921218E+02  0.10566000000E+00 0. -1.
         23    2    1    0    0    0 -0.13139205251E+02  0.19505173780E+02  0.19634187656E+02  0.94363553670E+02  0.89251825850E+02 0.  0.
         13    1    3    3    0    0 -0.34226646617E+02 -0.25405925361E+02  0.10731359564E+02  0.43955632452E+02  0.10566000000E+00 0.  1.
         22    1    1    0    0    0  0.13139205251E+02 -0.19505173780E+02 -0.19634187656E+02  0.30636446330E+02  0.00000000000E+00 0. -1.
</event>
<event>
 5    1  0.6835449E-004  0.9118800E+02  0.7818608E-02  0.1130116E+00
         25   -1    0    0    0    0  0.00000000000E+00  0.00000000000E+00  0.99999998245E-14  0.12500000000E+03  0.12500000000E+03 0.  0.
        -13    1    3    3    0    0  0.67084584916E+01 -0.67157733460E+01 -0.35732830040E+02  0.36972304955E+02  0.10566000000E+00 0. -1.
         23    2    1    0    0    0 -0.17539852297E+02  0.60186569197E+01  0.19170636382E+02  0.98328218113E+02  0.94641716639E+02 0.  0.
         13    1    3    3    0    0 -0.24248310789E+02  0.12734430266E+02  0.54903466422E+02  0.61355913158E+02  0.10566000000E+00 0.  1.
         22    1    1    0    0    0  0.17539852297E+02 -0.60186569197E+01 -0.19170636382E+02  0.26671781887E+02  0.00000000000E+00 0.  1.
</event>
<event>
 5    1  0.6835449E-004  0.9118800E+02  0.7818608E-02  0.1130116E+00
         25   -1    0    0    0    0  0.00000000000E+00  0.00000000000E+00  0.99999998245E-14  0.12500000000E+03  0.12500000000E+03 0.  0.
        -13    1    3    3    0    0  0.22895644477E+01  0.22806730245E+02  0.27910151346E+02  0.36116156523E+02  0.10566000000E+00 0.  1.
         23    2    1    0    0    0 -0.73715766991E+01 -0.22270322876E+02 -0.13370849741E+02  0.97998388070E+02  0.94205079573E+02 0.  0.
         13    1    3    3    0    0 -0.96611411468E+01 -0.45077053121E+02 -0.41281001088E+02  0.61882231546E+02  0.10566000000E+00 0. -1.
         22    1    1    0    0    0  0.73715766991E+01  0.22270322876E+02  0.13370849741E+02  0.27001611930E+02  0.00000000000E+00 0. -1.
</event>
<event>
 5    1  0.6835449E-004  0.9118800E+02  0.7818608E-02  0.1130116E+00
         25   -1    0    0    0    0  0.00000000000E+00  0.00000000000E+00  0.99999998245E-14  0.12500000000E+03  0.12500000000E+03 0.  0.
        -13    1    3    3    0    0  0.14290860245E+02  0.35600977111E+02  0.99359536561E+01  0.39628179328E+02  0.10566000000E+00 0. -1.
         23    2    1    0    0    0  0.34705201661E+02 -0.85664591494E+01  0.18536801856E+00  0.89252697921E+02  0.81781259957E+02 0.  0.
         13    1    3    3    0    0  0.20414341416E+02 -0.44167436260E+02 -0.97505856376E+01  0.49624518593E+02  0.10566000000E+00 0.  1.
         22    1    1    0    0    0 -0.34705201661E+02  0.85664591494E+01 -0.18536801856E+00  0.35747302079E+02  0.00000000000E+00 0.  1.
</event>
<event>
 5    1  0.6835449E-004  0.9118800E+02  0.7818608E-02  0.1130116E+00
         25   -1    0    0    0    0  0.00000000000E+00  0.00000000000E+00  0.99999998245E-14  0.12500000000E+03  0.12500000000E+03 0.  0.
        -13    1    3    3    0    0  0.60707087772E+02  0.28336976128E+01 -0.13582821875E+02  0.62272663040E+02  0.10566000000E+00 0.  1.
         23    2    1    0    0    0  0.26596334086E+02 -0.10348512237E+01 -0.89803101966E+01  0.96909398812E+02  0.92748852839E+02 0.  0.
         13    1    3    3    0    0 -0.34110753686E+02 -0.38685488364E+01  0.46025116786E+01  0.34636735772E+02  0.10566000000E+00 0. -1.
         22    1    1    0    0    0 -0.26596334086E+02  0.10348512237E+01  0.89803101966E+01  0.28090601188E+02  0.00000000000E+00 0.  1.
</event>
<event>
 5    1  0.6835449E-004  0.9118800E+02  0.7818608E-02  0.1130116E+00
         25   -1    0    0    0    0  0.00000000000E+00  0.00000000000E+00  0.99999998245E-14  0.12500000000E+03  0.12500000000E+03 0.  0.
        -13    1    3    3    0    0 -0.33347230429E+02 -0.33743127408E+02 -0.43595592424E+01  0.47640878932E+02  0.10566000000E+00 0.  1.
         23    2    1    0    0    0  0.10908451934E+02 -0.24832416707E+02 -0.14977393600E+02  0.94016688974E+02  0.88764701563E+02 0.  0.
         13    1    3    3    0    0  0.44255682363E+02  0.89107107012E+01 -0.10617834357E+02  0.46375810042E+02  0.10566000000E+00 0. -1.
         22    1    1    0    0    0 -0.10908451934E+02  0.24832416707E+02  0.14977393600E+02  0.30983311026E+02  0.00000000000E+00 0. -1.
</event>
<event>
 5    1  0.6835449E-004  0.9118800E+02  0.7818608E-02  0.1130116E+00
         25   -1    0    0    0    0  0.00000000000E+00  0.00000000000E+00  0.99999998245E-14  0.12500000000E+03  0.12500000000E+03 0.  0.
        -13    1    3    3    0    0  0.29064259121E+02 -0.35153772724E+02 -0.96792600983E+01  0.46628512040E+02  0.10566000000E+00 0. -1.
         23    2    1    0    0    0  0.10717103541E+02 -0.72006771094E+01  0.26272859578E+02  0.95725963559E+02  0.91139952214E+02 0.  0.
         13    1    3    3    0    0 -0.18347155580E+02  0.27953095615E+02  0.35952119677E+02  0.49097451518E+02  0.10566000000E+00 0.  1.
         22    1    1    0    0    0 -0.10717103541E+02  0.72006771094E+01 -0.26272859578E+02  0.29274036441E+02  0.00000000000E+00 0. -1.
</event>
<event>
 5    1  0.6835449E-004  0.9118800E+02  0.7818608E-02  0.1130116E+00
         25   -1    0    0    0    0  0.00000000000E+00  0.00000000000E+00  0.99999998245E-14  0.12500000000E+03  0.12500000000E+03 0.  0.
        -13    1    3    3    0    0 -0.47982250991E+02  0.13419758050E+02  0.24355538387E+02  0.55457999698E+02  0.10566000000E+00 0.  1.
         23    2    1    0    0    0 -0.17178610022E+02 -0.11028629877E+02  0.22195567272E+02  0.94844096336E+02  0.89922322502E+02 0.  0.
         13    1    3    3    0    0  0.30803640969E+02 -0.24448387927E+02 -0.21599711156E+01  0.39386096639E+02  0.10566000000E+00 0. -1.
         22    1    1    0    0    0  0.17178610022E+02  0.11028629877E+02 -0.22195567272E+02  0.30155903664E+02  0.00000000000E+00 0.  1.
</event>
<event>
 5    1  0.6835449E-004  0.9118800E+02  0.7818608E-02  0.1130116E+00
         25   -1    0    0    0    0  0.00000000000E+00  0.00000000000E+00  0.99999998245E-14  0.12500000000E+03  0.12500000000E+03 0.  0.
        -13    1    3    3    0    0  0.22237687419E+01 -0.41140300512E+02 -0.20248913425E+02  0.45907506277E+02  0.10566000000E+00 0.  1.
         23    2    1    0    0    0  0.18480457340E+02  0.66325911267E+01 -0.20830808213E+02  0.96374117667E+02  0.92024613103E+02 0.  0.
         13    1    3    3    0    0  0.16256688598E+02  0.47772891638E+02 -0.58189478750E+00  0.50466611391E+02  0.10566000000E+00 0. -1.
         22    1    1    0    0    0 -0.18480457340E+02 -0.66325911267E+01  0.20830808213E+02  0.28625882333E+02  0.00000000000E+00 0. -1.
</event>
<event>
 5    1  0.6835449E-004  0.9118800E+02  0.7818608E-02  0.1130116E+00
         25   -1    0    0    0    0  0.00000000000E+00  0.00000000000E+00  0.99999998245E-14  0.12500000000E+03  0.12500000000E+03 0.  0.
        -13    1    3    3    0    0 -0.41932857499E+02  0.33529768199E+02  0.19014137051E+02  0.56957514564E+02  0.10566000000E+00 0. -1.
         23    2    1    0    0    0 -0.24420432149E+02  0.22380547590E+02  0.29880159850E+02  0.80389795232E+02  0.66876369579E+02 0.  0.
         13    1    3    3    0    0  0.17512425350E+02 -0.11149220609E+02  0.10866022799E+02  0.23432280669E+02  0.10566000000E+00 0.  1.
         22    1    1    0    0    0  0.24420432149E+02 -0.22380547590E+02 -0.29880159850E+02  0.44610204768E+02  0.00000000000E+00 0. -1.
</event>
<event>
 5    1  0.6835449E-004  0.9118800E+02  0.7818608E-02  0.1130116E+00
         25   -1    0    0    0    0  0.00000000000E+00  0.00000000000E+00  0.99999998245E-14  0.12500000000E+03  0.12500000000E+03 0.  0.
        -13    1    3    3    0    0  0.16418195029E+02 -0.37871995691E+02  0.10803248346E+02  0.42668097268E+02  0.10566000000E+00 0.  1.
         23    2    1    0    0    0 -0.68273458094E+00  0.70235768712E+01  0.29834283634E+02  0.94342517414E+02  0.89222359044E+02 0.  0.
         13    1    3    3    0    0 -0.17100929610E+02  0.44895572562E+02  0.19031035288E+02  0.51674420145E+02  0.10566000000E+00 0. -1.
         22    1    1    0    0    0  0.68273458094E+00 -0.70235768712E+01 -0.29834283634E+02  0.30657482586E+02  0.00000000000E+00 0. -1.
</event>
<event>
 5    1  0.6835449E-004  0.9118800E+02  0.7818608E-02  0.1130116E+00
         25   -1    0    0    0    0  0.00000000000E+00  0.00000000000E+00  0.99999998245E-14  0.12500000000E+03  0.12500000000E+03 0.  0.
        -13    1    3    3    0    0 -0.60923153672E+01 -0.55333908176E+02  0.12994615528E+02  0.57164927161E+02  0.10566000000E+00 0. -1.
         23    2    1    0    0    0  0.13083781530E+02 -0.25541668810E+02 -0.32063596406E+01  0.96123661471E+02  0.91683779196E+02 0.  0.
         13    1    3    3    0    0  0.19176096897E+02  0.29792239366E+02 -0.16200975169E+02  0.38958734310E+02  0.10566000000E+00 0.  1.
         22    1    1    0    0    0 -0.13083781530E+02  0.25541668810E+02  0.32063596406E+01  0.28876338529E+02  0.00000000000E+00 0. -1.
</event>
<event>
 5    1  0.6835449E-004  0.9118800E+02  0.7818608E-02  0.1130116E+00
         25   -1    0    0    0    0  0.00000000000E+00  0.00000000000E+00  0.99999998245E-14  0.12500000000E+03  0.12500000000E+03 0.  0.
        -13    1    3    3    0    0  0.37759590472E+02 -0.18048405968E+02 -0.36141509677E+01  0.42007200357E+02  0.10566000000E+00 0. -1.
         23    2    1    0    0    0 -0.47291218777E+01 -0.77738037229E+01  0.27742012146E+02  0.95803838335E+02  0.91246696289E+02 0.  0.
         13    1    3    3    0    0 -0.42488712350E+02  0.10274602245E+02  0.31356163114E+02  0.53796637978E+02  0.10566000000E+00 0.  1.
         22    1    1    0    0    0  0.47291218777E+01  0.77738037229E+01 -0.27742012146E+02  0.29196161665E+02  0.00000000000E+00 0.  1.
</event>
<event>
 5    1  0.6835449E-004  0.9118800E+02  0.7818608E-02  0.1130116E+00
         25   -1    0    0    0    0  0.00000000000E+00  0.00000000000E+00  0.99999998245E-14  0.12500000000E+03  0.12500000000E+03 0.  0.
        -13    1    3    3    0    0 -0.12641660182E+02  0.31626159299E+01  0.41036248504E+02  0.43055761136E+02  0.10566000000E+00 0. -1.
         23    2    1    0    0    0 -0.11032483257E+02 -0.28888313664E+02  0.14132617796E+01  0.94044424379E+02  0.88803750454E+02 0.  0.
         13    1    3    3    0    0  0.16091769242E+01 -0.32050929594E+02 -0.39622986725E+02  0.50988663242E+02  0.10566000000E+00 0.  1.
         22    1    1    0    0    0  0.11032483257E+02  0.28888313664E+02 -0.14132617796E+01  0.30955575621E+02  0.00000000000E+00 0.  1.
</event>
<event>
 5    1  0.6835449E-004  0.9118800E+02  0.7818608E-02  0.1130116E+00
         25   -1    0    0    0    0  0.00000000000E+00  0.00000000000E+00  0.99999998245E-14  0.12500000000E+03  0.12500000000E+03 0.  0.
        -13    1    3    3    0    0  0.86960334915E+01  0.47371207702E+02  0.35830405555E+02  0.60029005022E+02  0.10566000000E+00 0.  1.
         23    2    1    0    0    0  0.83591394009E+01  0.15396586893E+02  0.26306308193E+02  0.93393798865E+02  0.87883159457E+02 0.  0.
         13    1    3    3    0    0 -0.33689409064E+00 -0.31974620809E+02 -0.95240973628E+01  0.33364793842E+02  0.10566000000E+00 0. -1.
         22    1    1    0    0    0 -0.83591394009E+01 -0.15396586893E+02 -0.26306308193E+02  0.31606201135E+02  0.00000000000E+00 0.  1.
</event>
<event>
 5    1  0.6835449E-004  0.9118800E+02  0.7818608E-02  0.1130116E+00
         25   -1    0    0    0    0  0.00000000000E+00  0.00000000000E+00  0.99999998245E-14  0.12500000000E+03  0.12500000000E+03 0.  0.
        -13    1    3    3    0    0  0.21916806548E+01  0.14396619890E+02  0.57598720106E+02  0.59411192971E+02  0.10566000000E+00 0.  1.
         23    2    1    0    0    0  0.53175472533E+01  0.18918535435E+02  0.21717804132E+02  0.95710918279E+02  0.91119315020E+02 0.  0.
         13    1    3    3    0    0  0.31258665985E+01  0.45219155448E+01 -0.35880915975E+02  0.36299725307E+02  0.10566000000E+00 0. -1.
         22    1    1    0    0    0 -0.53175472533E+01 -0.18918535435E+02 -0.21717804132E+02  0.29289081721E+02  0.00000000000E+00 0.  1.
</event>
<event>
 5    1  0.6835449E-004  0.9118800E+02  0.7818608E-02  0.1130116E+00
         25   -1    0    0    0    0  0.00000000000E+00  0.00000000000E+00  0.99999998245E-14  0.12500000000E+03  0.12500000000E+03 0.  0.
        -13    1    3    3    0    0 -0.37398219870E+02  0.29191560448E+02  0.10163825093E+02  0.48518950477E+02  0.10566000000E+00 0. -1.
         23    2    1    0    0    0 -0.65980354435E+01  0.14780928240E+02 -0.23562989610E+02  0.96412863195E+02  0.92077227362E+02 0.  0.
         13    1    3    3    0    0  0.30800184427E+02 -0.14410632208E+02 -0.33726814703E+02  0.47893912718E+02  0.10566000000E+00 0.  1.
         22    1    1    0    0    0  0.65980354435E+01 -0.14780928240E+02  0.23562989610E+02  0.28587136805E+02  0.00000000000E+00 0. -1.
</event>
<event>
 5    1  0.6835449E-004  0.9118800E+02  0.7818608E-02  0.1130116E+00
         25   -1    0    0    0    0  0.00000000000E+00  0.00000000000E+00  0.99999998245E-14  0.12500000000E+03  0.12500000000E+03 0.  0.
        -13    1    3    3    0    0 -0.86577600170E+01  0.30701769088E+02  0.11933738886E+02  0.34058489712E+02  0.10566000000E+00 0.  1.
         23    2    1    0    0    0 -0.11089620115E+02 -0.28252948524E+02 -0.16389704230E+01  0.94604358888E+02  0.89588446364E+02 0.  0.
         13    1    3    3    0    0 -0.24318600979E+01 -0.58954717612E+02 -0.13572709309E+02  0.60545869176E+02  0.10566000000E+00 0. -1.
         22    1    1    0    0    0  0.11089620115E+02  0.28252948524E+02  0.16389704230E+01  0.30395641112E+02  0.00000000000E+00 0. -1.
</event>
<event>
 5    1  0.6835449E-004  0.9118800E+02  0.7818608E-02  0.1130116E+00
         25   -1    0    0    0    0  0.00000000000E+00  0.00000000000E+00  0.99999998245E-14  0.12500000000E+03  0.12500000000E+03 0.  0.
        -13    1    3    3    0    0 -0.19341675136E+02 -0.17547832656E+02 -0.18072289855E+02  0.31759182178E+02  0.10566000000E+00 0.  1.
         23    2    1    0    0    0  0.15603182216E+02  0.18758188028E+02  0.18798314759E+02  0.94198935876E+02  0.89020974883E+02 0.  0.
         13    1    3    3    0    0  0.34944857352E+02  0.36306020684E+02  0.36870604614E+02  0.62439753698E+02  0.10566000000E+00 0. -1.
         22    1    1    0    0    0 -0.15603182216E+02 -0.18758188028E+02 -0.18798314759E+02  0.30801064124E+02  0.00000000000E+00 0. -1.
</event>
<event>
 5    1  0.6835449E-004  0.9118800E+02  0.7818608E-02  0.1130116E+00
         25   -1    0    0    0    0  0.00000000000E+00  0.00000000000E+00  0.99999998245E-14  0.12500000000E+03  0.12500000000E+03 0.  0.
        -13    1    3    3    0    0  0.93202498150E+00 -0.17899411960E+02  0.34952837672E+02  0.39280652291E+02  0.10566000000E+00 0. -1.
         23    2    1    0    0    0 -0.22279785821E+02  0.14784559495E+02 -0.70539616154E+01  0.97346240216E+02  0.93335738354E+02 0.  0.
         13    1    3    3    0    0 -0.23211810803E+02  0.32683971454E+02 -0.42006799287E+02  0.58065587926E+02  0.10566000000E+00 0.  1.
         22    1    1    0    0    0  0.22279785821E+02 -0.14784559495E+02  0.70539616154E+01  0.27653759784E+02  0.00000000000E+00 0.  1.
</event>
<event>
 5    1  0.6835449E-004  0.9118800E+02  0.7818608E-02  0.1130116E+00
         25   -1    0    0    0    0  0.00000000000E+00  0.00000000000E+00  0.99999998245E-14  0.12500000000E+03  0.12500000000E+03 0.  0.
        -13    1    3    3    0    0  0.37516714224E+01 -0.56841426040E+02  0.19818194359E+02  0.60314133869E+02  0.10566000000E+00 0. -1.
         23    2    1    0    0    0 -0.95448725612E+01 -0.25352469298E+02  0.11962660139E+02  0.95386531285E+02  0.90673219978E+02 0.  0.
         13    1    3    3    0    0 -0.13296543984E+02  0.31488956741E+02 -0.78555342196E+01  0.35072397416E+02  0.10566000000E+00 0.  1.
         22    1    1    0    0    0  0.95448725612E+01  0.25352469298E+02 -0.11962660139E+02  0.29613468715E+02  0.00000000000E+00 0. -1.
</event>
<event>
 5    1  0.6835449E-004  0.9118800E+02  0.7818608E-02  0.1130116E+00
         25   -1    0    0    0    0  0.00000000000E+00  0.00000000000E+00  0.99999998245E-14  0.12500000000E+03  0.12500000000E+03 0.  0.
        -13    1    3    3    0    0 -0.28935249109E+02 -0.40040498792E+02  0.29748953858E+02  0.57667162269E+02  0.10566000000E+00 0.  1.
         23    2    1    0    0    0 -0.24579880183E+02 -0.15945670840E+02  0.65478505388E+00  0.95693624042E+02  0.91095587217E+02 0.  0.
         13    1    3    3    0    0  0.43553689260E+01  0.24094827952E+02 -0.29094168804E+02  0.38026461772E+02  0.10566000000E+00 0. -1.
         22    1    1    0    0    0  0.24579880183E+02  0.15945670840E+02 -0.65478505388E+00  0.29306375958E+02  0.00000000000E+00 0.  1.
</event>
<event>
 4    1  0.6835449E-004  0.9118800E+02  0.7818608E-02  0.1130116E+00
         25   -1    0    0    0    0  0.00000000000E+00  0.00000000000E+00  0.99999998245E-14  0.12500000000E+03  0.12500000000E+03 0.  0.
        -13    1    1    0    0    0 -0.89164980839E+01  0.48272567799E+02 -0.11995045552E+01  0.49103917514E+02  0.10566000000E+00 0. -1.
         13    1    1    0    0    0  0.16278448437E+02  0.86574871523E+01  0.14101038713E+01  0.18491606860E+02  0.10566000000E+00 0.  1.
         22    1    1    0    0    0 -0.73619503527E+01 -0.56930054952E+02 -0.21059931608E+00  0.57404475626E+02  0.00000000000E+00 0. -1.
</event>
<event>
 5    1  0.6835449E-004  0.9118800E+02  0.7818608E-02  0.1130116E+00
         25   -1    0    0    0    0  0.00000000000E+00  0.00000000000E+00  0.99999998245E-14  0.12500000000E+03  0.12500000000E+03 0.  0.
        -13    1    3    3    0    0 -0.32602397844E+01 -0.12810353458E+02  0.50015757048E+02  0.51733175393E+02  0.10566000000E+00 0. -1.
         23    2    1    0    0    0 -0.15525948291E+02  0.15035664102E+02  0.12517541252E+02  0.10002370916E+03  0.96855187208E+02 0.  0.
         13    1    3    3    0    0 -0.12265708506E+02  0.27846017561E+02 -0.37498215796E+02  0.48290533763E+02  0.10566000000E+00 0.  1.
         22    1    1    0    0    0  0.15525948291E+02 -0.15035664102E+02 -0.12517541252E+02  0.24976290844E+02  0.00000000000E+00 0. -1.
</event>
<event>
 5    1  0.6835449E-004  0.9118800E+02  0.7818608E-02  0.1130116E+00
         25   -1    0    0    0    0  0.00000000000E+00  0.00000000000E+00  0.99999998245E-14  0.12500000000E+03  0.12500000000E+03 0.  0.
        -13    1    3    3    0    0  0.21392772463E+02  0.18446022251E+02  0.20365711861E+02  0.34823552866E+02  0.10566000000E+00 0.  1.
         23    2    1    0    0    0 -0.12473888532E+02 -0.14884785216E+02 -0.19963920293E+02  0.97148378153E+02  0.93070374117E+02 0.  0.
         13    1    3    3    0    0 -0.33866660994E+02 -0.33330807467E+02 -0.40329632155E+02  0.62324825287E+02  0.10566000000E+00 0. -1.
         22    1    1    0    0    0  0.12473888532E+02  0.14884785216E+02  0.19963920293E+02  0.27851621847E+02  0.00000000000E+00 0. -1.
</event>
<event>
 5    1  0.6835449E-004  0.9118800E+02  0.7818608E-02  0.1130116E+00
         25   -1    0    0    0    0  0.00000000000E+00  0.00000000000E+00  0.99999998245E-14  0.12500000000E+03  0.12500000000E+03 0.  0.
        -13    1    3    3    0    0  0.33860349113E+02 -0.25701000540E+02  0.96331628869E+01  0.43587540216E+02  0.10566000000E+00 0. -1.
         23    2    1    0    0    0 -0.14906542391E+02 -0.28075963858E+02  0.81844294609E+00  0.93201657253E+02  0.87609441919E+02 0.  0.
         13    1    3    3    0    0 -0.48766891504E+02 -0.23749633180E+01 -0.88147199408E+01  0.49614117038E+02  0.10566000000E+00 0.  1.
         22    1    1    0    0    0  0.14906542391E+02  0.28075963858E+02 -0.81844294609E+00  0.31798342747E+02  0.00000000000E+00 0.  1.
</event>
<event>
 5    1  0.6835449E-004  0.9118800E+02  0.7818608E-02  0.1130116E+00
         25   -1    0    0    0    0  0.00000000000E+00  0.00000000000E+00  0.99999998245E-14  0.12500000000E+03  0.12500000000E+03 0.  0.
        -13    1    3    3    0    0  0.19264705437E+02 -0.23973309152E+02  0.26408953566E+02  0.40537543336E+02  0.10566000000E+00 0.  1.
         23    2    1    0    0    0 -0.28368652748E+02 -0.92508682842E+01  0.52299436383E+01  0.94706249271E+02  0.89730498259E+02 0.  0.
         13    1    3    3    0    0 -0.47633358185E+02  0.14722440868E+02 -0.21179009928E+02  0.54168705935E+02  0.10566000000E+00 0. -1.
         22    1    1    0    0    0  0.28368652748E+02  0.92508682842E+01 -0.52299436383E+01  0.30293750729E+02  0.00000000000E+00 0. -1.
</event>
<event>
 5    1  0.6835449E-004  0.9118800E+02  0.7818608E-02  0.1130116E+00
         25   -1    0    0    0    0  0.00000000000E+00  0.00000000000E+00  0.99999998245E-14  0.12500000000E+03  0.12500000000E+03 0.  0.
        -13    1    3    3    0    0  0.17652293889E+02 -0.26836345913E+01 -0.43392587726E+02  0.46922630017E+02  0.10566000000E+00 0.  1.
         23    2    1    0    0    0  0.20414025521E+00  0.24509212011E+02 -0.67780649205E+00  0.10048056754E+03  0.97443018654E+02 0.  0.
         13    1    3    3    0    0 -0.17448153633E+02  0.27192846602E+02  0.42714781234E+02  0.53557937520E+02  0.10566000000E+00 0. -1.
         22    1    1    0    0    0 -0.20414025521E+00 -0.24509212011E+02  0.67780649205E+00  0.24519432463E+02  0.00000000000E+00 0. -1.
</event>
<event>
 5    1  0.6835449E-004  0.9118800E+02  0.7818608E-02  0.1130116E+00
         25   -1    0    0    0    0  0.00000000000E+00  0.00000000000E+00  0.99999998245E-14  0.12500000000E+03  0.12500000000E+03 0.  0.
        -13    1    3    3    0    0  0.49446024442E+02  0.11440268366E+02 -0.19591050022E+02  0.54402292952E+02  0.10566000000E+00 0. -1.
         23    2    1    0    0    0  0.11094928170E+02  0.24446440658E+02 -0.11952902747E+02  0.95612965852E+02  0.90984841940E+02 0.  0.
         13    1    3    3    0    0 -0.38351096273E+02  0.13006172293E+02  0.76381472747E+01  0.41210672900E+02  0.10566000000E+00 0.  1.
         22    1    1    0    0    0 -0.11094928170E+02 -0.24446440658E+02  0.11952902747E+02  0.29387034148E+02  0.00000000000E+00 0. -1.
</event>
<event>
 5    1  0.6835449E-004  0.9118800E+02  0.7818608E-02  0.1130116E+00
         25   -1    0    0    0    0  0.00000000000E+00  0.00000000000E+00  0.99999998245E-14  0.12500000000E+03  0.12500000000E+03 0.  0.
        -13    1    3    3    0    0  0.24159222932E+02 -0.25266242137E+02 -0.36040362662E+02  0.50209261588E+02  0.10566000000E+00 0. -1.
         23    2    1    0    0    0  0.22148030264E+02 -0.25533020289E+02  0.45890627155E+01  0.90889446409E+02  0.84245840267E+02 0.  0.
         13    1    3    3    0    0 -0.20111926679E+01 -0.26677815216E+00  0.40629425377E+02  0.40680184821E+02  0.10566000000E+00 0.  1.
         22    1    1    0    0    0 -0.22148030264E+02  0.25533020289E+02 -0.45890627155E+01  0.34110553591E+02  0.00000000000E+00 0. -1.
</event>
<event>
 5    1  0.6835449E-004  0.9118800E+02  0.7818608E-02  0.1130116E+00
         25   -1    0    0    0    0  0.00000000000E+00  0.00000000000E+00  0.99999998245E-14  0.12500000000E+03  0.12500000000E+03 0.  0.
        -13    1    3    3    0    0 -0.25801425364E+02 -0.16804421433E+02 -0.30206235209E+02  0.43133860714E+02  0.10566000000E+00 0.  1.
         23    2    1    0    0    0  0.69881363683E+01 -0.25988407190E+02  0.10418463855E+02  0.96142145830E+02  0.91708976974E+02 0.  0.
         13    1    3    3    0    0  0.32789561733E+02 -0.91839857566E+01  0.40624699063E+02  0.53008285117E+02  0.10566000000E+00 0. -1.
         22    1    1    0    0    0 -0.69881363683E+01  0.25988407190E+02 -0.10418463855E+02  0.28857854170E+02  0.00000000000E+00 0. -1.
</event>
<event>
 5    1  0.6835449E-004  0.9118800E+02  0.7818608E-02  0.1130116E+00
         25   -1    0    0    0    0  0.00000000000E+00  0.00000000000E+00  0.99999998245E-14  0.12500000000E+03  0.12500000000E+03 0.  0.
        -13    1    3    3    0    0 -0.26564431047E+02 -0.63773908028E+01 -0.20343909021E+02  0.34062089023E+02  0.10566000000E+00 0.  1.
         23    2    1    0    0    0  0.21785771906E+02 -0.12266509254E+02  0.16421360884E+02  0.95087658064E+02  0.90260259894E+02 0.  0.
         13    1    3    3    0    0  0.48350202953E+02 -0.58891184516E+01  0.36765269904E+02  0.61025569042E+02  0.10566000000E+00 0. -1.
         22    1    1    0    0    0 -0.21785771906E+02  0.12266509254E+02 -0.16421360884E+02  0.29912341936E+02  0.00000000000E+00 0. -1.
</event>
<event>
 5    1  0.6835449E-004  0.9118800E+02  0.7818608E-02  0.1130116E+00
         25   -1    0    0    0    0  0.00000000000E+00  0.00000000000E+00  0.99999998245E-14  0.12500000000E+03  0.12500000000E+03 0.  0.
        -13    1    3    3    0    0  0.92302194671E+01 -0.30970033557E+02 -0.10658248046E+02  0.34028654769E+02  0.10566000000E+00 0.  1.
         23    2    1    0    0    0 -0.17033328741E+02  0.16990397943E+02  0.17227589367E+02  0.95409499064E+02  0.90704877300E+02 0.  0.
         13    1    3    3    0    0 -0.26263548208E+02  0.47960431500E+02  0.27885837413E+02  0.61380844295E+02  0.10566000000E+00 0. -1.
         22    1    1    0    0    0  0.17033328741E+02 -0.16990397943E+02 -0.17227589367E+02  0.29590500936E+02  0.00000000000E+00 0. -1.
</event>
<event>
 5    1  0.6835449E-004  0.9118800E+02  0.7818608E-02  0.1130116E+00
         25   -1    0    0    0    0  0.00000000000E+00  0.00000000000E+00  0.99999998245E-14  0.12500000000E+03  0.12500000000E+03 0.  0.
        -13    1    3    3    0    0 -0.31379951673E+02  0.24513777111E+02 -0.23048281644E+02  0.46009358678E+02  0.10566000000E+00 0. -1.
         23    2    1    0    0    0 -0.34141083422E+02 -0.13755062061E+02 -0.73475263034E+01  0.87465996053E+02  0.79003158248E+02 0.  0.
         13    1    3    3    0    0 -0.27611317495E+01 -0.38268839172E+02  0.15700755340E+02  0.41456637374E+02  0.10566000000E+00 0.  1.
         22    1    1    0    0    0  0.34141083422E+02  0.13755062061E+02  0.73475263034E+01  0.37534003947E+02  0.00000000000E+00 0.  1.
</event>
<event>
 5    1  0.6835449E-004  0.9118800E+02  0.7818608E-02  0.1130116E+00
         25   -1    0    0    0    0  0.00000000000E+00  0.00000000000E+00  0.99999998245E-14  0.12500000000E+03  0.12500000000E+03 0.  0.
        -13    1    3    3    0    0 -0.31354767073E+02  0.27929123063E+02 -0.40710715317E+02  0.58485304469E+02  0.10566000000E+00 0. -1.
         23    2    1    0    0    0 -0.11889413073E+02 -0.10949750717E+00 -0.27416977220E+02  0.95115877580E+02  0.90299332196E+02 0.  0.
         13    1    3    3    0    0  0.19465354000E+02 -0.28038620570E+02  0.13293738097E+02  0.36630573111E+02  0.10566000000E+00 0.  1.
         22    1    1    0    0    0  0.11889413073E+02  0.10949750717E+00  0.27416977220E+02  0.29884122420E+02  0.00000000000E+00 0. -1.
</event>
<event>
 5    1  0.6835449E-004  0.9118800E+02  0.7818608E-02  0.1130116E+00
         25   -1    0    0    0    0  0.00000000000E+00  0.00000000000E+00  0.99999998245E-14  0.12500000000E+03  0.12500000000E+03 0.  0.
        -13    1    3    3    0    0  0.22450835476E+02 -0.23716847102E+02  0.59135512314E+00  0.32663277774E+02  0.10566000000E+00 0.  1.
         23    2    1    0    0    0 -0.25781579502E+02  0.14704313349E+02 -0.61302600687E+01  0.94693453493E+02  0.89712671197E+02 0.  0.
         13    1    3    3    0    0 -0.48232414977E+02  0.38421160451E+02 -0.67216151918E+01  0.62030175719E+02  0.10566000000E+00 0. -1.
         22    1    1    0    0    0  0.25781579502E+02 -0.14704313349E+02  0.61302600687E+01  0.30306546507E+02  0.00000000000E+00 0. -1.
</event>
<event>
 5    1  0.6835449E-004  0.9118800E+02  0.7818608E-02  0.1130116E+00
         25   -1    0    0    0    0  0.00000000000E+00  0.00000000000E+00  0.99999998245E-14  0.12500000000E+03  0.12500000000E+03 0.  0.
        -13    1    3    3    0    0  0.35541459711E+02  0.29133191799E+02  0.36317371366E+02  0.58573892220E+02  0.10566000000E+00 0.  1.
         23    2    1    0    0    0  0.71322491051E+01  0.25013670383E+02  0.11342939054E+02  0.96623690344E+02  0.92362993596E+02 0.  0.
         13    1    3    3    0    0 -0.28409210606E+02 -0.41195214168E+01 -0.24974432313E+02  0.38049798125E+02  0.10566000000E+00 0. -1.
         22    1    1    0    0    0 -0.71322491051E+01 -0.25013670383E+02 -0.11342939054E+02  0.28376309656E+02  0.00000000000E+00 0.  1.
</event>
<event>
 5    1  0.6835449E-004  0.9118800E+02  0.7818608E-02  0.1130116E+00
         25   -1    0    0    0    0  0.00000000000E+00  0.00000000000E+00  0.99999998245E-14  0.12500000000E+03  0.12500000000E+03 0.  0.
        -13    1    3    3    0    0 -0.16324752640E+02 -0.34783230925E+02 -0.37522309713E+01  0.38606490434E+02  0.10566000000E+00 0.  1.
         23    2    1    0    0    0 -0.17188420752E+02  0.17085717806E+02  0.17951693332E+02  0.94839979204E+02  0.89916599141E+02 0.  0.
         13    1    3    3    0    0 -0.86366811253E+00  0.51868948731E+02  0.21703924303E+02  0.56233488770E+02  0.10566000000E+00 0. -1.
         22    1    1    0    0    0  0.17188420752E+02 -0.17085717806E+02 -0.17951693332E+02  0.30160020796E+02  0.00000000000E+00 0. -1.
</event>
<event>
 5    1  0.6835449E-004  0.9118800E+02  0.7818608E-02  0.1130116E+00
         25   -1    0    0    0    0  0.00000000000E+00  0.00000000000E+00  0.99999998245E-14  0.12500000000E+03  0.12500000000E+03 0.  0.
        -13    1    3    3    0    0 -0.31666048834E+01  0.20937018091E+02  0.39199033883E+02  0.44552907138E+02  0.10566000000E+00 0. -1.
         23    2    1    0    0    0 -0.20960340436E+02 -0.11333071997E+02 -0.34570853304E+01  0.10092250364E+03  0.98008295105E+02 0.  0.
         13    1    3    3    0    0 -0.17793735553E+02 -0.32270090088E+02 -0.42656119213E+02  0.56369596500E+02  0.10566000000E+00 0.  1.
         22    1    1    0    0    0  0.20960340436E+02  0.11333071997E+02  0.34570853304E+01  0.24077496362E+02  0.00000000000E+00 0.  1.
</event>
<event>
 5    1  0.6835449E-004  0.9118800E+02  0.7818608E-02  0.1130116E+00
         25   -1    0    0    0    0  0.00000000000E+00  0.00000000000E+00  0.99999998245E-14  0.12500000000E+03  0.12500000000E+03 0.  0.
        -13    1    3    3    0    0  0.45349775574E+02 -0.12262978651E+02  0.30031745784E+02  0.55757508095E+02  0.10566000000E+00 0. -1.
         23    2    1    0    0    0  0.16565365946E+02  0.13709875266E+02  0.19595162660E+02  0.95908034985E+02  0.91389325122E+02 0.  0.
         13    1    3    3    0    0 -0.28784409628E+02  0.25972853917E+02 -0.10436583124E+02  0.40150526891E+02  0.10566000000E+00 0.  1.
         22    1    1    0    0    0 -0.16565365946E+02 -0.13709875266E+02 -0.19595162660E+02  0.29091965015E+02  0.00000000000E+00 0.  1.
</event>
<event>
 5    1  0.6835449E-004  0.9118800E+02  0.7818608E-02  0.1130116E+00
         25   -1    0    0    0    0  0.00000000000E+00  0.00000000000E+00  0.99999998245E-14  0.12500000000E+03  0.12500000000E+03 0.  0.
        -13    1    3    3    0    0  0.16485139453E+02  0.28203984574E+02  0.36137040613E+02  0.48714694261E+02  0.10566000000E+00 0. -1.
         23    2    1    0    0    0 -0.93930224849E+00 -0.16113907955E+02  0.20649840102E+02  0.98790150429E+02  0.95249869329E+02 0.  0.
         13    1    3    3    0    0 -0.17424441701E+02 -0.44317892529E+02 -0.15487200511E+02  0.50075456169E+02  0.10566000000E+00 0.  1.
         22    1    1    0    0    0  0.93930224849E+00  0.16113907955E+02 -0.20649840102E+02  0.26209849571E+02  0.00000000000E+00 0. -1.
</event>
<event>
 5    1  0.6835449E-004  0.9118800E+02  0.7818608E-02  0.1130116E+00
         25   -1    0    0    0    0  0.00000000000E+00  0.00000000000E+00  0.99999998245E-14  0.12500000000E+03  0.12500000000E+03 0.  0.
        -13    1    3    3    0    0  0.68560447088E+00 -0.40902323735E+02 -0.30818577550E+02  0.51217829187E+02  0.10566000000E+00 0. -1.
         23    2    1    0    0    0 -0.24249999610E+02 -0.16932761829E+02 -0.36529673207E+01  0.95198572610E+02  0.90413733207E+02 0.  0.
         13    1    3    3    0    0 -0.24935604081E+02  0.23969561906E+02  0.27165610229E+02  0.43980743423E+02  0.10566000000E+00 0.  1.
         22    1    1    0    0    0  0.24249999610E+02  0.16932761829E+02  0.36529673207E+01  0.29801427390E+02  0.00000000000E+00 0. -1.
</event>
<event>
 5    1  0.6835449E-004  0.9118800E+02  0.7818608E-02  0.1130116E+00
         25   -1    0    0    0    0  0.00000000000E+00  0.00000000000E+00  0.99999998245E-14  0.12500000000E+03  0.12500000000E+03 0.  0.
        -13    1    3    3    0    0 -0.32436895884E+02  0.46907387567E+02  0.24085526938E+02  0.61907826604E+02  0.10566000000E+00 0.  1.
         23    2    1    0    0    0 -0.14383944851E+02  0.23712386458E+02  0.53766176481E+01  0.96749634368E+02  0.92533283698E+02 0.  0.
         13    1    3    3    0    0  0.18052951033E+02 -0.23195001108E+02 -0.18708909290E+02  0.34841807764E+02  0.10566000000E+00 0. -1.
         22    1    1    0    0    0  0.14383944851E+02 -0.23712386458E+02 -0.53766176481E+01  0.28250365632E+02  0.00000000000E+00 0.  1.
</event>
<event>
 5    1  0.6835449E-004  0.9118800E+02  0.7818608E-02  0.1130116E+00
         25   -1    0    0    0    0  0.00000000000E+00  0.00000000000E+00  0.99999998245E-14  0.12500000000E+03  0.12500000000E+03 0.  0.
        -13    1    3    3    0    0  0.54365362977E+02  0.56833397657E+01 -0.18485377741E+02  0.57702802330E+02  0.10566000000E+00 0. -1.
         23    2    1    0    0    0  0.18878990847E+02  0.18666746167E+02 -0.11196145610E+02  0.96186506904E+02  0.91769421520E+02 0.  0.
         13    1    3    3    0    0 -0.35486372129E+02  0.12983406401E+02  0.72892321312E+01  0.38483704574E+02  0.10566000000E+00 0.  1.
         22    1    1    0    0    0 -0.18878990847E+02 -0.18666746167E+02  0.11196145610E+02  0.28813493096E+02  0.00000000000E+00 0. -1.
</event>
<event>
 5    1  0.6835449E-004  0.9118800E+02  0.7818608E-02  0.1130116E+00
         25   -1    0    0    0    0  0.00000000000E+00  0.00000000000E+00  0.99999998245E-14  0.12500000000E+03  0.12500000000E+03 0.  0.
        -13    1    3    3    0    0  0.73879069783E+01 -0.26256531171E+02 -0.26368012215E+02  0.37937709879E+02  0.10566000000E+00 0.  1.
         23    2    1    0    0    0 -0.19476379869E+02 -0.73070158061E+01  0.20898687427E+02  0.95513104793E+02  0.90847543710E+02 0.  0.
         13    1    3    3    0    0 -0.26864286847E+02  0.18949515365E+02  0.47266699642E+02  0.57575394914E+02  0.10566000000E+00 0. -1.
         22    1    1    0    0    0  0.19476379869E+02  0.73070158061E+01 -0.20898687427E+02  0.29486895207E+02  0.00000000000E+00 0. -1.
</event>
<event>
 5    1  0.6835449E-004  0.9118800E+02  0.7818608E-02  0.1130116E+00
         25   -1    0    0    0    0  0.00000000000E+00  0.00000000000E+00  0.99999998245E-14  0.12500000000E+03  0.12500000000E+03 0.  0.
        -13    1    3    3    0    0  0.32320392103E+02 -0.21608528411E+02  0.23258933270E+02  0.45304805338E+02  0.10566000000E+00 0.  1.
         23    2    1    0    0    0  0.24685112415E+02  0.39491805647E+01 -0.17830960567E+02  0.94293421603E+02  0.89153549569E+02 0.  0.
         13    1    3    3    0    0 -0.76352796875E+01  0.25557708976E+02 -0.41089893838E+02  0.48988616266E+02  0.10566000000E+00 0. -1.
         22    1    1    0    0    0 -0.24685112415E+02 -0.39491805647E+01  0.17830960567E+02  0.30706578397E+02  0.00000000000E+00 0. -1.
</event>
<event>
 5    1  0.6835449E-004  0.9118800E+02  0.7818608E-02  0.1130116E+00
         25   -1    0    0    0    0  0.00000000000E+00  0.00000000000E+00  0.99999998245E-14  0.12500000000E+03  0.12500000000E+03 0.  0.
        -13    1    3    3    0    0  0.96361498977E+01 -0.34953695487E+02  0.17387846367E+02  0.40211498087E+02  0.10566000000E+00 0. -1.
         23    2    1    0    0    0 -0.66411507309E+01  0.46857644852E+01  0.36841907849E+02  0.87272192672E+02  0.78695922181E+02 0.  0.
         13    1    3    3    0    0 -0.16277300629E+02  0.39639459972E+02  0.19454061482E+02  0.47060694585E+02  0.10566000000E+00 0.  1.
         22    1    1    0    0    0  0.66411507309E+01 -0.46857644852E+01 -0.36841907849E+02  0.37727807328E+02  0.00000000000E+00 0.  1.
</event>
<event>
 5    1  0.6835449E-004  0.9118800E+02  0.7818608E-02  0.1130116E+00
         25   -1    0    0    0    0  0.00000000000E+00  0.00000000000E+00  0.99999998245E-14  0.12500000000E+03  0.12500000000E+03 0.  0.
        -13    1    3    3    0    0 -0.10690083121E+02  0.23217378816E+02  0.48435918021E+01  0.26015305145E+02  0.10566000000E+00 0. -1.
         23    2    1    0    0    0 -0.59586953263E+01 -0.37302865287E+02 -0.23840629863E+01  0.87149061241E+02  0.78500097518E+02 0.  0.
         13    1    3    3    0    0  0.47313877944E+01 -0.60520244102E+02 -0.72276547884E+01  0.61133756096E+02  0.10566000000E+00 0.  1.
         22    1    1    0    0    0  0.59586953263E+01  0.37302865287E+02  0.23840629863E+01  0.37850938759E+02  0.00000000000E+00 0.  1.
</event>
<event>
 5    1  0.6835449E-004  0.9118800E+02  0.7818608E-02  0.1130116E+00
         25   -1    0    0    0    0  0.00000000000E+00  0.00000000000E+00  0.99999998245E-14  0.12500000000E+03  0.12500000000E+03 0.  0.
        -13    1    3    3    0    0 -0.49448386798E+02  0.21781732883E+02 -0.38030370699E+01  0.54166974249E+02  0.10566000000E+00 0. -1.
         23    2    1    0    0    0 -0.17269915025E+02  0.43409134717E+01 -0.23329508959E+02  0.95651073563E+02  0.91037181365E+02 0.  0.
         13    1    3    3    0    0  0.32178471774E+02 -0.17440819411E+02 -0.19526471889E+02  0.41484099314E+02  0.10566000000E+00 0.  1.
         22    1    1    0    0    0  0.17269915025E+02 -0.43409134717E+01  0.23329508959E+02  0.29348926437E+02  0.00000000000E+00 0. -1.
</event>
<event>
 5    1  0.6835449E-004  0.9118800E+02  0.7818608E-02  0.1130116E+00
         25   -1    0    0    0    0  0.00000000000E+00  0.00000000000E+00  0.99999998245E-14  0.12500000000E+03  0.12500000000E+03 0.  0.
        -13    1    3    3    0    0 -0.43645402333E+01 -0.29908243953E+02 -0.14603224460E+02  0.33568103856E+02  0.10566000000E+00 0.  1.
         23    2    1    0    0    0  0.21626666726E+02  0.15833806782E+02  0.15354374368E+02  0.94110212641E+02  0.88896305661E+02 0.  0.
         13    1    3    3    0    0  0.25991206959E+02  0.45742050735E+02  0.29957598827E+02  0.60542108785E+02  0.10566000000E+00 0. -1.
         22    1    1    0    0    0 -0.21626666726E+02 -0.15833806782E+02 -0.15354374368E+02  0.30889787359E+02  0.00000000000E+00 0. -1.
</event>
<event>
 5    1  0.6835449E-004  0.9118800E+02  0.7818608E-02  0.1130116E+00
         25   -1    0    0    0    0  0.00000000000E+00  0.00000000000E+00  0.99999998245E-14  0.12500000000E+03  0.12500000000E+03 0.  0.
        -13    1    3    3    0    0  0.15930426914E+02 -0.80849042599E+01 -0.42877176131E+02  0.46450054634E+02  0.10566000000E+00 0. -1.
         23    2    1    0    0    0  0.17055771616E+02  0.23718765751E+02 -0.59718331546E+01  0.95181516044E+02  0.90390148860E+02 0.  0.
         13    1    3    3    0    0  0.11253447021E+01  0.31803670011E+02  0.36905342976E+02  0.48731461410E+02  0.10566000000E+00 0.  1.
         22    1    1    0    0    0 -0.17055771616E+02 -0.23718765751E+02  0.59718331546E+01  0.29818483956E+02  0.00000000000E+00 0. -1.
</event>
<event>
 5    1  0.6835449E-004  0.9118800E+02  0.7818608E-02  0.1130116E+00
         25   -1    0    0    0    0  0.00000000000E+00  0.00000000000E+00  0.99999998245E-14  0.12500000000E+03  0.12500000000E+03 0.  0.
        -13    1    3    3    0    0  0.14722715090E+02  0.42341885604E+02 -0.29198438628E+01  0.44923604801E+02  0.10566000000E+00 0.  1.
         23    2    1    0    0    0  0.83255798614E+01  0.24662670538E+01  0.27934716635E+02  0.95746860909E+02  0.91168608782E+02 0.  0.
         13    1    3    3    0    0 -0.63971352291E+01 -0.39875618550E+02  0.30854560498E+02  0.50823256108E+02  0.10566000000E+00 0. -1.
         22    1    1    0    0    0 -0.83255798614E+01 -0.24662670538E+01 -0.27934716635E+02  0.29253139091E+02  0.00000000000E+00 0. -1.
</event>
<event>
 5    1  0.6835449E-004  0.9118800E+02  0.7818608E-02  0.1130116E+00
         25   -1    0    0    0    0  0.00000000000E+00  0.00000000000E+00  0.99999998245E-14  0.12500000000E+03  0.12500000000E+03 0.  0.
        -13    1    3    3    0    0  0.30535268069E+02 -0.15694113316E+02  0.34160903409E+02  0.48432285457E+02  0.10566000000E+00 0.  1.
         23    2    1    0    0    0  0.11514850688E+02  0.17280483572E+02  0.32370421747E+02  0.86541566557E+02  0.77526715648E+02 0.  0.
         13    1    3    3    0    0 -0.19020417381E+02  0.32974596889E+02 -0.17904816622E+01  0.38109281100E+02  0.10566000000E+00 0. -1.
         22    1    1    0    0    0 -0.11514850688E+02 -0.17280483572E+02 -0.32370421747E+02  0.38458433443E+02  0.00000000000E+00 0.  1.
</event>
<event>
 5    1  0.6835449E-004  0.9118800E+02  0.7818608E-02  0.1130116E+00
         25   -1    0    0    0    0  0.00000000000E+00  0.00000000000E+00  0.99999998245E-14  0.12500000000E+03  0.12500000000E+03 0.  0.
        -13    1    3    3    0    0  0.13067349668E+02 -0.13111947382E+02  0.55286520863E+02  0.58303424811E+02  0.10566000000E+00 0.  1.
         23    2    1    0    0    0  0.12113981228E+02  0.90190451601E+01  0.24169430219E+02  0.96499946072E+02  0.92195371457E+02 0.  0.
         13    1    3    3    0    0 -0.95336843996E+00  0.22130992542E+02 -0.31117090644E+02  0.38196521261E+02  0.10566000000E+00 0. -1.
         22    1    1    0    0    0 -0.12113981228E+02 -0.90190451601E+01 -0.24169430219E+02  0.28500053928E+02  0.00000000000E+00 0.  1.
</event>
<event>
 5    1  0.6835449E-004  0.9118800E+02  0.7818608E-02  0.1130116E+00
         25   -1    0    0    0    0  0.00000000000E+00  0.00000000000E+00  0.99999998245E-14  0.12500000000E+03  0.12500000000E+03 0.  0.
        -13    1    3    3    0    0 -0.16790814832E+02  0.27422901966E+02  0.41252574966E+02  0.52304236161E+02  0.10566000000E+00 0.  1.
         23    2    1    0    0    0 -0.27697981434E+02  0.10450348386E+02  0.33951977727E+01  0.95202091939E+02  0.90418598666E+02 0.  0.
         13    1    3    3    0    0 -0.10907166602E+02 -0.16972553580E+02 -0.37857377194E+02  0.42897855778E+02  0.10566000000E+00 0. -1.
         22    1    1    0    0    0  0.27697981434E+02 -0.10450348386E+02 -0.33951977727E+01  0.29797908061E+02  0.00000000000E+00 0. -1.
</event>
<event>
 5    1  0.6835449E-004  0.9118800E+02  0.7818608E-02  0.1130116E+00
         25   -1    0    0    0    0  0.00000000000E+00  0.00000000000E+00  0.99999998245E-14  0.12500000000E+03  0.12500000000E+03 0.  0.
        -13    1    3    3    0    0  0.29550269745E+02 -0.18450920672E+02  0.21049671348E+02  0.40703252248E+02  0.10566000000E+00 0.  1.
         23    2    1    0    0    0 -0.24254221701E+02 -0.68043106291E+01  0.13935562789E+02  0.96211706828E+02  0.91803740159E+02 0.  0.
         13    1    3    3    0    0 -0.53804491447E+02  0.11646610043E+02 -0.71141085584E+01  0.55508454581E+02  0.10566000000E+00 0. -1.
         22    1    1    0    0    0  0.24254221701E+02  0.68043106291E+01 -0.13935562789E+02  0.28788293172E+02  0.00000000000E+00 0.  1.
</event>
<event>
 5    1  0.6835449E-004  0.9118800E+02  0.7818608E-02  0.1130116E+00
         25   -1    0    0    0    0  0.00000000000E+00  0.00000000000E+00  0.99999998245E-14  0.12500000000E+03  0.12500000000E+03 0.  0.
        -13    1    3    3    0    0  0.24652416606E+02  0.20965049836E+02 -0.34222572902E+02  0.47100643512E+02  0.10566000000E+00 0.  1.
         23    2    1    0    0    0 -0.18913085983E+02  0.18230472323E+02 -0.11313013679E+02  0.96398615051E+02  0.92057882676E+02 0.  0.
         13    1    3    3    0    0 -0.43565502590E+02 -0.27345775134E+01  0.22909559223E+02  0.49297971539E+02  0.10566000000E+00 0. -1.
         22    1    1    0    0    0  0.18913085983E+02 -0.18230472323E+02  0.11313013679E+02  0.28601384949E+02  0.00000000000E+00 0.  1.
</event>
<event>
 5    1  0.6835449E-004  0.9118800E+02  0.7818608E-02  0.1130116E+00
         25   -1    0    0    0    0  0.00000000000E+00  0.00000000000E+00  0.99999998245E-14  0.12500000000E+03  0.12500000000E+03 0.  0.
        -13    1    3    3    0    0  0.53775825483E+01 -0.18600673603E+02  0.57795840086E+02  0.60953045436E+02  0.10566000000E+00 0. -1.
         23    2    1    0    0    0  0.77887623774E+01 -0.15677574863E+02  0.22305061829E+02  0.96645688932E+02  0.92392760717E+02 0.  0.
         13    1    3    3    0    0  0.24111798291E+01  0.29230987402E+01 -0.35490778257E+02  0.35692643496E+02  0.10566000000E+00 0.  1.
         22    1    1    0    0    0 -0.77887623774E+01  0.15677574863E+02 -0.22305061829E+02  0.28354311068E+02  0.00000000000E+00 0. -1.
</event>
<event>
 5    1  0.6835449E-004  0.9118800E+02  0.7818608E-02  0.1130116E+00
         25   -1    0    0    0    0  0.00000000000E+00  0.00000000000E+00  0.99999998245E-14  0.12500000000E+03  0.12500000000E+03 0.  0.
        -13    1    3    3    0    0 -0.49625961132E+02  0.13631982966E+02 -0.19949523472E+02  0.55195666756E+02  0.10566000000E+00 0.  1.
         23    2    1    0    0    0 -0.12642150530E+02  0.79593329932E+00 -0.27186651488E+02  0.95007142534E+02  0.90148686255E+02 0.  0.
         13    1    3    3    0    0  0.36983810602E+02 -0.12836049667E+02 -0.72371280156E+01  0.39811475778E+02  0.10566000000E+00 0. -1.
         22    1    1    0    0    0  0.12642150530E+02 -0.79593329932E+00  0.27186651488E+02  0.29992857466E+02  0.00000000000E+00 0.  1.
</event>
<event>
 5    1  0.6835449E-004  0.9118800E+02  0.7818608E-02  0.1130116E+00
         25   -1    0    0    0    0  0.00000000000E+00  0.00000000000E+00  0.99999998245E-14  0.12500000000E+03  0.12500000000E+03 0.  0.
        -13    1    3    3    0    0  0.13601240408E+02  0.51780788528E+01 -0.44480732405E+02  0.46801206828E+02  0.10566000000E+00 0. -1.
         23    2    1    0    0    0  0.44744917987E+01 -0.27422385367E+02 -0.91165248053E+01  0.95757576697E+02  0.91183299865E+02 0.  0.
         13    1    3    3    0    0 -0.91267486092E+01 -0.32600464220E+02  0.35364207600E+02  0.48956369869E+02  0.10566000000E+00 0.  1.
         22    1    1    0    0    0 -0.44744917987E+01  0.27422385367E+02  0.91165248053E+01  0.29242423303E+02  0.00000000000E+00 0.  1.
</event>
<event>
 5    1  0.6835449E-004  0.9118800E+02  0.7818608E-02  0.1130116E+00
         25   -1    0    0    0    0  0.00000000000E+00  0.00000000000E+00  0.99999998245E-14  0.12500000000E+03  0.12500000000E+03 0.  0.
        -13    1    3    3    0    0 -0.49907619193E+01 -0.56745014138E+02  0.15497895194E+01  0.56985237962E+02  0.10566000000E+00 0.  1.
         23    2    1    0    0    0 -0.20478362535E+02 -0.22649335372E+02  0.78175885590E-02  0.94465498431E+02  0.89394488688E+02 0.  0.
         13    1    3    3    0    0 -0.15487600616E+02  0.34095678765E+02 -0.15419719308E+01  0.37480260469E+02  0.10566000000E+00 0. -1.
         22    1    1    0    0    0  0.20478362535E+02  0.22649335372E+02 -0.78175885590E-02  0.30534501569E+02  0.00000000000E+00 0.  1.
</event>
<event>
 5    1  0.6835449E-004  0.9118800E+02  0.7818608E-02  0.1130116E+00
         25   -1    0    0    0    0  0.00000000000E+00  0.00000000000E+00  0.99999998245E-14  0.12500000000E+03  0.12500000000E+03 0.  0.
        -13    1    3    3    0    0 -0.22577653578E+02  0.41253780586E+02  0.41038577933E+02  0.62416351196E+02  0.10566000000E+00 0.  1.
         23    2    1    0    0    0 -0.11121416120E+02  0.17011733000E+02  0.19845134184E+02  0.96593762886E+02  0.92322482211E+02 0.  0.
         13    1    3    3    0    0  0.11456237459E+02 -0.24242047587E+02 -0.21193443749E+02  0.34177411691E+02  0.10566000000E+00 0. -1.
         22    1    1    0    0    0  0.11121416120E+02 -0.17011733000E+02 -0.19845134184E+02  0.28406237114E+02  0.00000000000E+00 0.  1.
</event>
<event>
 5    1  0.6835449E-004  0.9118800E+02  0.7818608E-02  0.1130116E+00
         25   -1    0    0    0    0  0.00000000000E+00  0.00000000000E+00  0.99999998245E-14  0.12500000000E+03  0.12500000000E+03 0.  0.
        -13    1    3    3    0    0  0.37533190624E+02  0.14295874985E+02  0.41476284017E+02  0.57735653975E+02  0.10566000000E+00 0.  1.
         23    2    1    0    0    0  0.19225371825E+02 -0.10667275663E+02  0.17905506360E+02  0.96644879653E+02  0.92391665821E+02 0.  0.
         13    1    3    3    0    0 -0.18307818798E+02 -0.24963150649E+02 -0.23570777657E+02  0.38909225678E+02  0.10566000000E+00 0. -1.
         22    1    1    0    0    0 -0.19225371825E+02  0.10667275663E+02 -0.17905506360E+02  0.28355120347E+02  0.00000000000E+00 0.  1.
</event>
<event>
 5    1  0.6835449E-004  0.9118800E+02  0.7818608E-02  0.1130116E+00
         25   -1    0    0    0    0  0.00000000000E+00  0.00000000000E+00  0.99999998245E-14  0.12500000000E+03  0.12500000000E+03 0.  0.
        -13    1    3    3    0    0 -0.12820728402E+02  0.11082638997E+02  0.34068103404E+02  0.38050529529E+02  0.10566000000E+00 0. -1.
         23    2    1    0    0    0 -0.18807049180E+02  0.74617119773E+01 -0.22321784265E+02  0.94872864436E+02  0.89962303823E+02 0.  0.
         13    1    3    3    0    0 -0.59863207774E+01 -0.36209270193E+01 -0.56389887669E+02  0.56822334907E+02  0.10566000000E+00 0.  1.
         22    1    1    0    0    0  0.18807049180E+02 -0.74617119773E+01  0.22321784265E+02  0.30127135564E+02  0.00000000000E+00 0.  1.
</event>
<event>
 5    1  0.6835449E-004  0.9118800E+02  0.7818608E-02  0.1130116E+00
         25   -1    0    0    0    0  0.00000000000E+00  0.00000000000E+00  0.99999998245E-14  0.12500000000E+03  0.12500000000E+03 0.  0.
        -13    1    3    3    0    0  0.21669090551E+02 -0.50971303441E+02 -0.24928351603E+02  0.60737608922E+02  0.10566000000E+00 0.  1.
         23    2    1    0    0    0  0.20907270105E+01 -0.22354876908E+02 -0.18290754611E+02  0.96040314829E+02  0.91570075392E+02 0.  0.
         13    1    3    3    0    0 -0.19578363541E+02  0.28616426534E+02  0.66375969921E+01  0.35302705907E+02  0.10566000000E+00 0. -1.
         22    1    1    0    0    0 -0.20907270105E+01  0.22354876908E+02  0.18290754611E+02  0.28959685171E+02  0.00000000000E+00 0.  1.
</event>
<event>
 5    1  0.6835449E-004  0.9118800E+02  0.7818608E-02  0.1130116E+00
         25   -1    0    0    0    0  0.00000000000E+00  0.00000000000E+00  0.99999998245E-14  0.12500000000E+03  0.12500000000E+03 0.  0.
        -13    1    3    3    0    0  0.28163988570E+02  0.19400376128E+02  0.16974130473E+02  0.38180061752E+02  0.10566000000E+00 0. -1.
         23    2    1    0    0    0 -0.22265900837E+02 -0.76320771010E+01  0.17937546955E+02  0.95406512005E+02  0.90700760753E+02 0.  0.
         13    1    3    3    0    0 -0.50429889407E+02 -0.27032453228E+02  0.96341648202E+00  0.57226450253E+02  0.10566000000E+00 0.  1.
         22    1    1    0    0    0  0.22265900837E+02  0.76320771010E+01 -0.17937546955E+02  0.29593487995E+02  0.00000000000E+00 0.  1.
</event>
<event>
 5    1  0.6835449E-004  0.9118800E+02  0.7818608E-02  0.1130116E+00
         25   -1    0    0    0    0  0.00000000000E+00  0.00000000000E+00  0.99999998245E-14  0.12500000000E+03  0.12500000000E+03 0.  0.
        -13    1    3    3    0    0 -0.27846602533E+02  0.21437009214E+02  0.13973580116E+02  0.37818656005E+02  0.10566000000E+00 0.  1.
         23    2    1    0    0    0  0.14506951947E+02 -0.60043068272E+01 -0.20678477769E+02  0.99036510287E+02  0.95572629825E+02 0.  0.
         13    1    3    3    0    0  0.42353554480E+02 -0.27441316041E+02 -0.34652057885E+02  0.61217854282E+02  0.10566000000E+00 0. -1.
         22    1    1    0    0    0 -0.14506951947E+02  0.60043068272E+01  0.20678477769E+02  0.25963489713E+02  0.00000000000E+00 0. -1.
</event>
<event>
 5    1  0.6835449E-004  0.9118800E+02  0.7818608E-02  0.1130116E+00
         25   -1    0    0    0    0  0.00000000000E+00  0.00000000000E+00  0.99999998245E-14  0.12500000000E+03  0.12500000000E+03 0.  0.
        -13    1    3    3    0    0 -0.50686344682E+02  0.45532392878E+01  0.24341065089E+02  0.56412198494E+02  0.10566000000E+00 0.  1.
         23    2    1    0    0    0 -0.21249289324E+02 -0.16207878743E+02  0.17436499047E+02  0.93089827184E+02  0.87449738685E+02 0.  0.
         13    1    3    3    0    0  0.29437055358E+02 -0.20761118031E+02 -0.69045660422E+01  0.36677628690E+02  0.10566000000E+00 0. -1.
         22    1    1    0    0    0  0.21249289324E+02  0.16207878743E+02 -0.17436499047E+02  0.31910172816E+02  0.00000000000E+00 0.  1.
</event>
<event>
 5    1  0.6835449E-004  0.9118800E+02  0.7818608E-02  0.1130116E+00
         25   -1    0    0    0    0  0.00000000000E+00  0.00000000000E+00  0.99999998245E-14  0.12500000000E+03  0.12500000000E+03 0.  0.
        -13    1    3    3    0    0 -0.25680071929E+02 -0.18318112732E+02  0.23325745448E+02  0.39231631538E+02  0.10566000000E+00 0.  1.
         23    2    1    0    0    0  0.27370715117E+02 -0.49561050205E+01  0.85549106992E+01  0.95898358808E+02  0.91376089334E+02 0.  0.
         13    1    3    3    0    0  0.53050787046E+02  0.13362007712E+02 -0.14770834749E+02  0.56666727270E+02  0.10566000000E+00 0. -1.
         22    1    1    0    0    0 -0.27370715117E+02  0.49561050205E+01 -0.85549106992E+01  0.29101641192E+02  0.00000000000E+00 0. -1.
</event>
<event>
 5    1  0.6835449E-004  0.9118800E+02  0.7818608E-02  0.1130116E+00
         25   -1    0    0    0    0  0.00000000000E+00  0.00000000000E+00  0.99999998245E-14  0.12500000000E+03  0.12500000000E+03 0.  0.
        -13    1    3    3    0    0 -0.24332623548E+02 -0.40732727641E+02  0.10117543619E+02  0.48513993061E+02  0.10566000000E+00 0. -1.
         23    2    1    0    0    0 -0.16882451638E+02 -0.31980901728E+02 -0.22030193408E+02  0.82654697188E+02  0.70983619920E+02 0.  0.
         13    1    3    3    0    0  0.74501719093E+01  0.87518259131E+01 -0.32147737027E+02  0.34140704127E+02  0.10566000000E+00 0.  1.
         22    1    1    0    0    0  0.16882451638E+02  0.31980901728E+02  0.22030193408E+02  0.42345302812E+02  0.00000000000E+00 0. -1.
</event>
<event>
 5    1  0.6835449E-004  0.9118800E+02  0.7818608E-02  0.1130116E+00
         25   -1    0    0    0    0  0.00000000000E+00  0.00000000000E+00  0.99999998245E-14  0.12500000000E+03  0.12500000000E+03 0.  0.
        -13    1    3    3    0    0 -0.52046445800E+01  0.57822309364E+02  0.94036905657E+01  0.58812824670E+02  0.10566000000E+00 0. -1.
         23    2    1    0    0    0  0.91289576689E+01  0.23830137651E+02  0.13840467388E+02  0.95969466659E+02  0.91473311215E+02 0.  0.
         13    1    3    3    0    0  0.14333602249E+02 -0.33992171714E+02  0.44367768222E+01  0.37156641988E+02  0.10566000000E+00 0.  1.
         22    1    1    0    0    0 -0.91289576689E+01 -0.23830137651E+02 -0.13840467388E+02  0.29030533341E+02  0.00000000000E+00 0. -1.
</event>
<event>
 5    1  0.6835449E-004  0.9118800E+02  0.7818608E-02  0.1130116E+00
         25   -1    0    0    0    0  0.00000000000E+00  0.00000000000E+00  0.99999998245E-14  0.12500000000E+03  0.12500000000E+03 0.  0.
        -13    1    3    3    0    0  0.13659524693E+02  0.16721242188E+02 -0.45081349656E+02  0.49985215874E+02  0.10566000000E+00 0.  1.
         23    2    1    0    0    0  0.63476914584E+01 -0.20024490490E+02 -0.85297342584E+01  0.10232777530E+03  0.99784486898E+02 0.  0.
         13    1    3    3    0    0 -0.73118332344E+01 -0.36745732678E+02  0.36551615397E+02  0.52342559428E+02  0.10566000000E+00 0. -1.
         22    1    1    0    0    0 -0.63476914584E+01  0.20024490490E+02  0.85297342584E+01  0.22672224698E+02  0.00000000000E+00 0. -1.
</event>
<event>
 5    1  0.6835449E-004  0.9118800E+02  0.7818608E-02  0.1130116E+00
         25   -1    0    0    0    0  0.00000000000E+00  0.00000000000E+00  0.99999998245E-14  0.12500000000E+03  0.12500000000E+03 0.  0.
        -13    1    3    3    0    0 -0.52956336564E+01  0.46997626134E+02 -0.18262409525E+02  0.50698593311E+02  0.10566000000E+00 0.  1.
         23    2    1    0    0    0  0.13050193334E+02  0.80239653316E+01 -0.26343509659E+02  0.94525878736E+02  0.89478878423E+02 0.  0.
         13    1    3    3    0    0  0.18345826991E+02 -0.38973660802E+02 -0.80811001337E+01  0.43827285425E+02  0.10566000000E+00 0. -1.
         22    1    1    0    0    0 -0.13050193334E+02 -0.80239653316E+01  0.26343509659E+02  0.30474121264E+02  0.00000000000E+00 0. -1.
</event>
<event>
 5    1  0.6835449E-004  0.9118800E+02  0.7818608E-02  0.1130116E+00
         25   -1    0    0    0    0  0.00000000000E+00  0.00000000000E+00  0.99999998245E-14  0.12500000000E+03  0.12500000000E+03 0.  0.
        -13    1    3    3    0    0 -0.45388568426E+02 -0.15769960728E+02 -0.31591260074E+02  0.57505066579E+02  0.10566000000E+00 0. -1.
         23    2    1    0    0    0 -0.19991058092E+02  0.37562303175E+01  0.27555048489E+01  0.10447332280E+03  0.10243695964E+03 0.  0.
         13    1    3    3    0    0  0.25397510334E+02  0.19526191046E+02  0.34346764923E+02  0.46968256223E+02  0.10566000000E+00 0.  1.
         22    1    1    0    0    0  0.19991058092E+02 -0.37562303175E+01 -0.27555048489E+01  0.20526677198E+02  0.00000000000E+00 0. -1.
</event>
<event>
 5    1  0.6835449E-004  0.9118800E+02  0.7818608E-02  0.1130116E+00
         25   -1    0    0    0    0  0.00000000000E+00  0.00000000000E+00  0.99999998245E-14  0.12500000000E+03  0.12500000000E+03 0.  0.
        -13    1    3    3    0    0 -0.11581611797E+02 -0.48878149634E+02  0.36028214697E+02  0.61816265349E+02  0.10566000000E+00 0.  1.
         23    2    1    0    0    0 -0.10243519616E+02 -0.24958799473E+02  0.12977320850E+02  0.95062027094E+02  0.90224756988E+02 0.  0.
         13    1    3    3    0    0  0.13380921811E+01  0.23919350161E+02 -0.23050893847E+02  0.33245761745E+02  0.10566000000E+00 0. -1.
         22    1    1    0    0    0  0.10243519616E+02  0.24958799473E+02 -0.12977320850E+02  0.29937972906E+02  0.00000000000E+00 0.  1.
</event>
<event>
 5    1  0.6835449E-004  0.9118800E+02  0.7818608E-02  0.1130116E+00
         25   -1    0    0    0    0  0.00000000000E+00  0.00000000000E+00  0.99999998245E-14  0.12500000000E+03  0.12500000000E+03 0.  0.
        -13    1    3    3    0    0  0.18427604461E+02 -0.24639422800E+02 -0.35131380793E+02  0.46700137500E+02  0.10566000000E+00 0. -1.
         23    2    1    0    0    0 -0.13616832956E+02 -0.33075831833E+02 -0.11399609225E+02  0.87458291439E+02  0.78990966951E+02 0.  0.
         13    1    3    3    0    0 -0.32044437417E+02 -0.84364090335E+01  0.23731771568E+02  0.40758153939E+02  0.10566000000E+00 0.  1.
         22    1    1    0    0    0  0.13616832956E+02  0.33075831833E+02  0.11399609225E+02  0.37541708561E+02  0.00000000000E+00 0.  1.
</event>
<event>
 5    1  0.6835449E-004  0.9118800E+02  0.7818608E-02  0.1130116E+00
         25   -1    0    0    0    0  0.00000000000E+00  0.00000000000E+00  0.99999998245E-14  0.12500000000E+03  0.12500000000E+03 0.  0.
        -13    1    3    3    0    0 -0.36787502206E+02  0.10331157723E+02 -0.12044628952E+02  0.40064165897E+02  0.10566000000E+00 0. -1.
         23    2    1    0    0    0  0.19522197058E+02  0.79900245996E+01 -0.18695266579E+02  0.96813661757E+02  0.92619735690E+02 0.  0.
         13    1    3    3    0    0  0.56309699263E+02 -0.23411331233E+01 -0.66506376272E+01  0.56749495860E+02  0.10566000000E+00 0.  1.
         22    1    1    0    0    0 -0.19522197058E+02 -0.79900245996E+01  0.18695266579E+02  0.28186338243E+02  0.00000000000E+00 0.  1.
</event>
<event>
 5    1  0.6835449E-004  0.9118800E+02  0.7818608E-02  0.1130116E+00
         25   -1    0    0    0    0  0.00000000000E+00  0.00000000000E+00  0.99999998245E-14  0.12500000000E+03  0.12500000000E+03 0.  0.
        -13    1    3    3    0    0 -0.41110797020E+00 -0.15801229904E+02 -0.33386794654E+02  0.36939641275E+02  0.10566000000E+00 0. -1.
         23    2    1    0    0    0 -0.24525655016E+02  0.12934739902E+02  0.11101042361E+02  0.95132820826E+02  0.90322783430E+02 0.  0.
         13    1    3    3    0    0 -0.24114547046E+02  0.28735969806E+02  0.44487837015E+02  0.58193179551E+02  0.10566000000E+00 0.  1.
         22    1    1    0    0    0  0.24525655016E+02 -0.12934739902E+02 -0.11101042361E+02  0.29867179174E+02  0.00000000000E+00 0.  1.
</event>
<event>
 5    1  0.6835449E-004  0.9118800E+02  0.7818608E-02  0.1130116E+00
         25   -1    0    0    0    0  0.00000000000E+00  0.00000000000E+00  0.99999998245E-14  0.12500000000E+03  0.12500000000E+03 0.  0.
        -13    1    3    3    0    0  0.48626371183E+01  0.34215616570E+01 -0.33077530030E+02  0.33607833623E+02  0.10566000000E+00 0. -1.
         23    2    1    0    0    0  0.13304778897E+02 -0.23547340923E+01  0.27137110969E+02  0.94685239472E+02  0.89701225565E+02 0.  0.
         13    1    3    3    0    0  0.84421417791E+01 -0.57762957493E+01  0.60214640999E+02  0.61077405848E+02  0.10566000000E+00 0.  1.
         22    1    1    0    0    0 -0.13304778897E+02  0.23547340923E+01 -0.27137110969E+02  0.30314760528E+02  0.00000000000E+00 0.  1.
</event>
<event>
 5    1  0.6835449E-004  0.9118800E+02  0.7818608E-02  0.1130116E+00
         25   -1    0    0    0    0  0.00000000000E+00  0.00000000000E+00  0.99999998245E-14  0.12500000000E+03  0.12500000000E+03 0.  0.
        -13    1    3    3    0    0 -0.33448044469E+02 -0.48046827774E+02  0.19863074395E+02  0.61820888270E+02  0.10566000000E+00 0. -1.
         23    2    1    0    0    0 -0.10619373456E+02 -0.26547308041E+02  0.10365474769E+02  0.94586619326E+02  0.89563691480E+02 0.  0.
         13    1    3    3    0    0  0.22828671013E+02  0.21499519733E+02 -0.94975996264E+01  0.32765731056E+02  0.10566000000E+00 0.  1.
         22    1    1    0    0    0  0.10619373456E+02  0.26547308041E+02 -0.10365474769E+02  0.30413380674E+02  0.00000000000E+00 0. -1.
</event>
<event>
 5    1  0.6835449E-004  0.9118800E+02  0.7818608E-02  0.1130116E+00
         25   -1    0    0    0    0  0.00000000000E+00  0.00000000000E+00  0.99999998245E-14  0.12500000000E+03  0.12500000000E+03 0.  0.
        -13    1    3    3    0    0 -0.36075177382E+02 -0.11614969882E+00  0.24320603026E+02  0.43507870661E+02  0.10566000000E+00 0.  1.
         23    2    1    0    0    0  0.13585573856E+02  0.15588467151E+02  0.20736120960E+02  0.95715962751E+02  0.91126234904E+02 0.  0.
         13    1    3    3    0    0  0.49660751239E+02  0.15704616850E+02 -0.35844820660E+01  0.52208092090E+02  0.10566000000E+00 0. -1.
         22    1    1    0    0    0 -0.13585573856E+02 -0.15588467151E+02 -0.20736120960E+02  0.29284037249E+02  0.00000000000E+00 0.  1.
</event>
<event>
 5    1  0.6835449E-004  0.9118800E+02  0.7818608E-02  0.1130116E+00
         25   -1    0    0    0    0  0.00000000000E+00  0.00000000000E+00  0.99999998245E-14  0.12500000000E+03  0.12500000000E+03 0.  0.
        -13    1    3    3    0    0 -0.46839423170E+02 -0.10697174874E+02 -0.13425701394E+01  0.48064277502E+02  0.10566000000E+00 0. -1.
         23    2    1    0    0    0 -0.18680676797E+02  0.23346847597E+02 -0.10732439840E+02  0.93231647143E+02  0.87652220656E+02 0.  0.
         13    1    3    3    0    0  0.28158746373E+02  0.34044022471E+02 -0.93898697009E+01  0.45167369642E+02  0.10566000000E+00 0.  1.
         22    1    1    0    0    0  0.18680676797E+02 -0.23346847597E+02  0.10732439840E+02  0.31768352857E+02  0.00000000000E+00 0.  1.
</event>
<event>
 5    1  0.6835449E-004  0.9118800E+02  0.7818608E-02  0.1130116E+00
         25   -1    0    0    0    0  0.00000000000E+00  0.00000000000E+00  0.99999998245E-14  0.12500000000E+03  0.12500000000E+03 0.  0.
        -13    1    3    3    0    0 -0.59758945161E+02  0.12873255285E+01  0.46122227187E+01  0.59950583786E+02  0.10566000000E+00 0. -1.
         23    2    1    0    0    0 -0.28726831116E+02  0.10785508870E+01 -0.10407169101E+02  0.94427082791E+02  0.89340756085E+02 0.  0.
         13    1    3    3    0    0  0.31032114046E+02 -0.20877464147E+00 -0.15019391820E+02  0.34476499005E+02  0.10566000000E+00 0.  1.
         22    1    1    0    0    0  0.28726831116E+02 -0.10785508870E+01  0.10407169101E+02  0.30572917209E+02  0.00000000000E+00 0. -1.
</event>
<event>
 5    1  0.6835449E-004  0.9118800E+02  0.7818608E-02  0.1130116E+00
         25   -1    0    0    0    0  0.00000000000E+00  0.00000000000E+00  0.99999998245E-14  0.12500000000E+03  0.12500000000E+03 0.  0.
        -13    1    3    3    0    0 -0.31382742707E+02  0.71418642229E+01 -0.10166907633E+02  0.33752924899E+02  0.10566000000E+00 0.  1.
         23    2    1    0    0    0  0.26240582275E+02 -0.84905689371E+01  0.82111661605E+01  0.96223600491E+02  0.91819933145E+02 0.  0.
         13    1    3    3    0    0  0.57623324982E+02 -0.15632433160E+02  0.18378073794E+02  0.62470675592E+02  0.10566000000E+00 0. -1.
         22    1    1    0    0    0 -0.26240582275E+02  0.84905689371E+01 -0.82111661605E+01  0.28776399509E+02  0.00000000000E+00 0. -1.
</event>
<event>
 5    1  0.6835449E-004  0.9118800E+02  0.7818608E-02  0.1130116E+00
         25   -1    0    0    0    0  0.00000000000E+00  0.00000000000E+00  0.99999998245E-14  0.12500000000E+03  0.12500000000E+03 0.  0.
        -13    1    3    3    0    0  0.19041086024E+02  0.11267264480E+02  0.55692776596E+02  0.59926711363E+02  0.10566000000E+00 0.  1.
         23    2    1    0    0    0  0.14184590198E+02  0.16774053339E+02  0.23977831771E+02  0.92480653744E+02  0.86574611959E+02 0.  0.
         13    1    3    3    0    0 -0.48564958256E+01  0.55067888591E+01 -0.31714944825E+02  0.32553942380E+02  0.10566000000E+00 0. -1.
         22    1    1    0    0    0 -0.14184590198E+02 -0.16774053339E+02 -0.23977831771E+02  0.32519346256E+02  0.00000000000E+00 0.  1.
</event>
<event>
 5    1  0.6835449E-004  0.9118800E+02  0.7818608E-02  0.1130116E+00
         25   -1    0    0    0    0  0.00000000000E+00  0.00000000000E+00  0.99999998245E-14  0.12500000000E+03  0.12500000000E+03 0.  0.
        -13    1    3    3    0    0  0.12805860561E+02 -0.36752499085E+02 -0.24045371938E+01  0.38993963851E+02  0.10566000000E+00 0. -1.
         23    2    1    0    0    0  0.16358683581E+02  0.12889669032E+02  0.22240126573E+02  0.94530780675E+02  0.89485726062E+02 0.  0.
         13    1    3    3    0    0  0.35528230196E+01  0.49642168117E+02  0.24644663767E+02  0.55536816824E+02  0.10566000000E+00 0.  1.
         22    1    1    0    0    0 -0.16358683581E+02 -0.12889669032E+02 -0.22240126573E+02  0.30469219325E+02  0.00000000000E+00 0.  1.
</event>
<event>
 5    1  0.6835449E-004  0.9118800E+02  0.7818608E-02  0.1130116E+00
         25   -1    0    0    0    0  0.00000000000E+00  0.00000000000E+00  0.99999998245E-14  0.12500000000E+03  0.12500000000E+03 0.  0.
        -13    1    3    3    0    0  0.56256733995E+01 -0.33826457729E+02  0.38071682721E+02  0.51238087717E+02  0.10566000000E+00 0. -1.
         23    2    1    0    0    0  0.27319792400E+02 -0.18822009612E+02  0.87270905073E+01  0.90695463691E+02  0.83957524516E+02 0.  0.
         13    1    3    3    0    0  0.21694119001E+02  0.15004448117E+02 -0.29344592214E+02  0.39457375974E+02  0.10566000000E+00 0.  1.
         22    1    1    0    0    0 -0.27319792400E+02  0.18822009612E+02 -0.87270905073E+01  0.34304536309E+02  0.00000000000E+00 0. -1.
</event>
<event>
 5    1  0.6835449E-004  0.9118800E+02  0.7818608E-02  0.1130116E+00
         25   -1    0    0    0    0  0.00000000000E+00  0.00000000000E+00  0.99999998245E-14  0.12500000000E+03  0.12500000000E+03 0.  0.
        -13    1    3    3    0    0 -0.63270198782E+00 -0.18003953363E+02 -0.54091912051E+02  0.57013057819E+02  0.10566000000E+00 0.  1.
         23    2    1    0    0    0  0.15294633098E+02  0.18046886348E+01 -0.24920392277E+02  0.95704801521E+02  0.91110923496E+02 0.  0.
         13    1    3    3    0    0  0.15927335086E+02  0.19808641998E+02  0.29171519774E+02  0.38691743702E+02  0.10566000000E+00 0. -1.
         22    1    1    0    0    0 -0.15294633098E+02 -0.18046886348E+01  0.24920392277E+02  0.29295198479E+02  0.00000000000E+00 0.  1.
</event>
<event>
 5    1  0.6835449E-004  0.9118800E+02  0.7818608E-02  0.1130116E+00
         25   -1    0    0    0    0  0.00000000000E+00  0.00000000000E+00  0.99999998245E-14  0.12500000000E+03  0.12500000000E+03 0.  0.
        -13    1    3    3    0    0 -0.32183235634E+02 -0.12201299844E+02 -0.25737810543E+02  0.42977650347E+02  0.10566000000E+00 0.  1.
         23    2    1    0    0    0  0.12848144004E+02 -0.26231849311E+02 -0.21551325254E+01  0.95711276592E+02  0.91119806563E+02 0.  0.
         13    1    3    3    0    0  0.45031379638E+02 -0.14030549467E+02  0.23582678017E+02  0.52733626245E+02  0.10566000000E+00 0. -1.
         22    1    1    0    0    0 -0.12848144004E+02  0.26231849311E+02  0.21551325254E+01  0.29288723408E+02  0.00000000000E+00 0. -1.
</event>
<event>
 5    1  0.6835449E-004  0.9118800E+02  0.7818608E-02  0.1130116E+00
         25   -1    0    0    0    0  0.00000000000E+00  0.00000000000E+00  0.99999998245E-14  0.12500000000E+03  0.12500000000E+03 0.  0.
        -13    1    3    3    0    0  0.49817877244E+02  0.11212803460E+02  0.16948918130E+02  0.53803576501E+02  0.10566000000E+00 0.  1.
         23    2    1    0    0    0  0.16415085824E+02  0.13139100110E+02 -0.14289376450E+02  0.99578015938E+02  0.96278263302E+02 0.  0.
         13    1    3    3    0    0 -0.33402791420E+02  0.19262966499E+01 -0.31238294580E+02  0.45774439436E+02  0.10566000000E+00 0. -1.
         22    1    1    0    0    0 -0.16415085824E+02 -0.13139100110E+02  0.14289376450E+02  0.25421984062E+02  0.00000000000E+00 0. -1.
</event>
<event>
 5    1  0.6835449E-004  0.9118800E+02  0.7818608E-02  0.1130116E+00
         25   -1    0    0    0    0  0.00000000000E+00  0.00000000000E+00  0.99999998245E-14  0.12500000000E+03  0.12500000000E+03 0.  0.
        -13    1    3    3    0    0  0.32511955516E+02 -0.56862681810E+01  0.51973836720E+02  0.61568269139E+02  0.10566000000E+00 0. -1.
         23    2    1    0    0    0  0.20892615819E+02  0.35892207406E+00  0.20196581777E+02  0.95939164907E+02  0.91431893926E+02 0.  0.
         13    1    3    3    0    0 -0.11619339697E+02  0.60451902551E+01 -0.31777254943E+02  0.34370895769E+02  0.10566000000E+00 0.  1.
         22    1    1    0    0    0 -0.20892615819E+02 -0.35892207406E+00 -0.20196581777E+02  0.29060835093E+02  0.00000000000E+00 0. -1.
</event>
<event>
 5    1  0.6835449E-004  0.9118800E+02  0.7818608E-02  0.1130116E+00
         25   -1    0    0    0    0  0.00000000000E+00  0.00000000000E+00  0.99999998245E-14  0.12500000000E+03  0.12500000000E+03 0.  0.
        -13    1    3    3    0    0 -0.13786971199E+02  0.26240735841E+02  0.32765411812E+02  0.44184161954E+02  0.10566000000E+00 0. -1.
         23    2    1    0    0    0 -0.20766840455E+02 -0.18304150199E+02  0.58135939780E+01  0.96713935375E+02  0.92485046596E+02 0.  0.
         13    1    3    3    0    0 -0.69798692562E+01 -0.44544886040E+02 -0.26951817834E+02  0.52529773422E+02  0.10566000000E+00 0.  1.
         22    1    1    0    0    0  0.20766840455E+02  0.18304150199E+02 -0.58135939780E+01  0.28286064625E+02  0.00000000000E+00 0.  1.
</event>
<event>
 5    1  0.6835449E-004  0.9118800E+02  0.7818608E-02  0.1130116E+00
         25   -1    0    0    0    0  0.00000000000E+00  0.00000000000E+00  0.99999998245E-14  0.12500000000E+03  0.12500000000E+03 0.  0.
        -13    1    3    3    0    0 -0.22109533821E+02  0.10803350485E+02  0.36893395251E+02  0.44347239425E+02  0.10566000000E+00 0.  1.
         23    2    1    0    0    0  0.23969868132E+02  0.89909841062E+01  0.12756144276E+02  0.96397349943E+02  0.92056164844E+02 0.  0.
         13    1    3    3    0    0  0.46079401953E+02 -0.18123663793E+01 -0.24137250975E+02  0.52050110518E+02  0.10566000000E+00 0. -1.
         22    1    1    0    0    0 -0.23969868132E+02 -0.89909841062E+01 -0.12756144276E+02  0.28602650057E+02  0.00000000000E+00 0. -1.
</event>
<event>
 5    1  0.6835449E-004  0.9118800E+02  0.7818608E-02  0.1130116E+00
         25   -1    0    0    0    0  0.00000000000E+00  0.00000000000E+00  0.99999998245E-14  0.12500000000E+03  0.12500000000E+03 0.  0.
        -13    1    3    3    0    0  0.16006955457E+02 -0.25301427941E+02  0.26693972161E+02  0.40111895899E+02  0.10566000000E+00 0. -1.
         23    2    1    0    0    0 -0.16771041030E+02  0.18900528647E+02  0.11743511917E+02  0.97135903522E+02  0.93053618310E+02 0.  0.
         13    1    3    3    0    0 -0.32777996487E+02  0.44201956588E+02 -0.14950460244E+02  0.57024007623E+02  0.10566000000E+00 0.  1.
         22    1    1    0    0    0  0.16771041030E+02 -0.18900528647E+02 -0.11743511917E+02  0.27864096478E+02  0.00000000000E+00 0.  1.
</event>
<event>
 5    1  0.6835449E-004  0.9118800E+02  0.7818608E-02  0.1130116E+00
         25   -1    0    0    0    0  0.00000000000E+00  0.00000000000E+00  0.99999998245E-14  0.12500000000E+03  0.12500000000E+03 0.  0.
        -13    1    3    3    0    0 -0.47903433566E+02  0.13425308955E+02  0.23704030296E+02  0.55107804204E+02  0.10566000000E+00 0. -1.
         23    2    1    0    0    0 -0.20170600824E+02 -0.15171736045E+02  0.14114936172E+02  0.96081733535E+02  0.91626597578E+02 0.  0.
         13    1    3    3    0    0  0.27732832742E+02 -0.28597045000E+02 -0.95890941238E+01  0.40973929330E+02  0.10566000000E+00 0.  1.
         22    1    1    0    0    0  0.20170600824E+02  0.15171736045E+02 -0.14114936172E+02  0.28918266465E+02  0.00000000000E+00 0. -1.
</event>
<event>
 5    1  0.6835449E-004  0.9118800E+02  0.7818608E-02  0.1130116E+00
         25   -1    0    0    0    0  0.00000000000E+00  0.00000000000E+00  0.99999998245E-14  0.12500000000E+03  0.12500000000E+03 0.  0.
        -13    1    3    3    0    0  0.26530165196E+02  0.26689448261E+02 -0.79437983527E+01  0.38461557562E+02  0.10566000000E+00 0.  1.
         23    2    1    0    0    0 -0.53418108431E+01 -0.62102472968E+01  0.27453120467E+02  0.96350812613E+02  0.91992951649E+02 0.  0.
         13    1    3    3    0    0 -0.31871976039E+02 -0.32899695557E+02  0.35396918820E+02  0.57889255051E+02  0.10566000000E+00 0. -1.
         22    1    1    0    0    0  0.53418108431E+01  0.62102472968E+01 -0.27453120467E+02  0.28649187387E+02  0.00000000000E+00 0. -1.
</event>
<event>
 5    1  0.6835449E-004  0.9118800E+02  0.7818608E-02  0.1130116E+00
         25   -1    0    0    0    0  0.00000000000E+00  0.00000000000E+00  0.99999998245E-14  0.12500000000E+03  0.12500000000E+03 0.  0.
        -13    1    3    3    0    0 -0.10482477699E+01  0.25130901273E+02  0.23054681853E+02  0.34120236541E+02  0.10566000000E+00 0. -1.
         23    2    1    0    0    0 -0.10722047704E+02 -0.26072304213E+02 -0.91301309575E+01  0.95367473188E+02  0.90646943120E+02 0.  0.
         13    1    3    3    0    0 -0.96737999342E+01 -0.51203205487E+02 -0.32184812811E+02  0.61247236648E+02  0.10566000000E+00 0.  1.
         22    1    1    0    0    0  0.10722047704E+02  0.26072304213E+02  0.91301309575E+01  0.29632526812E+02  0.00000000000E+00 0.  1.
</event>
<event>
 5    1  0.6835449E-004  0.9118800E+02  0.7818608E-02  0.1130116E+00
         25   -1    0    0    0    0  0.00000000000E+00  0.00000000000E+00  0.99999998245E-14  0.12500000000E+03  0.12500000000E+03 0.  0.
        -13    1    3    3    0    0 -0.12029210445E+02  0.47135620606E+02  0.58305071830E+01  0.48994638604E+02  0.10566000000E+00 0.  1.
         23    2    1    0    0    0 -0.24165223884E+02  0.28300563357E+01  0.15783856160E+02  0.95998321091E+02  0.91512732845E+02 0.  0.
         13    1    3    3    0    0 -0.12136013439E+02 -0.44305564270E+02  0.99533489774E+01  0.47003682488E+02  0.10566000000E+00 0. -1.
         22    1    1    0    0    0  0.24165223884E+02 -0.28300563357E+01 -0.15783856160E+02  0.29001678909E+02  0.00000000000E+00 0.  1.
</event>
<event>
 5    1  0.6835449E-004  0.9118800E+02  0.7818608E-02  0.1130116E+00
         25   -1    0    0    0    0  0.00000000000E+00  0.00000000000E+00  0.99999998245E-14  0.12500000000E+03  0.12500000000E+03 0.  0.
        -13    1    3    3    0    0 -0.10522306084E+02  0.21857006110E+00  0.30618471280E+02  0.32376977095E+02  0.10566000000E+00 0. -1.
         23    2    1    0    0    0  0.21641645438E+02 -0.12999451712E+02 -0.19305899323E+02  0.93218491057E+02  0.87633456877E+02 0.  0.
         13    1    3    3    0    0  0.32163951522E+02 -0.13218021773E+02 -0.49924370603E+02  0.60841513962E+02  0.10566000000E+00 0.  1.
         22    1    1    0    0    0 -0.21641645438E+02  0.12999451712E+02  0.19305899323E+02  0.31781508943E+02  0.00000000000E+00 0.  1.
</event>
<event>
 5    1  0.6835449E-004  0.9118800E+02  0.7818608E-02  0.1130116E+00
         25   -1    0    0    0    0  0.00000000000E+00  0.00000000000E+00  0.99999998245E-14  0.12500000000E+03  0.12500000000E+03 0.  0.
        -13    1    3    3    0    0 -0.27703729473E+02  0.37692102939E+02 -0.13556582926E+02  0.48703011769E+02  0.10566000000E+00 0.  1.
         23    2    1    0    0    0 -0.20951805131E+02 -0.80910724818E+01 -0.19364928965E+02  0.95344577798E+02  0.90615365416E+02 0.  0.
         13    1    3    3    0    0  0.67519243415E+01 -0.45783175421E+02 -0.58083460389E+01  0.46641566029E+02  0.10566000000E+00 0. -1.
         22    1    1    0    0    0  0.20951805131E+02  0.80910724818E+01  0.19364928965E+02  0.29655422202E+02  0.00000000000E+00 0.  1.
</event>
<event>
 5    1  0.6835449E-004  0.9118800E+02  0.7818608E-02  0.1130116E+00
         25   -1    0    0    0    0  0.00000000000E+00  0.00000000000E+00  0.99999998245E-14  0.12500000000E+03  0.12500000000E+03 0.  0.
        -13    1    3    3    0    0 -0.40616322433E+02  0.15100253953E+02 -0.34183397296E+01  0.43467223606E+02  0.10566000000E+00 0.  1.
         23    2    1    0    0    0  0.45665584438E+01  0.64535569707E+01 -0.28194653898E+02  0.95717917389E+02  0.91128916088E+02 0.  0.
         13    1    3    3    0    0  0.45182880877E+02 -0.86466969823E+01 -0.24776314168E+02  0.52250693784E+02  0.10566000000E+00 0. -1.
         22    1    1    0    0    0 -0.45665584438E+01 -0.64535569707E+01  0.28194653898E+02  0.29282082611E+02  0.00000000000E+00 0. -1.
</event>
<event>
 5    1  0.6835449E-004  0.9118800E+02  0.7818608E-02  0.1130116E+00
         25   -1    0    0    0    0  0.00000000000E+00  0.00000000000E+00  0.99999998245E-14  0.12500000000E+03  0.12500000000E+03 0.  0.
        -13    1    3    3    0    0  0.23418905357E+02 -0.26420327242E+02  0.21091458171E+02  0.41125899278E+02  0.10566000000E+00 0.  1.
         23    2    1    0    0    0 -0.26372965223E+02 -0.13043311914E+02  0.10501959897E+02  0.93759762453E+02  0.88402152763E+02 0.  0.
         13    1    3    3    0    0 -0.49791870580E+02  0.13377015328E+02 -0.10589498273E+02  0.52633863174E+02  0.10566000000E+00 0. -1.
         22    1    1    0    0    0  0.26372965223E+02  0.13043311914E+02 -0.10501959897E+02  0.31240237547E+02  0.00000000000E+00 0. -1.
</event>
<event>
 5    1  0.6835449E-004  0.9118800E+02  0.7818608E-02  0.1130116E+00
         25   -1    0    0    0    0  0.00000000000E+00  0.00000000000E+00  0.99999998245E-14  0.12500000000E+03  0.12500000000E+03 0.  0.
        -13    1    3    3    0    0 -0.42053715193E+01 -0.13005735305E+02 -0.39659062637E+02  0.41948619927E+02  0.10566000000E+00 0.  1.
         23    2    1    0    0    0  0.17893304450E+02 -0.21484163807E+02  0.86401756524E+01  0.95735819267E+02  0.91153468485E+02 0.  0.
         13    1    3    3    0    0  0.22098675970E+02 -0.84784285020E+01  0.48299238290E+02  0.53787199340E+02  0.10566000000E+00 0. -1.
         22    1    1    0    0    0 -0.17893304450E+02  0.21484163807E+02 -0.86401756524E+01  0.29264180733E+02  0.00000000000E+00 0.  1.
</event>
<event>
 5    1  0.6835449E-004  0.9118800E+02  0.7818608E-02  0.1130116E+00
         25   -1    0    0    0    0  0.00000000000E+00  0.00000000000E+00  0.99999998245E-14  0.12500000000E+03  0.12500000000E+03 0.  0.
        -13    1    3    3    0    0  0.13292945692E+00  0.25415724081E+02 -0.42253356582E+02  0.49308559168E+02  0.10566000000E+00 0.  1.
         23    2    1    0    0    0  0.17529816081E+02  0.23755788207E+02  0.47503815162E+00  0.95472765345E+02  0.90792022426E+02 0.  0.
         13    1    3    3    0    0  0.17396886624E+02 -0.16599358743E+01  0.42728394734E+02  0.46164206176E+02  0.10566000000E+00 0. -1.
         22    1    1    0    0    0 -0.17529816081E+02 -0.23755788207E+02 -0.47503815162E+00  0.29527234655E+02  0.00000000000E+00 0. -1.
</event>
<event>
 5    1  0.6835449E-004  0.9118800E+02  0.7818608E-02  0.1130116E+00
         25   -1    0    0    0    0  0.00000000000E+00  0.00000000000E+00  0.99999998245E-14  0.12500000000E+03  0.12500000000E+03 0.  0.
        -13    1    3    3    0    0 -0.63336439646E+01 -0.21734403985E+02  0.47311930598E+02  0.52449302220E+02  0.10566000000E+00 0.  1.
         23    2    1    0    0    0  0.11389004738E+01 -0.29159084503E+02  0.58377219977E+01  0.95240492251E+02  0.90471669946E+02 0.  0.
         13    1    3    3    0    0  0.74725444384E+01 -0.74246805180E+01 -0.41474208601E+02  0.42791190031E+02  0.10566000000E+00 0. -1.
         22    1    1    0    0    0 -0.11389004738E+01  0.29159084503E+02 -0.58377219977E+01  0.29759507749E+02  0.00000000000E+00 0.  1.
</event>
<event>
 5    1  0.6835449E-004  0.9118800E+02  0.7818608E-02  0.1130116E+00
         25   -1    0    0    0    0  0.00000000000E+00  0.00000000000E+00  0.99999998245E-14  0.12500000000E+03  0.12500000000E+03 0.  0.
        -13    1    3    3    0    0 -0.13150958542E+02  0.40132764941E+02  0.60034452968E+01  0.42657227428E+02  0.10566000000E+00 0. -1.
         23    2    1    0    0    0  0.15628328915E+02 -0.10690751553E+02  0.13783639330E+02  0.10157937775E+03  0.98842523426E+02 0.  0.
         13    1    3    3    0    0  0.28779287457E+02 -0.50823516493E+02  0.77801940332E+01  0.58922150321E+02  0.10566000000E+00 0.  1.
         22    1    1    0    0    0 -0.15628328915E+02  0.10690751553E+02 -0.13783639330E+02  0.23420622251E+02  0.00000000000E+00 0.  1.
</event>
<event>
 5    1  0.6835449E-004  0.9118800E+02  0.7818608E-02  0.1130116E+00
         25   -1    0    0    0    0  0.00000000000E+00  0.00000000000E+00  0.99999998245E-14  0.12500000000E+03  0.12500000000E+03 0.  0.
        -13    1    3    3    0    0  0.30244765026E+02 -0.18487853764E+02 -0.31231029916E+01  0.35585270613E+02  0.10566000000E+00 0. -1.
         23    2    1    0    0    0 -0.22459246060E+02  0.98528379613E+01 -0.14515670284E+02  0.96500862587E+02  0.92196614074E+02 0.  0.
         13    1    3    3    0    0 -0.52704011086E+02  0.28340691726E+02 -0.11392567292E+02  0.60915591974E+02  0.10566000000E+00 0.  1.
         22    1    1    0    0    0  0.22459246060E+02 -0.98528379613E+01  0.14515670284E+02  0.28499137413E+02  0.00000000000E+00 0.  1.
</event>
<event>
 5    1  0.6835449E-004  0.9118800E+02  0.7818608E-02  0.1130116E+00
         25   -1    0    0    0    0  0.00000000000E+00  0.00000000000E+00  0.99999998245E-14  0.12500000000E+03  0.12500000000E+03 0.  0.
        -13    1    3    3    0    0  0.49757270704E+01 -0.55723536881E+02 -0.21692797470E+01  0.55987385732E+02  0.10566000000E+00 0.  1.
         23    2    1    0    0    0 -0.79536403155E+01 -0.23058875966E+02  0.16286134064E+02  0.95670657732E+02  0.91064067738E+02 0.  0.
         13    1    3    3    0    0 -0.12929367386E+02  0.32664660915E+02  0.18455413811E+02  0.39683272000E+02  0.10566000000E+00 0. -1.
         22    1    1    0    0    0  0.79536403155E+01  0.23058875966E+02 -0.16286134064E+02  0.29329342268E+02  0.00000000000E+00 0.  1.
</event>
<event>
 5    1  0.6835449E-004  0.9118800E+02  0.7818608E-02  0.1130116E+00
         25   -1    0    0    0    0  0.00000000000E+00  0.00000000000E+00  0.99999998245E-14  0.12500000000E+03  0.12500000000E+03 0.  0.
        -13    1    3    3    0    0  0.11909105449E+02  0.39696292044E+02  0.24848577301E+02  0.48322720874E+02  0.10566000000E+00 0.  1.
         23    2    1    0    0    0  0.58082004662E+01 -0.83525015778E+01  0.26322585194E+02  0.96779830501E+02  0.92574065620E+02 0.  0.
         13    1    3    3    0    0 -0.61009049833E+01 -0.48048793622E+02  0.14740078922E+01  0.48457109628E+02  0.10566000000E+00 0. -1.
         22    1    1    0    0    0 -0.58082004662E+01  0.83525015778E+01 -0.26322585194E+02  0.28220169499E+02  0.00000000000E+00 0. -1.
</event>
<event>
 5    1  0.6835449E-004  0.9118800E+02  0.7818608E-02  0.1130116E+00
         25   -1    0    0    0    0  0.00000000000E+00  0.00000000000E+00  0.99999998245E-14  0.12500000000E+03  0.12500000000E+03 0.  0.
        -13    1    3    3    0    0 -0.40233069244E+02 -0.15334318615E+02  0.34313060884E+02  0.55056684421E+02  0.10566000000E+00 0. -1.
         23    2    1    0    0    0 -0.12224315293E+02  0.10523684293E+02  0.26511845976E+02  0.93966795322E+02  0.88694412623E+02 0.  0.
         13    1    3    3    0    0  0.28008753951E+02  0.25858002908E+02 -0.78012149073E+01  0.38910110901E+02  0.10566000000E+00 0.  1.
         22    1    1    0    0    0  0.12224315293E+02 -0.10523684293E+02 -0.26511845976E+02  0.31033204678E+02  0.00000000000E+00 0. -1.
</event>
<event>
 5    1  0.6835449E-004  0.9118800E+02  0.7818608E-02  0.1130116E+00
         25   -1    0    0    0    0  0.00000000000E+00  0.00000000000E+00  0.99999998245E-14  0.12500000000E+03  0.12500000000E+03 0.  0.
        -13    1    3    3    0    0 -0.12134262177E+02  0.16848115341E+02  0.86421821334E+01  0.22489948537E+02  0.10566000000E+00 0. -1.
         23    2    1    0    0    0 -0.15386324692E+02 -0.40920268175E+02  0.90709868997E+01  0.80351482238E+02  0.66804719589E+02 0.  0.
         13    1    3    3    0    0 -0.32520625153E+01 -0.57768383516E+02  0.42880476628E+00  0.57861533701E+02  0.10566000000E+00 0.  1.
         22    1    1    0    0    0  0.15386324692E+02  0.40920268175E+02 -0.90709868997E+01  0.44648517762E+02  0.00000000000E+00 0.  1.
</event>
<event>
 5    1  0.6835449E-004  0.9118800E+02  0.7818608E-02  0.1130116E+00
         25   -1    0    0    0    0  0.00000000000E+00  0.00000000000E+00  0.99999998245E-14  0.12500000000E+03  0.12500000000E+03 0.  0.
        -13    1    3    3    0    0 -0.51045091133E+02 -0.50457327475E+01  0.33722497469E+02  0.61386307490E+02  0.10566000000E+00 0. -1.
         23    2    1    0    0    0 -0.27670538845E+02 -0.66652768990E+01  0.97330706353E+01  0.94919818815E+02  0.90027521924E+02 0.  0.
         13    1    3    3    0    0  0.23374552287E+02 -0.16195441515E+01 -0.23989426834E+02  0.33533511324E+02  0.10566000000E+00 0.  1.
         22    1    1    0    0    0  0.27670538845E+02  0.66652768990E+01 -0.97330706353E+01  0.30080181185E+02  0.00000000000E+00 0. -1.
</event>
<event>
 5    1  0.6835449E-004  0.9118800E+02  0.7818608E-02  0.1130116E+00
         25   -1    0    0    0    0  0.00000000000E+00  0.00000000000E+00  0.99999998245E-14  0.12500000000E+03  0.12500000000E+03 0.  0.
        -13    1    3    3    0    0 -0.36137855176E+02 -0.28832161353E+02 -0.93769842140E+01  0.47171782900E+02  0.10566000000E+00 0.  1.
         23    2    1    0    0    0  0.22962580940E+01 -0.65738507033E+01 -0.28597786007E+02  0.95566657023E+02  0.90921198055E+02 0.  0.
         13    1    3    3    0    0  0.38434113270E+02  0.22258310649E+02 -0.19220801793E+02  0.48394874123E+02  0.10566000000E+00 0. -1.
         22    1    1    0    0    0 -0.22962580940E+01  0.65738507033E+01  0.28597786007E+02  0.29433342977E+02  0.00000000000E+00 0. -1.
</event>
<event>
 5    1  0.6835449E-004  0.9118800E+02  0.7818608E-02  0.1130116E+00
         25   -1    0    0    0    0  0.00000000000E+00  0.00000000000E+00  0.99999998245E-14  0.12500000000E+03  0.12500000000E+03 0.  0.
        -13    1    3    3    0    0  0.90172349529E+01  0.10612054299E+02  0.34379517956E+02  0.37092972940E+02  0.10566000000E+00 0. -1.
         23    2    1    0    0    0 -0.20110128825E+02 -0.15938310682E+02 -0.10898205934E+02  0.97121371602E+02  0.93034095366E+02 0.  0.
         13    1    3    3    0    0 -0.29127363778E+02 -0.26550364982E+02 -0.45277723889E+02  0.60028398662E+02  0.10566000000E+00 0.  1.
         22    1    1    0    0    0  0.20110128825E+02  0.15938310682E+02  0.10898205934E+02  0.27878628398E+02  0.00000000000E+00 0.  1.
</event>
<event>
 5    1  0.6835449E-004  0.9118800E+02  0.7818608E-02  0.1130116E+00
         25   -1    0    0    0    0  0.00000000000E+00  0.00000000000E+00  0.99999998245E-14  0.12500000000E+03  0.12500000000E+03 0.  0.
        -13    1    3    3    0    0 -0.47034715750E+02  0.36783655714E+02  0.17726453155E+02  0.62285954427E+02  0.10566000000E+00 0. -1.
         23    2    1    0    0    0 -0.23753394836E+02  0.14420259757E+02  0.65269403672E+01  0.96455848090E+02  0.92135563289E+02 0.  0.
         13    1    3    3    0    0  0.23281320914E+02 -0.22363395957E+02 -0.11199512788E+02  0.34169893663E+02  0.10566000000E+00 0.  1.
         22    1    1    0    0    0  0.23753394836E+02 -0.14420259757E+02 -0.65269403672E+01  0.28544151910E+02  0.00000000000E+00 0. -1.
</event>
<event>
 5    1  0.6835449E-004  0.9118800E+02  0.7818608E-02  0.1130116E+00
         25   -1    0    0    0    0  0.00000000000E+00  0.00000000000E+00  0.99999998245E-14  0.12500000000E+03  0.12500000000E+03 0.  0.
        -13    1    3    3    0    0 -0.10089056699E+02 -0.56533367117E+02  0.12047514938E+02  0.58676779418E+02  0.10566000000E+00 0.  1.
         23    2    1    0    0    0  0.99757113856E+01 -0.29195392984E+02  0.18331243664E+01  0.94092943620E+02  0.88872019810E+02 0.  0.
         13    1    3    3    0    0  0.20064768084E+02  0.27337974134E+02 -0.10214390572E+02  0.35416164202E+02  0.10566000000E+00 0. -1.
         22    1    1    0    0    0 -0.99757113856E+01  0.29195392984E+02 -0.18331243664E+01  0.30907056380E+02  0.00000000000E+00 0.  1.
</event>
<event>
 5    1  0.6835449E-004  0.9118800E+02  0.7818608E-02  0.1130116E+00
         25   -1    0    0    0    0  0.00000000000E+00  0.00000000000E+00  0.99999998245E-14  0.12500000000E+03  0.12500000000E+03 0.  0.
        -13    1    3    3    0    0 -0.35100092787E+02 -0.14416485550E+02 -0.48251289491E+02  0.61384441603E+02  0.10566000000E+00 0.  1.
         23    2    1    0    0    0 -0.67152850165E+01 -0.43938421775E+01 -0.22882311221E+02  0.10075126666E+03  0.97789655200E+02 0.  0.
         13    1    3    3    0    0  0.28384807770E+02  0.10022643372E+02  0.25368978270E+02  0.39366825054E+02  0.10566000000E+00 0. -1.
         22    1    1    0    0    0  0.67152850165E+01  0.43938421775E+01  0.22882311221E+02  0.24248733343E+02  0.00000000000E+00 0.  1.
</event>
<event>
 5    1  0.6835449E-004  0.9118800E+02  0.7818608E-02  0.1130116E+00
         25   -1    0    0    0    0  0.00000000000E+00  0.00000000000E+00  0.99999998245E-14  0.12500000000E+03  0.12500000000E+03 0.  0.
        -13    1    3    3    0    0  0.48299464683E+02  0.20008513888E+02  0.30003213211E+02  0.60277548753E+02  0.10566000000E+00 0.  1.
         23    2    1    0    0    0  0.10978294342E+02  0.64857443700E+01  0.20111272491E+02  0.10118716506E+03  0.98345265594E+02 0.  0.
         13    1    3    3    0    0 -0.37321170341E+02 -0.13522769518E+02 -0.98919407199E+01  0.40909616306E+02  0.10566000000E+00 0. -1.
         22    1    1    0    0    0 -0.10978294342E+02 -0.64857443700E+01 -0.20111272491E+02  0.23812834941E+02  0.00000000000E+00 0.  1.
</event>
<event>
 5    1  0.6835449E-004  0.9118800E+02  0.7818608E-02  0.1130116E+00
         25   -1    0    0    0    0  0.00000000000E+00  0.00000000000E+00  0.99999998245E-14  0.12500000000E+03  0.12500000000E+03 0.  0.
        -13    1    3    3    0    0 -0.50625397546E+01  0.38929451409E+02  0.31085530586E+02  0.50074473254E+02  0.10566000000E+00 0.  1.
         23    2    1    0    0    0 -0.29917938523E+01  0.23974316498E+02 -0.13623080966E+02  0.97263615647E+02  0.93225017628E+02 0.  0.
         13    1    3    3    0    0  0.20707459024E+01 -0.14955134912E+02 -0.44708611552E+02  0.47189142393E+02  0.10566000000E+00 0. -1.
         22    1    1    0    0    0  0.29917938523E+01 -0.23974316498E+02  0.13623080966E+02  0.27736384353E+02  0.00000000000E+00 0.  1.
</event>
<event>
 5    1  0.6835449E-004  0.9118800E+02  0.7818608E-02  0.1130116E+00
         25   -1    0    0    0    0  0.00000000000E+00  0.00000000000E+00  0.99999998245E-14  0.12500000000E+03  0.12500000000E+03 0.  0.
        -13    1    3    3    0    0 -0.25081434155E+01  0.29547991119E+02  0.17537788420E+02  0.34452282207E+02  0.10566000000E+00 0.  1.
         23    2    1    0    0    0  0.88629967729E+01 -0.26714933693E+02 -0.55308485792E+01  0.96314974638E+02  0.91944242122E+02 0.  0.
         13    1    3    3    0    0  0.11371140188E+02 -0.56262924813E+02 -0.23068636999E+02  0.61862692430E+02  0.10566000000E+00 0. -1.
         22    1    1    0    0    0 -0.88629967729E+01  0.26714933693E+02  0.55308485792E+01  0.28685025362E+02  0.00000000000E+00 0. -1.
</event>
<event>
 5    1  0.6835449E-004  0.9118800E+02  0.7818608E-02  0.1130116E+00
         25   -1    0    0    0    0  0.00000000000E+00  0.00000000000E+00  0.99999998245E-14  0.12500000000E+03  0.12500000000E+03 0.  0.
        -13    1    3    3    0    0 -0.33105983559E+02 -0.25245852192E+02  0.11838382557E+02  0.43284150285E+02  0.10566000000E+00 0.  1.
         23    2    1    0    0    0 -0.25781230280E+02  0.19874995365E+02  0.15107105042E+02  0.89112510561E+02  0.81566706690E+02 0.  0.
         13    1    3    3    0    0  0.73247532793E+01  0.45120847557E+02  0.32687224851E+01  0.45828360276E+02  0.10566000000E+00 0. -1.
         22    1    1    0    0    0  0.25781230280E+02 -0.19874995365E+02 -0.15107105042E+02  0.35887489439E+02  0.00000000000E+00 0.  1.
</event>
<event>
 5    1  0.6835449E-004  0.9118800E+02  0.7818608E-02  0.1130116E+00
         25   -1    0    0    0    0  0.00000000000E+00  0.00000000000E+00  0.99999998245E-14  0.12500000000E+03  0.12500000000E+03 0.  0.
        -13    1    3    3    0    0 -0.26611923864E+02  0.51857558464E+02 -0.11733880804E+02  0.59456673169E+02  0.10566000000E+00 0.  1.
         23    2    1    0    0    0 -0.68270353651E+01  0.21590717369E+02 -0.17895808000E+02  0.96137785387E+02  0.91703033465E+02 0.  0.
         13    1    3    3    0    0  0.19784888498E+02 -0.30266841094E+02 -0.61619271963E+01  0.36681112218E+02  0.10566000000E+00 0. -1.
         22    1    1    0    0    0  0.68270353651E+01 -0.21590717369E+02  0.17895808000E+02  0.28862214613E+02  0.00000000000E+00 0.  1.
</event>
<event>
 5    1  0.6835449E-004  0.9118800E+02  0.7818608E-02  0.1130116E+00
         25   -1    0    0    0    0  0.00000000000E+00  0.00000000000E+00  0.99999998245E-14  0.12500000000E+03  0.12500000000E+03 0.  0.
        -13    1    3    3    0    0  0.38002411266E+02  0.20342979249E+02  0.36926868946E+02  0.56759359413E+02  0.10566000000E+00 0. -1.
         23    2    1    0    0    0  0.60135468403E+01  0.24291636072E+02  0.13876283469E+02  0.96385360887E+02  0.92039883864E+02 0.  0.
         13    1    3    3    0    0 -0.31988864426E+02  0.39486568237E+01 -0.23050585477E+02  0.39626001474E+02  0.10566000000E+00 0.  1.
         22    1    1    0    0    0 -0.60135468403E+01 -0.24291636072E+02 -0.13876283469E+02  0.28614639113E+02  0.00000000000E+00 0. -1.
</event>
<event>
 5    1  0.6835449E-004  0.9118800E+02  0.7818608E-02  0.1130116E+00
         25   -1    0    0    0    0  0.00000000000E+00  0.00000000000E+00  0.99999998245E-14  0.12500000000E+03  0.12500000000E+03 0.  0.
        -13    1    3    3    0    0 -0.21154587995E+02 -0.37663863629E+02  0.16600497039E+02  0.46278190140E+02  0.10566000000E+00 0.  1.
         23    2    1    0    0    0 -0.42393040074E+02 -0.22982749736E+02  0.36703228368E+00  0.76776444088E+02  0.59742037310E+02 0.  0.
         13    1    3    3    0    0 -0.21238452079E+02  0.14681113893E+02 -0.16233464756E+02  0.30498253948E+02  0.10566000000E+00 0. -1.
         22    1    1    0    0    0  0.42393040074E+02  0.22982749736E+02 -0.36703228368E+00  0.48223555912E+02  0.00000000000E+00 0.  1.
</event>
<event>
 5    1  0.6835449E-004  0.9118800E+02  0.7818608E-02  0.1130116E+00
         25   -1    0    0    0    0  0.00000000000E+00  0.00000000000E+00  0.99999998245E-14  0.12500000000E+03  0.12500000000E+03 0.  0.
        -13    1    3    3    0    0 -0.15046306824E+02  0.39448849096E+02  0.22195135153E+02  0.47699457361E+02  0.10566000000E+00 0.  1.
         23    2    1    0    0    0  0.19185661980E+00  0.55929723727E+01  0.36933388165E+02  0.87645036337E+02  0.79285932449E+02 0.  0.
         13    1    3    3    0    0  0.15238163444E+02 -0.33855876723E+02  0.14738253012E+02  0.39945578976E+02  0.10566000000E+00 0. -1.
         22    1    1    0    0    0 -0.19185661980E+00 -0.55929723727E+01 -0.36933388165E+02  0.37354963663E+02  0.00000000000E+00 0.  1.
</event>
<event>
 5    1  0.6835449E-004  0.9118800E+02  0.7818608E-02  0.1130116E+00
         25   -1    0    0    0    0  0.00000000000E+00  0.00000000000E+00  0.99999998245E-14  0.12500000000E+03  0.12500000000E+03 0.  0.
        -13    1    3    3    0    0  0.20507255592E+02  0.43866710764E+02  0.17018912718E+02  0.51327287083E+02  0.10566000000E+00 0.  1.
         23    2    1    0    0    0 -0.16180325000E+02  0.22517297354E+02  0.14146834055E+02  0.93871805209E+02  0.88560438697E+02 0.  0.
         13    1    3    3    0    0 -0.36687580592E+02 -0.21349413410E+02 -0.28720786633E+01  0.42544518126E+02  0.10566000000E+00 0. -1.
         22    1    1    0    0    0  0.16180325000E+02 -0.22517297354E+02 -0.14146834055E+02  0.31128194791E+02  0.00000000000E+00 0. -1.
</event>
<event>
 5    1  0.6835449E-004  0.9118800E+02  0.7818608E-02  0.1130116E+00
         25   -1    0    0    0    0  0.00000000000E+00  0.00000000000E+00  0.99999998245E-14  0.12500000000E+03  0.12500000000E+03 0.  0.
        -13    1    3    3    0    0  0.30358686993E+02 -0.80947837173E+01  0.51216562598E+02  0.60085962153E+02  0.10566000000E+00 0.  1.
         23    2    1    0    0    0  0.68244119014E+01  0.54566533632E+01  0.27513184215E+02  0.96132666050E+02  0.91696055054E+02 0.  0.
         13    1    3    3    0    0 -0.23534275092E+02  0.13551437080E+02 -0.23703378383E+02  0.36046703897E+02  0.10566000000E+00 0. -1.
         22    1    1    0    0    0 -0.68244119014E+01 -0.54566533632E+01 -0.27513184215E+02  0.28867333950E+02  0.00000000000E+00 0.  1.
</event>
<event>
 5    1  0.6835449E-004  0.9118800E+02  0.7818608E-02  0.1130116E+00
         25   -1    0    0    0    0  0.00000000000E+00  0.00000000000E+00  0.99999998245E-14  0.12500000000E+03  0.12500000000E+03 0.  0.
        -13    1    3    3    0    0 -0.32674457247E+02 -0.27933295744E+02 -0.16506042435E+02  0.46047255819E+02  0.10566000000E+00 0.  1.
         23    2    1    0    0    0  0.13937650571E+02 -0.26236649074E+02 -0.74342517055E+00  0.95281781025E+02  0.90528698522E+02 0.  0.
         13    1    3    3    0    0  0.46612107818E+02  0.16966466700E+01  0.15762617264E+02  0.49234525206E+02  0.10566000000E+00 0. -1.
         22    1    1    0    0    0 -0.13937650571E+02  0.26236649074E+02  0.74342517055E+00  0.29718218975E+02  0.00000000000E+00 0.  1.
</event>
<event>
 5    1  0.6835449E-004  0.9118800E+02  0.7818608E-02  0.1130116E+00
         25   -1    0    0    0    0  0.00000000000E+00  0.00000000000E+00  0.99999998245E-14  0.12500000000E+03  0.12500000000E+03 0.  0.
        -13    1    3    3    0    0  0.26875610688E+02 -0.25084195766E+02  0.10656961332E+02  0.38276589660E+02  0.10566000000E+00 0.  1.
         23    2    1    0    0    0 -0.17878731901E+02  0.12931804761E+02  0.16727643595E+02  0.97310747771E+02  0.93288192943E+02 0.  0.
         13    1    3    3    0    0 -0.44754342590E+02  0.38016000527E+02  0.60706822632E+01  0.59034158111E+02  0.10566000000E+00 0. -1.
         22    1    1    0    0    0  0.17878731901E+02 -0.12931804761E+02 -0.16727643595E+02  0.27689252229E+02  0.00000000000E+00 0. -1.
</event>
<event>
 5    1  0.6835449E-004  0.9118800E+02  0.7818608E-02  0.1130116E+00
         25   -1    0    0    0    0  0.00000000000E+00  0.00000000000E+00  0.99999998245E-14  0.12500000000E+03  0.12500000000E+03 0.  0.
        -13    1    3    3    0    0 -0.94541898062E+01 -0.36779360640E+02 -0.42401804725E-01  0.37975202908E+02  0.10566000000E+00 0.  1.
         23    2    1    0    0    0 -0.11166772258E+02  0.23730394161E+02  0.31008995806E+01  0.98590835153E+02  0.94987940225E+02 0.  0.
         13    1    3    3    0    0 -0.17125824517E+01  0.60509754801E+02  0.31433013854E+01  0.60615632245E+02  0.10566000000E+00 0. -1.
         22    1    1    0    0    0  0.11166772258E+02 -0.23730394161E+02 -0.31008995806E+01  0.26409164847E+02  0.00000000000E+00 0. -1.
</event>
<event>
 5    1  0.6835449E-004  0.9118800E+02  0.7818608E-02  0.1130116E+00
         25   -1    0    0    0    0  0.00000000000E+00  0.00000000000E+00  0.99999998245E-14  0.12500000000E+03  0.12500000000E+03 0.  0.
        -13    1    3    3    0    0 -0.32320706432E+02 -0.50126280385E+02  0.31955682798E+00  0.59643820552E+02  0.10566000000E+00 0.  1.
         23    2    1    0    0    0 -0.80776655338E+01 -0.25079923696E+02 -0.11220023939E+02  0.96361910150E+02  0.92008029745E+02 0.  0.
         13    1    3    3    0    0  0.24243040898E+02  0.25046356689E+02 -0.11539580767E+02  0.36718089598E+02  0.10566000000E+00 0. -1.
         22    1    1    0    0    0  0.80776655338E+01  0.25079923696E+02  0.11220023939E+02  0.28638089850E+02  0.00000000000E+00 0.  1.
</event>
<event>
 5    1  0.6835449E-004  0.9118800E+02  0.7818608E-02  0.1130116E+00
         25   -1    0    0    0    0  0.00000000000E+00  0.00000000000E+00  0.99999998245E-14  0.12500000000E+03  0.12500000000E+03 0.  0.
        -13    1    3    3    0    0  0.12786934399E+02  0.33411569965E+02  0.22510813031E+00  0.35775697569E+02  0.10566000000E+00 0. -1.
         23    2    1    0    0    0 -0.10146990562E+02 -0.16012840905E+02  0.23313455168E+02  0.94951877210E+02  0.90072022862E+02 0.  0.
         13    1    3    3    0    0 -0.22933924961E+02 -0.49424410870E+02  0.23088347038E+02  0.59176179641E+02  0.10566000000E+00 0.  1.
         22    1    1    0    0    0  0.10146990562E+02  0.16012840905E+02 -0.23313455168E+02  0.30048122790E+02  0.00000000000E+00 0.  1.
</event>
<event>
 5    1  0.6835449E-004  0.9118800E+02  0.7818608E-02  0.1130116E+00
         25   -1    0    0    0    0  0.00000000000E+00  0.00000000000E+00  0.99999998245E-14  0.12500000000E+03  0.12500000000E+03 0.  0.
        -13    1    3    3    0    0 -0.24283931425E+02 -0.54619912379E+02  0.14979771731E+02  0.61623444231E+02  0.10566000000E+00 0. -1.
         23    2    1    0    0    0 -0.10912957457E+02 -0.27093946557E+02 -0.21510990891E+00  0.95790055585E+02  0.91227813172E+02 0.  0.
         13    1    3    3    0    0  0.13370973968E+02  0.27525965822E+02 -0.15194881640E+02  0.34166611354E+02  0.10566000000E+00 0.  1.
         22    1    1    0    0    0  0.10912957457E+02  0.27093946557E+02  0.21510990891E+00  0.29209944415E+02  0.00000000000E+00 0. -1.
</event>
<event>
 5    1  0.6835449E-004  0.9118800E+02  0.7818608E-02  0.1130116E+00
         25   -1    0    0    0    0  0.00000000000E+00  0.00000000000E+00  0.99999998245E-14  0.12500000000E+03  0.12500000000E+03 0.  0.
        -13    1    3    3    0    0 -0.99541806331E+01 -0.38433912050E+02  0.39272701818E+02  0.55844494623E+02  0.10566000000E+00 0.  1.
         23    2    1    0    0    0 -0.21816277206E+02 -0.19956129700E+02  0.74474839607E+01  0.94509639539E+02  0.89456189750E+02 0.  0.
         13    1    3    3    0    0 -0.11862096573E+02  0.18477782351E+02 -0.31825217857E+02  0.38665144916E+02  0.10566000000E+00 0. -1.
         22    1    1    0    0    0  0.21816277206E+02  0.19956129700E+02 -0.74474839607E+01  0.30490360461E+02  0.00000000000E+00 0. -1.
</event>
<event>
 5    1  0.6835449E-004  0.9118800E+02  0.7818608E-02  0.1130116E+00
         25   -1    0    0    0    0  0.00000000000E+00  0.00000000000E+00  0.99999998245E-14  0.12500000000E+03  0.12500000000E+03 0.  0.
        -13    1    3    3    0    0  0.75512679198E+01  0.36474491185E+02  0.13510256725E+02  0.39622573808E+02  0.10566000000E+00 0.  1.
         23    2    1    0    0    0 -0.73049996318E+01  0.82638865884E+00 -0.27841560086E+02  0.96204194648E+02  0.91793511002E+02 0.  0.
         13    1    3    3    0    0 -0.14856267552E+02 -0.35648102526E+02 -0.41351816811E+02  0.56581620840E+02  0.10566000000E+00 0. -1.
         22    1    1    0    0    0  0.73049996318E+01 -0.82638865884E+00  0.27841560086E+02  0.28795805352E+02  0.00000000000E+00 0. -1.
</event>
<event>
 5    1  0.6835449E-004  0.9118800E+02  0.7818608E-02  0.1130116E+00
         25   -1    0    0    0    0  0.00000000000E+00  0.00000000000E+00  0.99999998245E-14  0.12500000000E+03  0.12500000000E+03 0.  0.
        -13    1    3    3    0    0 -0.23857224242E+02 -0.31307021424E+01  0.27542394262E+02  0.36572709637E+02  0.10566000000E+00 0.  1.
         23    2    1    0    0    0  0.28526762744E+02  0.14787591364E+01 -0.10225409351E+01  0.96416639260E+02  0.92082353439E+02 0.  0.
         13    1    3    3    0    0  0.52383986986E+02  0.46094612789E+01 -0.28564935198E+02  0.59843929623E+02  0.10566000000E+00 0. -1.
         22    1    1    0    0    0 -0.28526762744E+02 -0.14787591364E+01  0.10225409351E+01  0.28583360740E+02  0.00000000000E+00 0. -1.
</event>
<event>
 5    1  0.6835449E-004  0.9118800E+02  0.7818608E-02  0.1130116E+00
         25   -1    0    0    0    0  0.00000000000E+00  0.00000000000E+00  0.99999998245E-14  0.12500000000E+03  0.12500000000E+03 0.  0.
        -13    1    3    3    0    0  0.26422391826E+02 -0.62800529390E+01  0.21112838616E+02  0.34399781586E+02  0.10566000000E+00 0. -1.
         23    2    1    0    0    0 -0.20395825382E+02 -0.19737309413E+02 -0.12910881890E+02  0.93819205477E+02  0.88486164847E+02 0.  0.
         13    1    3    3    0    0 -0.46818217208E+02 -0.13457256474E+02 -0.34023720507E+02  0.59419423891E+02  0.10566000000E+00 0.  1.
         22    1    1    0    0    0  0.20395825382E+02  0.19737309413E+02  0.12910881890E+02  0.31180794523E+02  0.00000000000E+00 0.  1.
</event>
<event>
 5    1  0.6835449E-004  0.9118800E+02  0.7818608E-02  0.1130116E+00
         25   -1    0    0    0    0  0.00000000000E+00  0.00000000000E+00  0.99999998245E-14  0.12500000000E+03  0.12500000000E+03 0.  0.
        -13    1    3    3    0    0  0.11459466382E+02 -0.23443518977E+02  0.24755062335E+02  0.35968628373E+02  0.10566000000E+00 0.  1.
         23    2    1    0    0    0 -0.14824101695E+02  0.25696883174E+02  0.63074427128E+01  0.94670680365E+02  0.89680934938E+02 0.  0.
         13    1    3    3    0    0 -0.26283568077E+02  0.49140402151E+02 -0.18447619622E+02  0.58702051993E+02  0.10566000000E+00 0. -1.
         22    1    1    0    0    0  0.14824101695E+02 -0.25696883174E+02 -0.63074427128E+01  0.30329319635E+02  0.00000000000E+00 0. -1.
</event>
<event>
 5    1  0.6835449E-004  0.9118800E+02  0.7818608E-02  0.1130116E+00
         25   -1    0    0    0    0  0.00000000000E+00  0.00000000000E+00  0.99999998245E-14  0.12500000000E+03  0.12500000000E+03 0.  0.
        -13    1    3    3    0    0 -0.38830323940E+02 -0.13729763413E+02  0.34498281980E+02  0.53725627817E+02  0.10566000000E+00 0. -1.
         23    2    1    0    0    0 -0.29761105473E+02 -0.35733910564E+01 -0.41839744385E+01  0.94734538419E+02  0.89769898099E+02 0.  0.
         13    1    3    3    0    0  0.90692184672E+01  0.10156372357E+02 -0.38682256419E+02  0.41008910602E+02  0.10566000000E+00 0.  1.
         22    1    1    0    0    0  0.29761105473E+02  0.35733910564E+01  0.41839744385E+01  0.30265461581E+02  0.00000000000E+00 0. -1.
</event>
<event>
 5    1  0.6835449E-004  0.9118800E+02  0.7818608E-02  0.1130116E+00
         25   -1    0    0    0    0  0.00000000000E+00  0.00000000000E+00  0.99999998245E-14  0.12500000000E+03  0.12500000000E+03 0.  0.
        -13    1    3    3    0    0  0.17929228868E+01  0.53934731216E+02 -0.16805889297E+02  0.56520959678E+02  0.10566000000E+00 0.  1.
         23    2    1    0    0    0 -0.18306406903E+02  0.23640962676E+02 -0.97137185576E+01  0.93561552549E+02  0.88121439713E+02 0.  0.
         13    1    3    3    0    0 -0.20099329790E+02 -0.30293768540E+02  0.70921707397E+01  0.37040592871E+02  0.10566000000E+00 0. -1.
         22    1    1    0    0    0  0.18306406903E+02 -0.23640962676E+02  0.97137185576E+01  0.31438447451E+02  0.00000000000E+00 0.  1.
</event>
<event>
 5    1  0.6835449E-004  0.9118800E+02  0.7818608E-02  0.1130116E+00
         25   -1    0    0    0    0  0.00000000000E+00  0.00000000000E+00  0.99999998245E-14  0.12500000000E+03  0.12500000000E+03 0.  0.
        -13    1    3    3    0    0  0.24532850018E+02  0.15100897952E+02  0.18716912752E+02  0.34354502412E+02  0.10566000000E+00 0.  1.
         23    2    1    0    0    0 -0.24152941062E+02 -0.32912988517E+01 -0.15011630395E+02  0.96372281663E+02  0.92022119165E+02 0.  0.
         13    1    3    3    0    0 -0.48685791080E+02 -0.18392196803E+02 -0.33728543147E+02  0.62017779251E+02  0.10566000000E+00 0. -1.
         22    1    1    0    0    0  0.24152941062E+02  0.32912988517E+01  0.15011630395E+02  0.28627718337E+02  0.00000000000E+00 0. -1.
</event>
<event>
 5    1  0.6835449E-004  0.9118800E+02  0.7818608E-02  0.1130116E+00
         25   -1    0    0    0    0  0.00000000000E+00  0.00000000000E+00  0.99999998245E-14  0.12500000000E+03  0.12500000000E+03 0.  0.
        -13    1    3    3    0    0 -0.21291847650E+02  0.22878334779E+02 -0.12687704040E+02  0.33730549602E+02  0.10566000000E+00 0. -1.
         23    2    1    0    0    0  0.23863638531E+02 -0.14864551375E+02  0.74199946893E+01  0.95922784646E+02  0.91409497108E+02 0.  0.
         13    1    3    3    0    0  0.45155486181E+02 -0.37742886154E+02  0.20107698729E+02  0.62192235044E+02  0.10566000000E+00 0.  1.
         22    1    1    0    0    0 -0.23863638531E+02  0.14864551375E+02 -0.74199946893E+01  0.29077215354E+02  0.00000000000E+00 0.  1.
</event>
<event>
 5    1  0.6835449E-004  0.9118800E+02  0.7818608E-02  0.1130116E+00
         25   -1    0    0    0    0  0.00000000000E+00  0.00000000000E+00  0.99999998245E-14  0.12500000000E+03  0.12500000000E+03 0.  0.
        -13    1    3    3    0    0  0.25821030494E+02  0.16429742144E+02  0.32376304511E+02  0.44552197483E+02  0.10566000000E+00 0. -1.
         23    2    1    0    0    0  0.91468930615E+01  0.22478214865E+02 -0.15902158665E+02  0.95985961219E+02  0.91495848566E+02 0.  0.
         13    1    3    3    0    0 -0.16674137432E+02  0.60484727201E+01 -0.48278463176E+02  0.51433763736E+02  0.10566000000E+00 0.  1.
         22    1    1    0    0    0 -0.91468930615E+01 -0.22478214865E+02  0.15902158665E+02  0.29014038781E+02  0.00000000000E+00 0. -1.
</event>
<event>
 5    1  0.6835449E-004  0.9118800E+02  0.7818608E-02  0.1130116E+00
         25   -1    0    0    0    0  0.00000000000E+00  0.00000000000E+00  0.99999998245E-14  0.12500000000E+03  0.12500000000E+03 0.  0.
        -13    1    3    3    0    0  0.22630275734E+02 -0.27768513196E+02  0.95526754298E+01  0.37074040470E+02  0.10566000000E+00 0. -1.
         23    2    1    0    0    0  0.29067259690E+02  0.15352327197E+02 -0.16866822618E+02  0.88052885884E+02  0.79926350292E+02 0.  0.
         13    1    3    3    0    0  0.64369839562E+01  0.43120840393E+02 -0.26419498048E+02  0.50978845414E+02  0.10566000000E+00 0.  1.
         22    1    1    0    0    0 -0.29067259690E+02 -0.15352327197E+02  0.16866822618E+02  0.36947114116E+02  0.00000000000E+00 0.  1.
</event>
<event>
 5    1  0.6835449E-004  0.9118800E+02  0.7818608E-02  0.1130116E+00
         25   -1    0    0    0    0  0.00000000000E+00  0.00000000000E+00  0.99999998245E-14  0.12500000000E+03  0.12500000000E+03 0.  0.
        -13    1    3    3    0    0 -0.37715655959E+00  0.16833440052E+02  0.60166857107E+02  0.62478546792E+02  0.10566000000E+00 0. -1.
         23    2    1    0    0    0 -0.11471448503E+01  0.83988097695E+01  0.27714035637E+02  0.96018562525E+02  0.91540377054E+02 0.  0.
         13    1    3    3    0    0 -0.76998829073E+00 -0.84346302822E+01 -0.32452821470E+02  0.33540015733E+02  0.10566000000E+00 0.  1.
         22    1    1    0    0    0  0.11471448503E+01 -0.83988097695E+01 -0.27714035637E+02  0.28981437475E+02  0.00000000000E+00 0. -1.
</event>
<event>
 4    1  0.6835449E-004  0.9118800E+02  0.7818608E-02  0.1130116E+00
         25   -1    0    0    0    0  0.00000000000E+00  0.00000000000E+00  0.99999998245E-14  0.12500000000E+03  0.12500000000E+03 0.  0.
        -13    1    1    0    0    0 -0.20592996180E+02 -0.15323892482E+02 -0.37132335358E+02  0.45141052997E+02  0.10566000000E+00 0.  1.
         13    1    1    0    0    0 -0.23602799204E+02 -0.87275101922E+00  0.11722302513E+02  0.26368112652E+02  0.10566000000E+00 0. -1.
         22    1    1    0    0    0  0.44195795384E+02  0.16196643501E+02  0.25410032846E+02  0.53490834351E+02  0.00000000000E+00 0.  1.
</event>
<event>
 5    1  0.6835449E-004  0.9118800E+02  0.7818608E-02  0.1130116E+00
         25   -1    0    0    0    0  0.00000000000E+00  0.00000000000E+00  0.99999998245E-14  0.12500000000E+03  0.12500000000E+03 0.  0.
        -13    1    3    3    0    0  0.32486441035E+02 -0.19354062337E+02 -0.17053619015E+02  0.41482353665E+02  0.10566000000E+00 0. -1.
         23    2    1    0    0    0  0.15164711052E+02  0.21845831498E+02  0.13058726504E+02  0.95373337126E+02  0.90655028992E+02 0.  0.
         13    1    3    3    0    0 -0.17321729983E+02  0.41199893836E+02  0.30112345519E+02  0.53890983461E+02  0.10566000000E+00 0.  1.
         22    1    1    0    0    0 -0.15164711052E+02 -0.21845831498E+02 -0.13058726504E+02  0.29626662874E+02  0.00000000000E+00 0.  1.
</event>
<event>
 5    1  0.6835449E-004  0.9118800E+02  0.7818608E-02  0.1130116E+00
         25   -1    0    0    0    0  0.00000000000E+00  0.00000000000E+00  0.99999998245E-14  0.12500000000E+03  0.12500000000E+03 0.  0.
        -13    1    3    3    0    0 -0.16728671556E+01 -0.47092071251E+02 -0.16248939715E+02  0.49844767681E+02  0.10566000000E+00 0. -1.
         23    2    1    0    0    0 -0.12393760998E+02 -0.14242251744E+01 -0.24530307292E+02  0.97479649260E+02  0.93514235895E+02 0.  0.
         13    1    3    3    0    0 -0.10720893842E+02  0.45667846077E+02 -0.82813675771E+01  0.47634881579E+02  0.10566000000E+00 0.  1.
         22    1    1    0    0    0  0.12393760998E+02  0.14242251744E+01  0.24530307292E+02  0.27520350740E+02  0.00000000000E+00 0.  1.
</event>
<event>
 5    1  0.6835449E-004  0.9118800E+02  0.7818608E-02  0.1130116E+00
         25   -1    0    0    0    0  0.00000000000E+00  0.00000000000E+00  0.99999998245E-14  0.12500000000E+03  0.12500000000E+03 0.  0.
        -13    1    3    3    0    0 -0.48662207194E+02 -0.53208210916E+01  0.21747305520E+02  0.53565642044E+02  0.10566000000E+00 0.  1.
         23    2    1    0    0    0 -0.10402185906E+02 -0.22565854148E+02  0.14726449256E+02  0.96115894461E+02  0.91673189185E+02 0.  0.
         13    1    3    3    0    0  0.38260021288E+02 -0.17245033057E+02 -0.70208562636E+01  0.42550252418E+02  0.10566000000E+00 0. -1.
         22    1    1    0    0    0  0.10402185906E+02  0.22565854148E+02 -0.14726449256E+02  0.28884105539E+02  0.00000000000E+00 0. -1.
</event>
<event>
 5    1  0.6835449E-004  0.9118800E+02  0.7818608E-02  0.1130116E+00
         25   -1    0    0    0    0  0.00000000000E+00  0.00000000000E+00  0.99999998245E-14  0.12500000000E+03  0.12500000000E+03 0.  0.
        -13    1    3    3    0    0  0.29448454875E+02  0.27062492840E+01 -0.47686221777E+02  0.56111693890E+02  0.10566000000E+00 0.  1.
         23    2    1    0    0    0 -0.37581136683E+01 -0.69604907657E+01 -0.27993400658E+02  0.95910442932E+02  0.91392618591E+02 0.  0.
         13    1    3    3    0    0 -0.33206568544E+02 -0.96667400497E+01  0.19692821119E+02  0.39798749042E+02  0.10566000000E+00 0. -1.
         22    1    1    0    0    0  0.37581136683E+01  0.69604907657E+01  0.27993400658E+02  0.29089557068E+02  0.00000000000E+00 0.  1.
</event>
<event>
 5    1  0.6835449E-004  0.9118800E+02  0.7818608E-02  0.1130116E+00
         25   -1    0    0    0    0  0.00000000000E+00  0.00000000000E+00  0.99999998245E-14  0.12500000000E+03  0.12500000000E+03 0.  0.
        -13    1    3    3    0    0 -0.23060244587E+02 -0.25423044568E+02 -0.16651810170E+02  0.38149705392E+02  0.10566000000E+00 0. -1.
         23    2    1    0    0    0 -0.91946486047E+01  0.27294292204E+02  0.28828732444E+01  0.96054691088E+02  0.91589697958E+02 0.  0.
         13    1    3    3    0    0  0.13865595983E+02  0.52717336772E+02  0.19534683414E+02  0.57904985696E+02  0.10566000000E+00 0.  1.
         22    1    1    0    0    0  0.91946486047E+01 -0.27294292204E+02 -0.28828732444E+01  0.28945308912E+02  0.00000000000E+00 0.  1.
</event>
<event>
 5    1  0.6835449E-004  0.9118800E+02  0.7818608E-02  0.1130116E+00
         25   -1    0    0    0    0  0.00000000000E+00  0.00000000000E+00  0.99999998245E-14  0.12500000000E+03  0.12500000000E+03 0.  0.
        -13    1    3    3    0    0 -0.77874816209E+01  0.38388632611E+02  0.10577543835E+01  0.39184971508E+02  0.10566000000E+00 0.  1.
         23    2    1    0    0    0 -0.11561782508E+02 -0.13905678429E+02  0.22760516254E+02  0.95929674796E+02  0.91418918715E+02 0.  0.
         13    1    3    3    0    0 -0.37743008872E+01 -0.52294311040E+02  0.21702761870E+02  0.56744703288E+02  0.10566000000E+00 0. -1.
         22    1    1    0    0    0  0.11561782508E+02  0.13905678429E+02 -0.22760516254E+02  0.29070325204E+02  0.00000000000E+00 0. -1.
</event>
<event>
 5    1  0.6835449E-004  0.9118800E+02  0.7818608E-02  0.1130116E+00
         25   -1    0    0    0    0  0.00000000000E+00  0.00000000000E+00  0.99999998245E-14  0.12500000000E+03  0.12500000000E+03 0.  0.
        -13    1    3    3    0    0  0.16015478988E+01 -0.30093722747E+02 -0.45797358488E+02  0.54823410263E+02  0.10566000000E+00 0. -1.
         23    2    1    0    0    0  0.14673031232E+02 -0.20627878974E+02 -0.43334565061E+01  0.99317591978E+02  0.95939553858E+02 0.  0.
         13    1    3    3    0    0  0.13071483334E+02  0.94658437725E+01  0.41463901982E+02  0.44494181714E+02  0.10566000000E+00 0.  1.
         22    1    1    0    0    0 -0.14673031232E+02  0.20627878974E+02  0.43334565061E+01  0.25682408022E+02  0.00000000000E+00 0. -1.
</event>
<event>
 5    1  0.6835449E-004  0.9118800E+02  0.7818608E-02  0.1130116E+00
         25   -1    0    0    0    0  0.00000000000E+00  0.00000000000E+00  0.99999998245E-14  0.12500000000E+03  0.12500000000E+03 0.  0.
        -13    1    3    3    0    0 -0.20313008641E+02  0.30397743350E+02 -0.20091746020E+02  0.41717269122E+02  0.10566000000E+00 0.  1.
         23    2    1    0    0    0 -0.11318448010E+02 -0.22654345017E+02 -0.14504866917E+02  0.95815795748E+02  0.91263075431E+02 0.  0.
         13    1    3    3    0    0  0.89945606307E+01 -0.53052088367E+02  0.55868791022E+01  0.54098526627E+02  0.10566000000E+00 0. -1.
         22    1    1    0    0    0  0.11318448010E+02  0.22654345017E+02  0.14504866917E+02  0.29184204252E+02  0.00000000000E+00 0. -1.
</event>
<event>
 5    1  0.6835449E-004  0.9118800E+02  0.7818608E-02  0.1130116E+00
         25   -1    0    0    0    0  0.00000000000E+00  0.00000000000E+00  0.99999998245E-14  0.12500000000E+03  0.12500000000E+03 0.  0.
        -13    1    3    3    0    0 -0.23821983630E+02  0.72417764792E+01 -0.55867339760E+02  0.61164540761E+02  0.10566000000E+00 0.  1.
         23    2    1    0    0    0 -0.22995562877E+01  0.52289119594E+01 -0.27948462627E+02  0.96473765713E+02  0.92159868860E+02 0.  0.
         13    1    3    3    0    0  0.21522427342E+02 -0.20128645198E+01  0.27918877134E+02  0.35309224952E+02  0.10566000000E+00 0. -1.
         22    1    1    0    0    0  0.22995562877E+01 -0.52289119594E+01  0.27948462627E+02  0.28526234287E+02  0.00000000000E+00 0.  1.
</event>
<event>
 5    1  0.6835449E-004  0.9118800E+02  0.7818608E-02  0.1130116E+00
         25   -1    0    0    0    0  0.00000000000E+00  0.00000000000E+00  0.99999998245E-14  0.12500000000E+03  0.12500000000E+03 0.  0.
        -13    1    3    3    0    0  0.10586289930E+02  0.33952510011E+02 -0.59951890059E+01  0.36066548570E+02  0.10566000000E+00 0.  1.
         23    2    1    0    0    0  0.11764282624E+01 -0.26423828482E+02 -0.84843812319E+01  0.97222537553E+02  0.93169922122E+02 0.  0.
         13    1    3    3    0    0 -0.94098616681E+01 -0.60376338493E+02 -0.24891922260E+01  0.61155988982E+02  0.10566000000E+00 0. -1.
         22    1    1    0    0    0 -0.11764282624E+01  0.26423828482E+02  0.84843812319E+01  0.27777462447E+02  0.00000000000E+00 0. -1.
</event>
<event>
 5    1  0.6835449E-004  0.9118800E+02  0.7818608E-02  0.1130116E+00
         25   -1    0    0    0    0  0.00000000000E+00  0.00000000000E+00  0.99999998245E-14  0.12500000000E+03  0.12500000000E+03 0.  0.
        -13    1    3    3    0    0  0.46339979840E+02 -0.22656987732E+02  0.20329495071E+02  0.55443956917E+02  0.10566000000E+00 0.  1.
         23    2    1    0    0    0  0.13154357152E+02 -0.27678363946E+02  0.65734736822E+00  0.94347739914E+02  0.89229675437E+02 0.  0.
         13    1    3    3    0    0 -0.33185622688E+02 -0.50213762132E+01 -0.19672147702E+02  0.38903782998E+02  0.10566000000E+00 0. -1.
         22    1    1    0    0    0 -0.13154357152E+02  0.27678363946E+02 -0.65734736822E+00  0.30652260086E+02  0.00000000000E+00 0.  1.
</event>
<event>
 5    1  0.6835449E-004  0.9118800E+02  0.7818608E-02  0.1130116E+00
         25   -1    0    0    0    0  0.00000000000E+00  0.00000000000E+00  0.99999998245E-14  0.12500000000E+03  0.12500000000E+03 0.  0.
        -13    1    3    3    0    0 -0.17469529807E+02 -0.11522415029E+02  0.36217103582E+02  0.41828701577E+02  0.10566000000E+00 0.  1.
         23    2    1    0    0    0  0.25678594025E+02  0.85022884790E+01  0.98727740057E+01  0.96205021843E+02  0.91794637429E+02 0.  0.
         13    1    3    3    0    0  0.43148123832E+02  0.20024703508E+02 -0.26344329576E+02  0.54376320266E+02  0.10566000000E+00 0. -1.
         22    1    1    0    0    0 -0.25678594025E+02 -0.85022884790E+01 -0.98727740057E+01  0.28794978157E+02  0.00000000000E+00 0. -1.
</event>
<event>
 5    1  0.6835449E-004  0.9118800E+02  0.7818608E-02  0.1130116E+00
         25   -1    0    0    0    0  0.00000000000E+00  0.00000000000E+00  0.99999998245E-14  0.12500000000E+03  0.12500000000E+03 0.  0.
        -13    1    3    3    0    0  0.37750030126E+02  0.11418449026E+02 -0.86628635068E+01  0.40379476481E+02  0.10566000000E+00 0. -1.
         23    2    1    0    0    0 -0.79665089521E+01 -0.13117112853E+02 -0.25765614769E+02  0.95010154737E+02  0.90152862873E+02 0.  0.
         13    1    3    3    0    0 -0.45716539078E+02 -0.24535561878E+02 -0.17102751262E+02  0.54630678256E+02  0.10566000000E+00 0.  1.
         22    1    1    0    0    0  0.79665089521E+01  0.13117112853E+02  0.25765614769E+02  0.29989845263E+02  0.00000000000E+00 0.  1.
</event>
<event>
 5    1  0.6835449E-004  0.9118800E+02  0.7818608E-02  0.1130116E+00
         25   -1    0    0    0    0  0.00000000000E+00  0.00000000000E+00  0.99999998245E-14  0.12500000000E+03  0.12500000000E+03 0.  0.
        -13    1    3    3    0    0 -0.23322652547E+02 -0.10164146137E+02 -0.31965281116E+02  0.40853963692E+02  0.10566000000E+00 0. -1.
         23    2    1    0    0    0  0.20944435507E+02  0.16053717234E+02 -0.10943118354E+02  0.96431782431E+02  0.92102907706E+02 0.  0.
         13    1    3    3    0    0  0.44267088054E+02  0.26217863371E+02  0.21022162762E+02  0.55577818739E+02  0.10566000000E+00 0.  1.
         22    1    1    0    0    0 -0.20944435507E+02 -0.16053717234E+02  0.10943118354E+02  0.28568217569E+02  0.00000000000E+00 0.  1.
</event>
<event>
 5    1  0.6835449E-004  0.9118800E+02  0.7818608E-02  0.1130116E+00
         25   -1    0    0    0    0  0.00000000000E+00  0.00000000000E+00  0.99999998245E-14  0.12500000000E+03  0.12500000000E+03 0.  0.
        -13    1    3    3    0    0 -0.40544201718E+02  0.27854434134E+01 -0.22856308471E+02  0.46626312195E+02  0.10566000000E+00 0.  1.
         23    2    1    0    0    0 -0.10237581128E+01 -0.24934667632E+02  0.17305886163E-01  0.10004431868E+03  0.96881781932E+02 0.  0.
         13    1    3    3    0    0  0.39520443605E+02 -0.27720111045E+02  0.22873614357E+02  0.53418006486E+02  0.10566000000E+00 0. -1.
         22    1    1    0    0    0  0.10237581128E+01  0.24934667632E+02 -0.17305886163E-01  0.24955681319E+02  0.00000000000E+00 0.  1.
</event>
<event>
 5    1  0.6835449E-004  0.9118800E+02  0.7818608E-02  0.1130116E+00
         25   -1    0    0    0    0  0.00000000000E+00  0.00000000000E+00  0.99999998245E-14  0.12500000000E+03  0.12500000000E+03 0.  0.
        -13    1    3    3    0    0  0.23879523550E+02  0.42752242154E+02  0.10890079829E+02  0.50165634222E+02  0.10566000000E+00 0. -1.
         23    2    1    0    0    0  0.16349319018E+02  0.17576237676E+01  0.25776798650E+02  0.94424964066E+02  0.89337791648E+02 0.  0.
         13    1    3    3    0    0 -0.75302045316E+01 -0.40994618387E+02  0.14886718821E+02  0.44259329844E+02  0.10566000000E+00 0.  1.
         22    1    1    0    0    0 -0.16349319018E+02 -0.17576237676E+01 -0.25776798650E+02  0.30575035934E+02  0.00000000000E+00 0. -1.
</event>
<event>
 5    1  0.6835449E-004  0.9118800E+02  0.7818608E-02  0.1130116E+00
         25   -1    0    0    0    0  0.00000000000E+00  0.00000000000E+00  0.99999998245E-14  0.12500000000E+03  0.12500000000E+03 0.  0.
        -13    1    3    3    0    0 -0.23160657885E+02  0.32585914409E+02 -0.52224232376E+01  0.40318020290E+02  0.10566000000E+00 0.  1.
         23    2    1    0    0    0  0.43674095223E+01 -0.85833313604E+01 -0.28409792382E+02  0.95002264312E+02  0.90141921868E+02 0.  0.
         13    1    3    3    0    0  0.27528067408E+02 -0.41169245770E+02 -0.23187369145E+02  0.54684244023E+02  0.10566000000E+00 0. -1.
         22    1    1    0    0    0 -0.43674095223E+01  0.85833313604E+01  0.28409792382E+02  0.29997735688E+02  0.00000000000E+00 0. -1.
</event>
<event>
 5    1  0.6835449E-004  0.9118800E+02  0.7818608E-02  0.1130116E+00
         25   -1    0    0    0    0  0.00000000000E+00  0.00000000000E+00  0.99999998245E-14  0.12500000000E+03  0.12500000000E+03 0.  0.
        -13    1    3    3    0    0  0.99056557260E+01 -0.22013828422E+02  0.50404904449E+02  0.55887352896E+02  0.10566000000E+00 0. -1.
         23    2    1    0    0    0 -0.12366864702E+02  0.28102819835E+01  0.21581883597E+02  0.99967726292E+02  0.96782909509E+02 0.  0.
         13    1    3    3    0    0 -0.22272520428E+02  0.24824110405E+02 -0.28823020852E+02  0.44080373396E+02  0.10566000000E+00 0.  1.
         22    1    1    0    0    0  0.12366864702E+02 -0.28102819835E+01 -0.21581883597E+02  0.25032273708E+02  0.00000000000E+00 0.  1.
</event>
<event>
 5    1  0.6835449E-004  0.9118800E+02  0.7818608E-02  0.1130116E+00
         25   -1    0    0    0    0  0.00000000000E+00  0.00000000000E+00  0.99999998245E-14  0.12500000000E+03  0.12500000000E+03 0.  0.
        -13    1    3    3    0    0  0.20349276180E+02  0.31588760702E+01 -0.19835280919E+02  0.28592325408E+02  0.10566000000E+00 0. -1.
         23    2    1    0    0    0 -0.32525895046E+02  0.13082631929E+01  0.11961635730E+02  0.90319657867E+02  0.83396129807E+02 0.  0.
         13    1    3    3    0    0 -0.52875171225E+02 -0.18506128773E+01  0.31796916649E+02  0.61727332459E+02  0.10566000000E+00 0.  1.
         22    1    1    0    0    0  0.32525895046E+02 -0.13082631929E+01 -0.11961635730E+02  0.34680342133E+02  0.00000000000E+00 0.  1.
</event>
<event>
 5    1  0.6835449E-004  0.9118800E+02  0.7818608E-02  0.1130116E+00
         25   -1    0    0    0    0  0.00000000000E+00  0.00000000000E+00  0.99999998245E-14  0.12500000000E+03  0.12500000000E+03 0.  0.
        -13    1    3    3    0    0 -0.44064258305E+02 -0.39612326337E+02  0.47271740730E+01  0.59440328032E+02  0.10566000000E+00 0. -1.
         23    2    1    0    0    0 -0.22321649133E+02 -0.29419677464E+02 -0.88483894741E+01  0.87025436956E+02  0.78302996360E+02 0.  0.
         13    1    3    3    0    0  0.21742609172E+02  0.10192648873E+02 -0.13575563547E+02  0.27585108923E+02  0.10566000000E+00 0.  1.
         22    1    1    0    0    0  0.22321649133E+02  0.29419677464E+02  0.88483894741E+01  0.37974563044E+02  0.00000000000E+00 0. -1.
</event>
<event>
 5    1  0.6835449E-004  0.9118800E+02  0.7818608E-02  0.1130116E+00
         25   -1    0    0    0    0  0.00000000000E+00  0.00000000000E+00  0.99999998245E-14  0.12500000000E+03  0.12500000000E+03 0.  0.
        -13    1    3    3    0    0 -0.37756306062E+02 -0.39317310514E+01 -0.15760324965E+02  0.41102264701E+02  0.10566000000E+00 0. -1.
         23    2    1    0    0    0 -0.24578051938E+01 -0.35771224536E+01 -0.40537820385E+02  0.84230507815E+02  0.73706356265E+02 0.  0.
         13    1    3    3    0    0  0.35298500868E+02  0.35460859786E+00 -0.24777495420E+02  0.43128243114E+02  0.10566000000E+00 0.  1.
         22    1    1    0    0    0  0.24578051938E+01  0.35771224536E+01  0.40537820385E+02  0.40769492185E+02  0.00000000000E+00 0.  1.
</event>
<event>
 5    1  0.6835449E-004  0.9118800E+02  0.7818608E-02  0.1130116E+00
         25   -1    0    0    0    0  0.00000000000E+00  0.00000000000E+00  0.99999998245E-14  0.12500000000E+03  0.12500000000E+03 0.  0.
        -13    1    3    3    0    0 -0.58285065651E+01  0.42514456715E+02  0.24660616798E+01  0.42983056461E+02  0.10566000000E+00 0.  1.
         23    2    1    0    0    0 -0.13910368035E+02 -0.43376080794E+01  0.25359929174E+02  0.95752107932E+02  0.91175802618E+02 0.  0.
         13    1    3    3    0    0 -0.80818614701E+01 -0.46852064794E+02  0.22893867494E+02  0.52769051471E+02  0.10566000000E+00 0. -1.
         22    1    1    0    0    0  0.13910368035E+02  0.43376080794E+01 -0.25359929174E+02  0.29247892068E+02  0.00000000000E+00 0. -1.
</event>
<event>
 5    1  0.6835449E-004  0.9118800E+02  0.7818608E-02  0.1130116E+00
         25   -1    0    0    0    0  0.00000000000E+00  0.00000000000E+00  0.99999998245E-14  0.12500000000E+03  0.12500000000E+03 0.  0.
        -13    1    3    3    0    0  0.42411265038E+02 -0.19717765369E+02  0.32861629248E+02  0.57161206374E+02  0.10566000000E+00 0.  1.
         23    2    1    0    0    0  0.20428395669E+02  0.74706571177E+01  0.22675396811E+02  0.93578610981E+02  0.88145633727E+02 0.  0.
         13    1    3    3    0    0 -0.21982869370E+02  0.27188422486E+02 -0.10186232436E+02  0.36417404607E+02  0.10566000000E+00 0. -1.
         22    1    1    0    0    0 -0.20428395669E+02 -0.74706571177E+01 -0.22675396811E+02  0.31421389019E+02  0.00000000000E+00 0.  1.
</event>
<event>
 5    1  0.6835449E-004  0.9118800E+02  0.7818608E-02  0.1130116E+00
         25   -1    0    0    0    0  0.00000000000E+00  0.00000000000E+00  0.99999998245E-14  0.12500000000E+03  0.12500000000E+03 0.  0.
        -13    1    3    3    0    0 -0.14497712944E+02 -0.40957751916E+02 -0.10241037874E+01  0.43460109011E+02  0.10566000000E+00 0.  1.
         23    2    1    0    0    0  0.25407169382E+02 -0.17225311802E+02  0.12557769305E+02  0.91834759272E+02  0.85636965254E+02 0.  0.
         13    1    3    3    0    0  0.39904882325E+02  0.23732440114E+02  0.13581873092E+02  0.48374650261E+02  0.10566000000E+00 0. -1.
         22    1    1    0    0    0 -0.25407169382E+02  0.17225311802E+02 -0.12557769305E+02  0.33165240728E+02  0.00000000000E+00 0. -1.
</event>
<event>
 5    1  0.6835449E-004  0.9118800E+02  0.7818608E-02  0.1130116E+00
         25   -1    0    0    0    0  0.00000000000E+00  0.00000000000E+00  0.99999998245E-14  0.12500000000E+03  0.12500000000E+03 0.  0.
        -13    1    3    3    0    0  0.47662647082E+02  0.35807353609E+02  0.17762859726E+02  0.62204701181E+02  0.10566000000E+00 0.  1.
         23    2    1    0    0    0  0.24143027742E+02  0.12960463442E+02  0.92145877397E+01  0.96090347141E+02  0.91638347788E+02 0.  0.
         13    1    3    3    0    0 -0.23519619340E+02 -0.22846890167E+02 -0.85482719866E+01  0.33885645961E+02  0.10566000000E+00 0. -1.
         22    1    1    0    0    0 -0.24143027742E+02 -0.12960463442E+02 -0.92145877397E+01  0.28909652859E+02  0.00000000000E+00 0.  1.
</event>
<event>
 5    1  0.6835449E-004  0.9118800E+02  0.7818608E-02  0.1130116E+00
         25   -1    0    0    0    0  0.00000000000E+00  0.00000000000E+00  0.99999998245E-14  0.12500000000E+03  0.12500000000E+03 0.  0.
        -13    1    3    3    0    0  0.93797264961E+01 -0.52184377350E+02  0.25017760582E+02  0.58626683491E+02  0.10566000000E+00 0.  1.
         23    2    1    0    0    0 -0.40043284243E+01 -0.28597877416E+02 -0.85811875753E+00  0.96110389296E+02  0.91665682368E+02 0.  0.
         13    1    3    3    0    0 -0.13384054920E+02  0.23586499934E+02 -0.25875879339E+02  0.37483705805E+02  0.10566000000E+00 0. -1.
         22    1    1    0    0    0  0.40043284243E+01  0.28597877416E+02  0.85811875753E+00  0.28889610704E+02  0.00000000000E+00 0.  1.
</event>
<event>
 5    1  0.6835449E-004  0.9118800E+02  0.7818608E-02  0.1130116E+00
         25   -1    0    0    0    0  0.00000000000E+00  0.00000000000E+00  0.99999998245E-14  0.12500000000E+03  0.12500000000E+03 0.  0.
        -13    1    3    3    0    0  0.40681886415E+02 -0.67089944229E+01  0.95559870287E+00  0.41242585047E+02  0.10566000000E+00 0. -1.
         23    2    1    0    0    0 -0.11133228822E+02  0.17389351576E+02  0.14248151932E+02  0.99913187415E+02  0.96712444151E+02 0.  0.
         13    1    3    3    0    0 -0.51815115236E+02  0.24098345998E+02  0.13292553229E+02  0.58670602368E+02  0.10566000000E+00 0.  1.
         22    1    1    0    0    0  0.11133228822E+02 -0.17389351576E+02 -0.14248151932E+02  0.25086812585E+02  0.00000000000E+00 0.  1.
</event>
<event>
 5    1  0.6835449E-004  0.9118800E+02  0.7818608E-02  0.1130116E+00
         25   -1    0    0    0    0  0.00000000000E+00  0.00000000000E+00  0.99999998245E-14  0.12500000000E+03  0.12500000000E+03 0.  0.
        -13    1    3    3    0    0 -0.25425811081E+02 -0.11877370232E+02  0.26989359425E+02  0.38935593986E+02  0.10566000000E+00 0. -1.
         23    2    1    0    0    0 -0.79121584129E+01  0.15075765990E+02 -0.21786111732E+02  0.97350124135E+02  0.93340939752E+02 0.  0.
         13    1    3    3    0    0  0.17513652669E+02  0.26953136222E+02 -0.48775471157E+02  0.58414530150E+02  0.10566000000E+00 0.  1.
         22    1    1    0    0    0  0.79121584129E+01 -0.15075765990E+02  0.21786111732E+02  0.27649875865E+02  0.00000000000E+00 0.  1.
</event>
<event>
 5    1  0.6835449E-004  0.9118800E+02  0.7818608E-02  0.1130116E+00
         25   -1    0    0    0    0  0.00000000000E+00  0.00000000000E+00  0.99999998245E-14  0.12500000000E+03  0.12500000000E+03 0.  0.
        -13    1    3    3    0    0  0.22704146028E+02 -0.56647553721E+02 -0.96272381902E+01  0.61782833123E+02  0.10566000000E+00 0. -1.
         23    2    1    0    0    0  0.11414181028E+02 -0.17801398722E+02  0.16796426737E+01  0.10378692562E+03  0.10159592219E+03 0.  0.
         13    1    3    3    0    0 -0.11289965000E+02  0.38846154999E+02  0.11306880864E+02  0.42004092501E+02  0.10566000000E+00 0.  1.
         22    1    1    0    0    0 -0.11414181028E+02  0.17801398722E+02 -0.16796426737E+01  0.21213074377E+02  0.00000000000E+00 0. -1.
</event>
<event>
 5    1  0.6835449E-004  0.9118800E+02  0.7818608E-02  0.1130116E+00
         25   -1    0    0    0    0  0.00000000000E+00  0.00000000000E+00  0.99999998245E-14  0.12500000000E+03  0.12500000000E+03 0.  0.
        -13    1    3    3    0    0  0.20093663160E+02 -0.34260276579E+02 -0.37225037724E+02  0.54435617458E+02  0.10566000000E+00 0. -1.
         23    2    1    0    0    0  0.28381944045E+02 -0.10913364831E+02 -0.64992137853E+01  0.93905369281E+02  0.88607800561E+02 0.  0.
         13    1    3    3    0    0  0.82882808857E+01  0.23346911748E+02  0.30725823939E+02  0.39469751823E+02  0.10566000000E+00 0.  1.
         22    1    1    0    0    0 -0.28381944045E+02  0.10913364831E+02  0.64992137853E+01  0.31094630719E+02  0.00000000000E+00 0. -1.
</event>
<event>
 5    1  0.6835449E-004  0.9118800E+02  0.7818608E-02  0.1130116E+00
         25   -1    0    0    0    0  0.00000000000E+00  0.00000000000E+00  0.99999998245E-14  0.12500000000E+03  0.12500000000E+03 0.  0.
        -13    1    3    3    0    0 -0.60105875775E+02  0.34296416869E+01  0.15495763084E+02  0.62165976084E+02  0.10566000000E+00 0. -1.
         23    2    1    0    0    0 -0.30633500792E+02 -0.27841507359E+01  0.84802087560E+01  0.93092684120E+02  0.87453822272E+02 0.  0.
         13    1    3    3    0    0  0.29472374983E+02 -0.62137924228E+01 -0.70155543279E+01  0.30926708037E+02  0.10566000000E+00 0.  1.
         22    1    1    0    0    0  0.30633500792E+02  0.27841507359E+01 -0.84802087560E+01  0.31907315880E+02  0.00000000000E+00 0. -1.
</event>
<event>
 5    1  0.6835449E-004  0.9118800E+02  0.7818608E-02  0.1130116E+00
         25   -1    0    0    0    0  0.00000000000E+00  0.00000000000E+00  0.99999998245E-14  0.12500000000E+03  0.12500000000E+03 0.  0.
        -13    1    3    3    0    0  0.56737451235E+02  0.16585626577E+02 -0.15805338936E+02  0.61188571519E+02  0.10566000000E+00 0. -1.
         23    2    1    0    0    0  0.31334755473E+02  0.13101469715E+02 -0.53432243852E+00  0.91032354958E+02  0.84457615047E+02 0.  0.
         13    1    3    3    0    0 -0.25402695762E+02 -0.34841568620E+01  0.15271016497E+02  0.29843783438E+02  0.10566000000E+00 0.  1.
         22    1    1    0    0    0 -0.31334755473E+02 -0.13101469715E+02  0.53432243852E+00  0.33967645042E+02  0.00000000000E+00 0. -1.
</event>
<event>
 5    1  0.6835449E-004  0.9118800E+02  0.7818608E-02  0.1130116E+00
         25   -1    0    0    0    0  0.00000000000E+00  0.00000000000E+00  0.99999998245E-14  0.12500000000E+03  0.12500000000E+03 0.  0.
        -13    1    3    3    0    0  0.23798858961E+02  0.13550623287E+02 -0.20544881729E+02  0.34236068825E+02  0.10566000000E+00 0. -1.
         23    2    1    0    0    0 -0.20569702070E+01 -0.16649038585E+02  0.25127079426E+02  0.94787556658E+02  0.89843692959E+02 0.  0.
         13    1    3    3    0    0 -0.25855829168E+02 -0.30199661872E+02  0.45671961154E+02  0.60551487833E+02  0.10566000000E+00 0.  1.
         22    1    1    0    0    0  0.20569702070E+01  0.16649038585E+02 -0.25127079426E+02  0.30212443342E+02  0.00000000000E+00 0.  1.
</event>
<event>
 5    1  0.6835449E-004  0.9118800E+02  0.7818608E-02  0.1130116E+00
         25   -1    0    0    0    0  0.00000000000E+00  0.00000000000E+00  0.99999998245E-14  0.12500000000E+03  0.12500000000E+03 0.  0.
        -13    1    3    3    0    0 -0.34402191141E+02 -0.40038661627E+02  0.33225346242E+02  0.62374193198E+02  0.10566000000E+00 0. -1.
         23    2    1    0    0    0 -0.16186166729E+02 -0.23017891808E+02  0.16860351723E+02  0.92196238068E+02  0.86162982290E+02 0.  0.
         13    1    3    3    0    0  0.18216024412E+02  0.17020769819E+02 -0.16364994519E+02  0.29822044870E+02  0.10566000000E+00 0.  1.
         22    1    1    0    0    0  0.16186166729E+02  0.23017891808E+02 -0.16860351723E+02  0.32803761932E+02  0.00000000000E+00 0. -1.
</event>
<event>
 5    1  0.6835449E-004  0.9118800E+02  0.7818608E-02  0.1130116E+00
         25   -1    0    0    0    0  0.00000000000E+00  0.00000000000E+00  0.99999998245E-14  0.12500000000E+03  0.12500000000E+03 0.  0.
        -13    1    3    3    0    0  0.50590332971E+02  0.15609628099E+01 -0.29383120860E+02  0.58525185608E+02  0.10566000000E+00 0. -1.
         23    2    1    0    0    0  0.18370146547E+02 -0.11235359342E+02 -0.22473030618E+02  0.93875529099E+02  0.88565694683E+02 0.  0.
         13    1    3    3    0    0 -0.32220186423E+02 -0.12796322152E+02  0.69100902417E+01  0.35350343491E+02  0.10566000000E+00 0.  1.
         22    1    1    0    0    0 -0.18370146547E+02  0.11235359342E+02  0.22473030618E+02  0.31124470901E+02  0.00000000000E+00 0. -1.
</event>
<event>
 5    1  0.6835449E-004  0.9118800E+02  0.7818608E-02  0.1130116E+00
         25   -1    0    0    0    0  0.00000000000E+00  0.00000000000E+00  0.99999998245E-14  0.12500000000E+03  0.12500000000E+03 0.  0.
        -13    1    3    3    0    0  0.42537721142E+02 -0.26371250810E+02 -0.84598630460E+01  0.50759048809E+02  0.10566000000E+00 0.  1.
         23    2    1    0    0    0  0.62178525155E+01  0.37194887656E+00 -0.25330668894E+02  0.98914701027E+02  0.95413181777E+02 0.  0.
         13    1    3    3    0    0 -0.36319868626E+02  0.26743199687E+02 -0.16870805848E+02  0.48155652218E+02  0.10566000000E+00 0. -1.
         22    1    1    0    0    0 -0.62178525155E+01 -0.37194887656E+00  0.25330668894E+02  0.26085298973E+02  0.00000000000E+00 0. -1.
</event>
<event>
 5    1  0.6835449E-004  0.9118800E+02  0.7818608E-02  0.1130116E+00
         25   -1    0    0    0    0  0.00000000000E+00  0.00000000000E+00  0.99999998245E-14  0.12500000000E+03  0.12500000000E+03 0.  0.
        -13    1    3    3    0    0  0.52443139308E+02 -0.22897154282E+02 -0.13243942784E+02  0.58736493930E+02  0.10566000000E+00 0. -1.
         23    2    1    0    0    0  0.29101604701E+02 -0.39723943645E+01  0.67921855067E+01  0.94853406542E+02  0.89935263582E+02 0.  0.
         13    1    3    3    0    0 -0.23341534607E+02  0.18924759917E+02  0.20036128291E+02  0.36116912612E+02  0.10566000000E+00 0.  1.
         22    1    1    0    0    0 -0.29101604701E+02  0.39723943645E+01 -0.67921855067E+01  0.30146593458E+02  0.00000000000E+00 0.  1.
</event>
<event>
 5    1  0.6835449E-004  0.9118800E+02  0.7818608E-02  0.1130116E+00
         25   -1    0    0    0    0  0.00000000000E+00  0.00000000000E+00  0.99999998245E-14  0.12500000000E+03  0.12500000000E+03 0.  0.
        -13    1    3    3    0    0 -0.52781897543E+00  0.24110697427E+02  0.27607579116E+02  0.36657794696E+02  0.10566000000E+00 0. -1.
         23    2    1    0    0    0 -0.15989597999E+02 -0.22786871021E+02 -0.61719009730E+01  0.96486825910E+02  0.92177581208E+02 0.  0.
         13    1    3    3    0    0 -0.15461779023E+02 -0.46897568447E+02 -0.33779480089E+02  0.59829031214E+02  0.10566000000E+00 0.  1.
         22    1    1    0    0    0  0.15989597999E+02  0.22786871021E+02  0.61719009730E+01  0.28513174090E+02  0.00000000000E+00 0.  1.
</event>
<event>
 5    1  0.6835449E-004  0.9118800E+02  0.7818608E-02  0.1130116E+00
         25   -1    0    0    0    0  0.00000000000E+00  0.00000000000E+00  0.99999998245E-14  0.12500000000E+03  0.12500000000E+03 0.  0.
        -13    1    3    3    0    0 -0.28116912974E+02  0.15188861808E+02  0.19679732938E+01  0.32017907508E+02  0.10566000000E+00 0. -1.
         23    2    1    0    0    0  0.28577274050E+02 -0.82668214780E+01 -0.80403585125E+01  0.94183635930E+02  0.88999488665E+02 0.  0.
         13    1    3    3    0    0  0.56694187024E+02 -0.23455683286E+02 -0.10008331806E+02  0.62165728423E+02  0.10566000000E+00 0.  1.
         22    1    1    0    0    0 -0.28577274050E+02  0.82668214780E+01  0.80403585125E+01  0.30816364070E+02  0.00000000000E+00 0.  1.
</event>
<event>
 5    1  0.6835449E-004  0.9118800E+02  0.7818608E-02  0.1130116E+00
         25   -1    0    0    0    0  0.00000000000E+00  0.00000000000E+00  0.99999998245E-14  0.12500000000E+03  0.12500000000E+03 0.  0.
        -13    1    3    3    0    0  0.23611215717E+02  0.44441341453E+02  0.63797058445E+01  0.50727055389E+02  0.10566000000E+00 0.  1.
         23    2    1    0    0    0  0.27989583019E+02  0.25052955943E+00  0.99878394267E+01  0.95280705610E+02  0.90527213602E+02 0.  0.
         13    1    3    3    0    0  0.43783673011E+01 -0.44190811893E+02  0.36081335822E+01  0.44553650221E+02  0.10566000000E+00 0. -1.
         22    1    1    0    0    0 -0.27989583019E+02 -0.25052955943E+00 -0.99878394267E+01  0.29719294390E+02  0.00000000000E+00 0.  1.
</event>
<event>
 5    1  0.6835449E-004  0.9118800E+02  0.7818608E-02  0.1130116E+00
         25   -1    0    0    0    0  0.00000000000E+00  0.00000000000E+00  0.99999998245E-14  0.12500000000E+03  0.12500000000E+03 0.  0.
        -13    1    3    3    0    0  0.39556752580E+02 -0.15386702518E+02 -0.25270152940E+02  0.49397156626E+02  0.10566000000E+00 0.  1.
         23    2    1    0    0    0  0.18974239183E+02 -0.16493494611E+02  0.15769795041E+02  0.95322676120E+02  0.90585147954E+02 0.  0.
         13    1    3    3    0    0 -0.20582513397E+02 -0.11067920928E+01  0.41039947981E+02  0.45925519494E+02  0.10566000000E+00 0. -1.
         22    1    1    0    0    0 -0.18974239183E+02  0.16493494611E+02 -0.15769795041E+02  0.29677323880E+02  0.00000000000E+00 0.  1.
</event>
<event>
 5    1  0.6835449E-004  0.9118800E+02  0.7818608E-02  0.1130116E+00
         25   -1    0    0    0    0  0.00000000000E+00  0.00000000000E+00  0.99999998245E-14  0.12500000000E+03  0.12500000000E+03 0.  0.
        -13    1    3    3    0    0 -0.38149898656E+02  0.68984761330E+01  0.40675291085E+02  0.56191584862E+02  0.10566000000E+00 0.  1.
         23    2    1    0    0    0 -0.21023422274E+02  0.19156687137E+02  0.73350734894E+01  0.95627117110E+02  0.91004281644E+02 0.  0.
         13    1    3    3    0    0  0.17126476382E+02  0.12258211004E+02 -0.33340217596E+02  0.39435532248E+02  0.10566000000E+00 0. -1.
         22    1    1    0    0    0  0.21023422274E+02 -0.19156687137E+02 -0.73350734894E+01  0.29372882890E+02  0.00000000000E+00 0.  1.
</event>
<event>
 5    1  0.6835449E-004  0.9118800E+02  0.7818608E-02  0.1130116E+00
         25   -1    0    0    0    0  0.00000000000E+00  0.00000000000E+00  0.99999998245E-14  0.12500000000E+03  0.12500000000E+03 0.  0.
        -13    1    3    3    0    0 -0.25853671019E+02  0.10155015814E+02  0.18394408482E+02  0.33315192912E+02  0.10566000000E+00 0.  1.
         23    2    1    0    0    0  0.25426748602E+02 -0.22649731701E+01 -0.14645844512E+02  0.95569566612E+02  0.90925198120E+02 0.  0.
         13    1    3    3    0    0  0.51280419621E+02 -0.12419988984E+02 -0.33040252994E+02  0.62254373700E+02  0.10566000000E+00 0. -1.
         22    1    1    0    0    0 -0.25426748602E+02  0.22649731701E+01  0.14645844512E+02  0.29430433388E+02  0.00000000000E+00 0. -1.
</event>
<event>
 5    1  0.6835449E-004  0.9118800E+02  0.7818608E-02  0.1130116E+00
         25   -1    0    0    0    0  0.00000000000E+00  0.00000000000E+00  0.99999998245E-14  0.12500000000E+03  0.12500000000E+03 0.  0.
        -13    1    3    3    0    0  0.45906478262E+02 -0.34816340120E+02 -0.51318163473E+01  0.57844005643E+02  0.10566000000E+00 0.  1.
         23    2    1    0    0    0  0.33072469018E+02 -0.94340284822E+01 -0.14337614292E+02  0.87739346706E+02  0.79434480400E+02 0.  0.
         13    1    3    3    0    0 -0.12834009245E+02  0.25382311638E+02 -0.92057979452E+01  0.29895341062E+02  0.10566000000E+00 0. -1.
         22    1    1    0    0    0 -0.33072469018E+02  0.94340284822E+01  0.14337614292E+02  0.37260653294E+02  0.00000000000E+00 0.  1.
</event>
<event>
 5    1  0.6835449E-004  0.9118800E+02  0.7818608E-02  0.1130116E+00
         25   -1    0    0    0    0  0.00000000000E+00  0.00000000000E+00  0.99999998245E-14  0.12500000000E+03  0.12500000000E+03 0.  0.
        -13    1    3    3    0    0  0.22066331985E+02  0.11833276899E+02  0.22176319882E+02  0.33447717067E+02  0.10566000000E+00 0.  1.
         23    2    1    0    0    0 -0.17255217547E+01 -0.36895075775E+01 -0.30998416471E+02  0.93735136092E+02  0.88367324407E+02 0.  0.
         13    1    3    3    0    0 -0.23791853740E+02 -0.15522784477E+02 -0.53174736353E+02  0.60287419024E+02  0.10566000000E+00 0. -1.
         22    1    1    0    0    0  0.17255217547E+01  0.36895075775E+01  0.30998416471E+02  0.31264863908E+02  0.00000000000E+00 0. -1.
</event>
<event>
 5    1  0.6835449E-004  0.9118800E+02  0.7818608E-02  0.1130116E+00
         25   -1    0    0    0    0  0.00000000000E+00  0.00000000000E+00  0.99999998245E-14  0.12500000000E+03  0.12500000000E+03 0.  0.
        -13    1    3    3    0    0  0.25495527473E+02  0.27372558396E+02  0.78182664559E+01  0.38215380787E+02  0.10566000000E+00 0. -1.
         23    2    1    0    0    0  0.92571821457E+01 -0.25779035683E+02 -0.88113468519E+01  0.96226853919E+02  0.91824362126E+02 0.  0.
         13    1    3    3    0    0 -0.16238345327E+02 -0.53151594080E+02 -0.16629613308E+02  0.58011473132E+02  0.10566000000E+00 0.  1.
         22    1    1    0    0    0 -0.92571821457E+01  0.25779035683E+02  0.88113468519E+01  0.28773146081E+02  0.00000000000E+00 0.  1.
</event>
<event>
 5    1  0.6835449E-004  0.9118800E+02  0.7818608E-02  0.1130116E+00
         25   -1    0    0    0    0  0.00000000000E+00  0.00000000000E+00  0.99999998245E-14  0.12500000000E+03  0.12500000000E+03 0.  0.
        -13    1    3    3    0    0 -0.11379084234E+02 -0.38353536984E+01  0.18413072511E+02  0.21982854667E+02  0.10566000000E+00 0. -1.
         23    2    1    0    0    0 -0.78620251030E+01 -0.47189534425E+00 -0.41836414350E+02  0.82428651776E+02  0.70584438398E+02 0.  0.
         13    1    3    3    0    0  0.35170591314E+01  0.33634583541E+01 -0.60249486861E+02  0.60445797109E+02  0.10566000000E+00 0.  1.
         22    1    1    0    0    0  0.78620251030E+01  0.47189534425E+00  0.41836414350E+02  0.42571348224E+02  0.00000000000E+00 0.  1.
</event>
<event>
 5    1  0.6835449E-004  0.9118800E+02  0.7818608E-02  0.1130116E+00
         25   -1    0    0    0    0  0.00000000000E+00  0.00000000000E+00  0.99999998245E-14  0.12500000000E+03  0.12500000000E+03 0.  0.
        -13    1    3    3    0    0  0.50823686647E+00 -0.44188635822E+02 -0.10335571926E+02  0.45384237920E+02  0.10566000000E+00 0.  1.
         23    2    1    0    0    0 -0.20162061417E+02 -0.72581480104E+01  0.18577595311E+02  0.96639526085E+02  0.92384422503E+02 0.  0.
         13    1    3    3    0    0 -0.20670298284E+02  0.36930487812E+02  0.28913167237E+02  0.51255288165E+02  0.10566000000E+00 0. -1.
         22    1    1    0    0    0  0.20162061417E+02  0.72581480104E+01 -0.18577595311E+02  0.28360473915E+02  0.00000000000E+00 0. -1.
</event>
<event>
 5    1  0.6835449E-004  0.9118800E+02  0.7818608E-02  0.1130116E+00
         25   -1    0    0    0    0  0.00000000000E+00  0.00000000000E+00  0.99999998245E-14  0.12500000000E+03  0.12500000000E+03 0.  0.
        -13    1    3    3    0    0 -0.35416092836E+01  0.36701307564E+02 -0.61171396795E+01  0.37375921863E+02  0.10566000000E+00 0. -1.
         23    2    1    0    0    0 -0.24282243152E+00 -0.19956948007E+02 -0.20979023925E+02  0.96043857623E+02  0.91574911443E+02 0.  0.
         13    1    3    3    0    0  0.32987868521E+01 -0.56658255571E+02 -0.14861884246E+02  0.58667935760E+02  0.10566000000E+00 0.  1.
         22    1    1    0    0    0  0.24282243152E+00  0.19956948007E+02  0.20979023925E+02  0.28956142377E+02  0.00000000000E+00 0.  1.
</event>
<event>
 5    1  0.6835449E-004  0.9118800E+02  0.7818608E-02  0.1130116E+00
         25   -1    0    0    0    0  0.00000000000E+00  0.00000000000E+00  0.99999998245E-14  0.12500000000E+03  0.12500000000E+03 0.  0.
        -13    1    3    3    0    0  0.23455258366E+02 -0.10632853424E+02 -0.44597959752E+02  0.51499474706E+02  0.10566000000E+00 0.  1.
         23    2    1    0    0    0  0.22879393096E+02 -0.18499359061E+02 -0.12590566303E+01  0.95550413624E+02  0.90898863612E+02 0.  0.
         13    1    3    3    0    0 -0.57586526989E+00 -0.78665056370E+01  0.43338903121E+02  0.44050938918E+02  0.10566000000E+00 0. -1.
         22    1    1    0    0    0 -0.22879393096E+02  0.18499359061E+02  0.12590566303E+01  0.29449586376E+02  0.00000000000E+00 0.  1.
</event>
<event>
 5    1  0.6835449E-004  0.9118800E+02  0.7818608E-02  0.1130116E+00
         25   -1    0    0    0    0  0.00000000000E+00  0.00000000000E+00  0.99999998245E-14  0.12500000000E+03  0.12500000000E+03 0.  0.
        -13    1    3    3    0    0 -0.99890573900E+01  0.13754511581E+02  0.15134507413E+02  0.22760323702E+02  0.10566000000E+00 0. -1.
         23    2    1    0    0    0  0.42486162536E+02  0.21812321624E+02  0.10860315675E+02  0.76022476194E+02  0.58143091149E+02 0.  0.
         13    1    3    3    0    0  0.52475219926E+02  0.80578100427E+01 -0.42741917376E+01  0.53262152491E+02  0.10566000000E+00 0.  1.
         22    1    1    0    0    0 -0.42486162536E+02 -0.21812321624E+02 -0.10860315675E+02  0.48977523806E+02  0.00000000000E+00 0. -1.
</event>
<event>
 5    1  0.6835449E-004  0.9118800E+02  0.7818608E-02  0.1130116E+00
         25   -1    0    0    0    0  0.00000000000E+00  0.00000000000E+00  0.99999998245E-14  0.12500000000E+03  0.12500000000E+03 0.  0.
        -13    1    3    3    0    0 -0.14934871521E+02  0.40193672033E+02 -0.18652808239E+02  0.46760240355E+02  0.10566000000E+00 0.  1.
         23    2    1    0    0    0 -0.78399872003E+01  0.15402986322E+02  0.23291153027E+02  0.95996634743E+02  0.91510429382E+02 0.  0.
         13    1    3    3    0    0  0.70948843205E+01 -0.24790685711E+02  0.41943961266E+02  0.49236394388E+02  0.10566000000E+00 0. -1.
         22    1    1    0    0    0  0.78399872003E+01 -0.15402986322E+02 -0.23291153027E+02  0.29003365257E+02  0.00000000000E+00 0. -1.
</event>
<event>
 5    1  0.6835449E-004  0.9118800E+02  0.7818608E-02  0.1130116E+00
         25   -1    0    0    0    0  0.00000000000E+00  0.00000000000E+00  0.99999998245E-14  0.12500000000E+03  0.12500000000E+03 0.  0.
        -13    1    3    3    0    0  0.30867430307E+02 -0.11814398687E+02 -0.52016783340E+02  0.61629012512E+02  0.10566000000E+00 0.  1.
         23    2    1    0    0    0  0.13751890651E+02  0.17759751210E+01 -0.25330560097E+02  0.96122571809E+02  0.91682293559E+02 0.  0.
         13    1    3    3    0    0 -0.17115539656E+02  0.13590373808E+02  0.26686223243E+02  0.34493559297E+02  0.10566000000E+00 0. -1.
         22    1    1    0    0    0 -0.13751890651E+02 -0.17759751210E+01  0.25330560097E+02  0.28877428191E+02  0.00000000000E+00 0.  1.
</event>
<event>
 5    1  0.6835449E-004  0.9118800E+02  0.7818608E-02  0.1130116E+00
         25   -1    0    0    0    0  0.00000000000E+00  0.00000000000E+00  0.99999998245E-14  0.12500000000E+03  0.12500000000E+03 0.  0.
        -13    1    3    3    0    0 -0.71018248793E+01 -0.58841331405E+02 -0.37834819891E+01  0.59389090733E+02  0.10566000000E+00 0. -1.
         23    2    1    0    0    0  0.87603732721E+01 -0.28004935374E+02  0.51733543535E+01  0.95204293255E+02  0.90421641844E+02 0.  0.
         13    1    3    3    0    0  0.15862198151E+02  0.30836396031E+02  0.89568363426E+01  0.35815202522E+02  0.10566000000E+00 0.  1.
         22    1    1    0    0    0 -0.87603732721E+01  0.28004935374E+02 -0.51733543535E+01  0.29795706745E+02  0.00000000000E+00 0. -1.
</event>
<event>
 5    1  0.6835449E-004  0.9118800E+02  0.7818608E-02  0.1130116E+00
         25   -1    0    0    0    0  0.00000000000E+00  0.00000000000E+00  0.99999998245E-14  0.12500000000E+03  0.12500000000E+03 0.  0.
        -13    1    3    3    0    0  0.28233549415E+02  0.45847180725E+02  0.84492552494E+01  0.54502278588E+02  0.10566000000E+00 0. -1.
         23    2    1    0    0    0 -0.29523316363E+01  0.30086274157E+02 -0.88608850501E+01  0.93497374100E+02  0.88030355701E+02 0.  0.
         13    1    3    3    0    0 -0.31185881051E+02 -0.15760906568E+02 -0.17310140300E+02  0.38995095512E+02  0.10566000000E+00 0.  1.
         22    1    1    0    0    0  0.29523316363E+01 -0.30086274157E+02  0.88608850501E+01  0.31502625900E+02  0.00000000000E+00 0. -1.
</event>
<event>
 5    1  0.6835449E-004  0.9118800E+02  0.7818608E-02  0.1130116E+00
         25   -1    0    0    0    0  0.00000000000E+00  0.00000000000E+00  0.99999998245E-14  0.12500000000E+03  0.12500000000E+03 0.  0.
        -13    1    3    3    0    0  0.22795288558E+02  0.29647305049E+02 -0.17814195617E+01  0.37440252360E+02  0.10566000000E+00 0.  1.
         23    2    1    0    0    0 -0.24124915752E+02  0.14605690439E+01  0.17157646615E+02  0.95359998999E+02  0.90636635804E+02 0.  0.
         13    1    3    3    0    0 -0.46920204310E+02 -0.28186736005E+02  0.18939066176E+02  0.57919746639E+02  0.10566000000E+00 0. -1.
         22    1    1    0    0    0  0.24124915752E+02 -0.14605690439E+01 -0.17157646615E+02  0.29640001001E+02  0.00000000000E+00 0. -1.
</event>
<event>
 5    1  0.6835449E-004  0.9118800E+02  0.7818608E-02  0.1130116E+00
         25   -1    0    0    0    0  0.00000000000E+00  0.00000000000E+00  0.99999998245E-14  0.12500000000E+03  0.12500000000E+03 0.  0.
        -13    1    3    3    0    0  0.38958539625E+02  0.20045295546E+02  0.75631100763E+01  0.44461145749E+02  0.10566000000E+00 0.  1.
         23    2    1    0    0    0  0.68623148236E+01 -0.20868804228E+02  0.16886439970E+02  0.97291694214E+02  0.93262658946E+02 0.  0.
         13    1    3    3    0    0 -0.32096224801E+02 -0.40914099774E+02  0.93233298934E+01  0.52830548466E+02  0.10566000000E+00 0. -1.
         22    1    1    0    0    0 -0.68623148236E+01  0.20868804228E+02 -0.16886439970E+02  0.27708305786E+02  0.00000000000E+00 0. -1.
</event>
<event>
 5    1  0.6835449E-004  0.9118800E+02  0.7818608E-02  0.1130116E+00
         25   -1    0    0    0    0  0.00000000000E+00  0.00000000000E+00  0.99999998245E-14  0.12500000000E+03  0.12500000000E+03 0.  0.
        -13    1    3    3    0    0  0.33914278081E+02 -0.59160443522E+01  0.15492203163E+02  0.37751786201E+02  0.10566000000E+00 0.  1.
         23    2    1    0    0    0 -0.35450118236E+01 -0.85373043368E+01 -0.28176710925E+02  0.95345662834E+02  0.90616862165E+02 0.  0.
         13    1    3    3    0    0 -0.37459289904E+02 -0.26212599846E+01 -0.43668914088E+02  0.57593876633E+02  0.10566000000E+00 0. -1.
         22    1    1    0    0    0  0.35450118236E+01  0.85373043368E+01  0.28176710925E+02  0.29654337166E+02  0.00000000000E+00 0. -1.
</event>
<event>
 4    1  0.6835449E-004  0.9118800E+02  0.7818608E-02  0.1130116E+00
         25   -1    0    0    0    0  0.00000000000E+00  0.00000000000E+00  0.99999998245E-14  0.12500000000E+03  0.12500000000E+03 0.  0.
        -13    1    1    0    0    0 -0.54456268495E+01  0.30883349873E+02 -0.47572098482E+02  0.56978521121E+02  0.10566000000E+00 0.  1.
         13    1    1    0    0    0  0.12200999716E+02  0.41100236360E+01  0.10703115014E+02  0.16742894714E+02  0.10566000000E+00 0. -1.
         22    1    1    0    0    0 -0.67553728662E+01 -0.34993373509E+02  0.36868983467E+02  0.51278584165E+02  0.00000000000E+00 0.  1.
</event>
<event>
 5    1  0.6835449E-004  0.9118800E+02  0.7818608E-02  0.1130116E+00
         25   -1    0    0    0    0  0.00000000000E+00  0.00000000000E+00  0.99999998245E-14  0.12500000000E+03  0.12500000000E+03 0.  0.
        -13    1    3    3    0    0 -0.49069488807E+01  0.49040621919E+02  0.25044048860E+02  0.55283598769E+02  0.10566000000E+00 0. -1.
         23    2    1    0    0    0 -0.20253362723E+02  0.21653094840E+02  0.14872161869E+00  0.95350761631E+02  0.90623895346E+02 0.  0.
         13    1    3    3    0    0 -0.15346413842E+02 -0.27387527079E+02 -0.24895327241E+02  0.40067162862E+02  0.10566000000E+00 0.  1.
         22    1    1    0    0    0  0.20253362723E+02 -0.21653094840E+02 -0.14872161869E+00  0.29649238369E+02  0.00000000000E+00 0. -1.
</event>
<event>
 5    1  0.6835449E-004  0.9118800E+02  0.7818608E-02  0.1130116E+00
         25   -1    0    0    0    0  0.00000000000E+00  0.00000000000E+00  0.99999998245E-14  0.12500000000E+03  0.12500000000E+03 0.  0.
        -13    1    3    3    0    0 -0.17134966674E+02  0.33220565714E+02  0.56736243365E+01  0.37807595089E+02  0.10566000000E+00 0. -1.
         23    2    1    0    0    0  0.12629595068E+02 -0.10341926289E+02  0.25960755700E+02  0.94333683829E+02  0.89209982386E+02 0.  0.
         13    1    3    3    0    0  0.29764561742E+02 -0.43562492003E+02  0.20287131364E+02  0.56526088740E+02  0.10566000000E+00 0.  1.
         22    1    1    0    0    0 -0.12629595068E+02  0.10341926289E+02 -0.25960755700E+02  0.30666316171E+02  0.00000000000E+00 0.  1.
</event>
<event>
 5    1  0.6835449E-004  0.9118800E+02  0.7818608E-02  0.1130116E+00
         25   -1    0    0    0    0  0.00000000000E+00  0.00000000000E+00  0.99999998245E-14  0.12500000000E+03  0.12500000000E+03 0.  0.
        -13    1    3    3    0    0 -0.16963958582E+01  0.34768331738E+02  0.23786992608E+02  0.42160963368E+02  0.10566000000E+00 0.  1.
         23    2    1    0    0    0  0.29538187821E+02  0.31990254916E+00 -0.21069659563E+01  0.95385034477E+02  0.90671156490E+02 0.  0.
         13    1    3    3    0    0  0.31234583679E+02 -0.34448429189E+02 -0.25893958564E+02  0.53224071109E+02  0.10566000000E+00 0. -1.
         22    1    1    0    0    0 -0.29538187821E+02 -0.31990254916E+00  0.21069659563E+01  0.29614965523E+02  0.00000000000E+00 0. -1.
</event>
<event>
 5    1  0.6835449E-004  0.9118800E+02  0.7818608E-02  0.1130116E+00
         25   -1    0    0    0    0  0.00000000000E+00  0.00000000000E+00  0.99999998245E-14  0.12500000000E+03  0.12500000000E+03 0.  0.
        -13    1    3    3    0    0 -0.42873337095E+02  0.80452608683E+00  0.64059342335E+01  0.43356861663E+02  0.10566000000E+00 0. -1.
         23    2    1    0    0    0 -0.33693137919E+01 -0.18754535012E+02 -0.22075201818E+02  0.95838391776E+02  0.91294019213E+02 0.  0.
         13    1    3    3    0    0  0.39504023303E+02 -0.19559061098E+02 -0.28481136051E+02  0.52481530113E+02  0.10566000000E+00 0.  1.
         22    1    1    0    0    0  0.33693137919E+01  0.18754535012E+02  0.22075201818E+02  0.29161608224E+02  0.00000000000E+00 0.  1.
</event>
<event>
 5    1  0.6835449E-004  0.9118800E+02  0.7818608E-02  0.1130116E+00
         25   -1    0    0    0    0  0.00000000000E+00  0.00000000000E+00  0.99999998245E-14  0.12500000000E+03  0.12500000000E+03 0.  0.
        -13    1    3    3    0    0  0.91486880559E+01  0.28408939536E+02 -0.35623477509E+02  0.46473752297E+02  0.10566000000E+00 0. -1.
         23    2    1    0    0    0  0.20095199251E+02  0.21454558232E+02  0.10035046819E+02  0.93938492205E+02  0.88654515120E+02 0.  0.
         13    1    3    3    0    0  0.10946511195E+02 -0.69543813045E+01  0.45658524328E+02  0.47464739908E+02  0.10566000000E+00 0.  1.
         22    1    1    0    0    0 -0.20095199251E+02 -0.21454558232E+02 -0.10035046819E+02  0.31061507795E+02  0.00000000000E+00 0.  1.
</event>
<event>
 5    1  0.6835449E-004  0.9118800E+02  0.7818608E-02  0.1130116E+00
         25   -1    0    0    0    0  0.00000000000E+00  0.00000000000E+00  0.99999998245E-14  0.12500000000E+03  0.12500000000E+03 0.  0.
        -13    1    3    3    0    0  0.25300963158E+02 -0.35925690148E+02 -0.15745994159E+02  0.46676990535E+02  0.10566000000E+00 0. -1.
         23    2    1    0    0    0  0.23573849449E+02  0.10037932876E+02  0.76214224586E+01  0.98268510057E+02  0.94562823109E+02 0.  0.
         13    1    3    3    0    0 -0.17271137095E+01  0.45963623023E+02  0.23367416618E+02  0.51591519522E+02  0.10566000000E+00 0.  1.
         22    1    1    0    0    0 -0.23573849449E+02 -0.10037932876E+02 -0.76214224586E+01  0.26731489943E+02  0.00000000000E+00 0. -1.
</event>
<event>
 5    1  0.6835449E-004  0.9118800E+02  0.7818608E-02  0.1130116E+00
         25   -1    0    0    0    0  0.00000000000E+00  0.00000000000E+00  0.99999998245E-14  0.12500000000E+03  0.12500000000E+03 0.  0.
        -13    1    3    3    0    0  0.15441828237E+02 -0.38471202503E+02  0.14729129103E+02  0.43993657379E+02  0.10566000000E+00 0. -1.
         23    2    1    0    0    0  0.25403110452E+02  0.59781488528E+01 -0.11415640978E+02  0.96515387605E+02  0.92216304964E+02 0.  0.
         13    1    3    3    0    0  0.99612822146E+01  0.44449351356E+02 -0.26144770081E+02  0.52521730227E+02  0.10566000000E+00 0.  1.
         22    1    1    0    0    0 -0.25403110452E+02 -0.59781488528E+01  0.11415640978E+02  0.28484612395E+02  0.00000000000E+00 0.  1.
</event>
<event>
 5    1  0.6835449E-004  0.9118800E+02  0.7818608E-02  0.1130116E+00
         25   -1    0    0    0    0  0.00000000000E+00  0.00000000000E+00  0.99999998245E-14  0.12500000000E+03  0.12500000000E+03 0.  0.
        -13    1    3    3    0    0  0.45740593519E+02  0.49567660949E+01  0.17930491539E+02  0.49378994689E+02  0.10566000000E+00 0.  1.
         23    2    1    0    0    0  0.95530235422E+01  0.27241491020E+02 -0.14656786786E+01  0.96094856759E+02  0.91644498961E+02 0.  0.
         13    1    3    3    0    0 -0.36187569977E+02  0.22284724925E+02 -0.19396170217E+02  0.46715862070E+02  0.10566000000E+00 0. -1.
         22    1    1    0    0    0 -0.95530235422E+01 -0.27241491020E+02  0.14656786786E+01  0.28905143241E+02  0.00000000000E+00 0. -1.
</event>
<event>
 5    1  0.6835449E-004  0.9118800E+02  0.7818608E-02  0.1130116E+00
         25   -1    0    0    0    0  0.00000000000E+00  0.00000000000E+00  0.99999998245E-14  0.12500000000E+03  0.12500000000E+03 0.  0.
        -13    1    3    3    0    0  0.28791727891E+02  0.24330686170E+02 -0.17728260246E+02  0.41656311165E+02  0.10566000000E+00 0.  1.
         23    2    1    0    0    0 -0.11593522907E+02  0.19972617505E+02  0.17973943915E+02  0.95736065144E+02  0.91153805658E+02 0.  0.
         13    1    3    3    0    0 -0.40385250798E+02 -0.43580686648E+01  0.35702204160E+02  0.54079753979E+02  0.10566000000E+00 0. -1.
         22    1    1    0    0    0  0.11593522907E+02 -0.19972617505E+02 -0.17973943915E+02  0.29263934856E+02  0.00000000000E+00 0. -1.
</event>
<event>
 5    1  0.6835449E-004  0.9118800E+02  0.7818608E-02  0.1130116E+00
         25   -1    0    0    0    0  0.00000000000E+00  0.00000000000E+00  0.99999998245E-14  0.12500000000E+03  0.12500000000E+03 0.  0.
        -13    1    3    3    0    0 -0.27955984363E+02  0.35575104150E+02 -0.40048000643E+02  0.60423328413E+02  0.10566000000E+00 0. -1.
         23    2    1    0    0    0 -0.20340684287E+02  0.77032968229E+01 -0.17968138482E+02  0.96787622934E+02  0.92584586912E+02 0.  0.
         13    1    3    3    0    0  0.76153000770E+01 -0.27871807327E+02  0.22079862161E+02  0.36364294521E+02  0.10566000000E+00 0.  1.
         22    1    1    0    0    0  0.20340684287E+02 -0.77032968229E+01  0.17968138482E+02  0.28212377066E+02  0.00000000000E+00 0. -1.
</event>
<event>
 5    1  0.6835449E-004  0.9118800E+02  0.7818608E-02  0.1130116E+00
         25   -1    0    0    0    0  0.00000000000E+00  0.00000000000E+00  0.99999998245E-14  0.12500000000E+03  0.12500000000E+03 0.  0.
        -13    1    3    3    0    0  0.60924493819E+02  0.78202494220E+01  0.93902485675E+00  0.61431613847E+02  0.10566000000E+00 0. -1.
         23    2    1    0    0    0  0.27562888885E+02 -0.11430386255E+01 -0.62445312732E+01  0.96715489189E+02  0.92487146660E+02 0.  0.
         13    1    3    3    0    0 -0.33361604934E+02 -0.89632880475E+01 -0.71835561300E+01  0.35283875342E+02  0.10566000000E+00 0.  1.
         22    1    1    0    0    0 -0.27562888885E+02  0.11430386255E+01  0.62445312732E+01  0.28284510811E+02  0.00000000000E+00 0. -1.
</event>
<event>
 5    1  0.6835449E-004  0.9118800E+02  0.7818608E-02  0.1130116E+00
         25   -1    0    0    0    0  0.00000000000E+00  0.00000000000E+00  0.99999998245E-14  0.12500000000E+03  0.12500000000E+03 0.  0.
        -13    1    3    3    0    0 -0.35477512437E+02 -0.48727112102E+01  0.13252574602E+02  0.38184278189E+02  0.10566000000E+00 0.  1.
         23    2    1    0    0    0  0.82429387711E+01 -0.18151973374E+02 -0.21565843490E+02  0.95631210744E+02  0.91009904329E+02 0.  0.
         13    1    3    3    0    0  0.43720451208E+02 -0.13279262164E+02 -0.34818418092E+02  0.57446932554E+02  0.10566000000E+00 0. -1.
         22    1    1    0    0    0 -0.82429387711E+01  0.18151973374E+02  0.21565843490E+02  0.29368789256E+02  0.00000000000E+00 0. -1.
</event>
<event>
 5    1  0.6835449E-004  0.9118800E+02  0.7818608E-02  0.1130116E+00
         25   -1    0    0    0    0  0.00000000000E+00  0.00000000000E+00  0.99999998245E-14  0.12500000000E+03  0.12500000000E+03 0.  0.
        -13    1    3    3    0    0  0.52095423759E+01 -0.23032384515E+02  0.10554298145E+02  0.25865700098E+02  0.10566000000E+00 0. -1.
         23    2    1    0    0    0  0.21234165648E+02  0.46270231927E+01 -0.36362902169E+02  0.82637755152E+02  0.70953779237E+02 0.  0.
         13    1    3    3    0    0  0.16024623272E+02  0.27659407707E+02 -0.46917200314E+02  0.56772055054E+02  0.10566000000E+00 0.  1.
         22    1    1    0    0    0 -0.21234165648E+02 -0.46270231927E+01  0.36362902169E+02  0.42362244848E+02  0.00000000000E+00 0.  1.
</event>
<event>
 5    1  0.6835449E-004  0.9118800E+02  0.7818608E-02  0.1130116E+00
         25   -1    0    0    0    0  0.00000000000E+00  0.00000000000E+00  0.99999998245E-14  0.12500000000E+03  0.12500000000E+03 0.  0.
        -13    1    3    3    0    0 -0.11251893893E+02  0.20977848933E+01  0.55965447205E+02  0.57123972748E+02  0.10566000000E+00 0. -1.
         23    2    1    0    0    0  0.38727889866E+01  0.16524840515E+02  0.19564012917E+02  0.99099817568E+02  0.95655393951E+02 0.  0.
         13    1    3    3    0    0  0.15124682880E+02  0.14427055622E+02 -0.36401434288E+02  0.41975844820E+02  0.10566000000E+00 0.  1.
         22    1    1    0    0    0 -0.38727889866E+01 -0.16524840515E+02 -0.19564012917E+02  0.25900182432E+02  0.00000000000E+00 0. -1.
</event>
<event>
 5    1  0.6835449E-004  0.9118800E+02  0.7818608E-02  0.1130116E+00
         25   -1    0    0    0    0  0.00000000000E+00  0.00000000000E+00  0.99999998245E-14  0.12500000000E+03  0.12500000000E+03 0.  0.
        -13    1    3    3    0    0 -0.17182626897E+02  0.39491946737E+02  0.48075447225E+01  0.43335668617E+02  0.10566000000E+00 0. -1.
         23    2    1    0    0    0 -0.26209714578E+02 -0.10169206929E+02 -0.86718392467E+01  0.95579552965E+02  0.90938925885E+02 0.  0.
         13    1    3    3    0    0 -0.90270876816E+01 -0.49661153667E+02 -0.13479383969E+02  0.52243884348E+02  0.10566000000E+00 0.  1.
         22    1    1    0    0    0  0.26209714578E+02  0.10169206929E+02  0.86718392467E+01  0.29420447035E+02  0.00000000000E+00 0.  1.
</event>
<event>
 5    1  0.6835449E-004  0.9118800E+02  0.7818608E-02  0.1130116E+00
         25   -1    0    0    0    0  0.00000000000E+00  0.00000000000E+00  0.99999998245E-14  0.12500000000E+03  0.12500000000E+03 0.  0.
        -13    1    3    3    0    0  0.36706370388E+02  0.24094746231E+02 -0.42415179741E+02  0.61048939872E+02  0.10566000000E+00 0. -1.
         23    2    1    0    0    0  0.25072593349E+02  0.92626929953E+01 -0.14910092552E+02  0.94393737917E+02  0.89294089834E+02 0.  0.
         13    1    3    3    0    0 -0.11633777039E+02 -0.14832053236E+02  0.27505087189E+02  0.33344798045E+02  0.10566000000E+00 0.  1.
         22    1    1    0    0    0 -0.25072593349E+02 -0.92626929953E+01  0.14910092552E+02  0.30606262083E+02  0.00000000000E+00 0. -1.
</event>
<event>
 5    1  0.6835449E-004  0.9118800E+02  0.7818608E-02  0.1130116E+00
         25   -1    0    0    0    0  0.00000000000E+00  0.00000000000E+00  0.99999998245E-14  0.12500000000E+03  0.12500000000E+03 0.  0.
        -13    1    3    3    0    0 -0.16664879137E+02  0.18479698159E+02  0.40790689042E+02  0.47781889009E+02  0.10566000000E+00 0. -1.
         23    2    1    0    0    0 -0.13263904937E+02 -0.23218768446E+01 -0.13446141436E+02  0.10597052271E+03  0.10424792889E+03 0.  0.
         13    1    3    3    0    0  0.34009741997E+01 -0.20801575004E+02 -0.54236830478E+02  0.58188633705E+02  0.10566000000E+00 0.  1.
         22    1    1    0    0    0  0.13263904937E+02  0.23218768446E+01  0.13446141436E+02  0.19029477286E+02  0.00000000000E+00 0.  1.
</event>
<event>
 5    1  0.6835449E-004  0.9118800E+02  0.7818608E-02  0.1130116E+00
         25   -1    0    0    0    0  0.00000000000E+00  0.00000000000E+00  0.99999998245E-14  0.12500000000E+03  0.12500000000E+03 0.  0.
        -13    1    3    3    0    0 -0.29346761424E+02 -0.28848282666E+02  0.18216968517E+02  0.45003610131E+02  0.10566000000E+00 0.  1.
         23    2    1    0    0    0 -0.58636808672E+01 -0.95176695064E+01 -0.24863254108E+02  0.97739218812E+02  0.93860559891E+02 0.  0.
         13    1    3    3    0    0  0.23483080557E+02  0.19330613159E+02 -0.43080222624E+02  0.52735608681E+02  0.10566000000E+00 0. -1.
         22    1    1    0    0    0  0.58636808672E+01  0.95176695064E+01  0.24863254108E+02  0.27260781188E+02  0.00000000000E+00 0. -1.
</event>
<event>
 5    1  0.6835449E-004  0.9118800E+02  0.7818608E-02  0.1130116E+00
         25   -1    0    0    0    0  0.00000000000E+00  0.00000000000E+00  0.99999998245E-14  0.12500000000E+03  0.12500000000E+03 0.  0.
        -13    1    3    3    0    0 -0.79526654701E+01 -0.53014440190E+02 -0.11519921132E+02  0.54831519253E+02  0.10566000000E+00 0.  1.
         23    2    1    0    0    0  0.17173409058E+02 -0.25508537513E+02  0.12769468110E+01  0.94222702232E+02  0.89054340478E+02 0.  0.
         13    1    3    3    0    0  0.25126074528E+02  0.27505902677E+02  0.12796867943E+02  0.39391182979E+02  0.10566000000E+00 0. -1.
         22    1    1    0    0    0 -0.17173409058E+02  0.25508537513E+02 -0.12769468110E+01  0.30777297768E+02  0.00000000000E+00 0.  1.
</event>
<event>
 5    1  0.6835449E-004  0.9118800E+02  0.7818608E-02  0.1130116E+00
         25   -1    0    0    0    0  0.00000000000E+00  0.00000000000E+00  0.99999998245E-14  0.12500000000E+03  0.12500000000E+03 0.  0.
        -13    1    3    3    0    0  0.18453444642E+02 -0.17962002202E+02  0.14220701903E+02  0.29417727120E+02  0.10566000000E+00 0.  1.
         23    2    1    0    0    0 -0.26120331710E+02 -0.21932844775E+02 -0.19736951848E+02  0.85593545239E+02  0.75982802724E+02 0.  0.
         13    1    3    3    0    0 -0.44573776352E+02 -0.39708425732E+01 -0.33957653751E+02  0.56175818119E+02  0.10566000000E+00 0. -1.
         22    1    1    0    0    0  0.26120331710E+02  0.21932844775E+02  0.19736951848E+02  0.39406454761E+02  0.00000000000E+00 0. -1.
</event>
<event>
 5    1  0.6835449E-004  0.9118800E+02  0.7818608E-02  0.1130116E+00
         25   -1    0    0    0    0  0.00000000000E+00  0.00000000000E+00  0.99999998245E-14  0.12500000000E+03  0.12500000000E+03 0.  0.
        -13    1    3    3    0    0  0.15833661643E+02  0.52646863115E+02  0.18389424336E+02  0.57970502226E+02  0.10566000000E+00 0. -1.
         23    2    1    0    0    0  0.95166309804E+01  0.12599018157E+02  0.21148677255E+02  0.98607423897E+02  0.95009767783E+02 0.  0.
         13    1    3    3    0    0 -0.63170306630E+01 -0.40047844958E+02  0.27592529185E+01  0.40636921671E+02  0.10566000000E+00 0.  1.
         22    1    1    0    0    0 -0.95166309804E+01 -0.12599018157E+02 -0.21148677255E+02  0.26392576103E+02  0.00000000000E+00 0. -1.
</event>
<event>
 5    1  0.6835449E-004  0.9118800E+02  0.7818608E-02  0.1130116E+00
         25   -1    0    0    0    0  0.00000000000E+00  0.00000000000E+00  0.99999998245E-14  0.12500000000E+03  0.12500000000E+03 0.  0.
        -13    1    3    3    0    0 -0.29097371822E+02 -0.27671109556E+02 -0.42002114757E+02  0.58107969842E+02  0.10566000000E+00 0. -1.
         23    2    1    0    0    0 -0.31090815276E+00 -0.71277006886E+01 -0.27935093048E+02  0.96168243124E+02  0.91744540878E+02 0.  0.
         13    1    3    3    0    0  0.28786463669E+02  0.20543408868E+02  0.14067021710E+02  0.38060273282E+02  0.10566000000E+00 0.  1.
         22    1    1    0    0    0  0.31090815276E+00  0.71277006886E+01  0.27935093048E+02  0.28831756876E+02  0.00000000000E+00 0. -1.
</event>
<event>
 5    1  0.6835449E-004  0.9118800E+02  0.7818608E-02  0.1130116E+00
         25   -1    0    0    0    0  0.00000000000E+00  0.00000000000E+00  0.99999998245E-14  0.12500000000E+03  0.12500000000E+03 0.  0.
        -13    1    3    3    0    0  0.14153649010E+02  0.40506397566E+02 -0.65771977838E+00  0.42913142316E+02  0.10566000000E+00 0.  1.
         23    2    1    0    0    0  0.11132206753E+02 -0.17398437263E+02 -0.10664964811E+02  0.10175407303E+03  0.99063203345E+02 0.  0.
         13    1    3    3    0    0 -0.30214422567E+01 -0.57904834829E+02 -0.10007245032E+02  0.58840930712E+02  0.10566000000E+00 0. -1.
         22    1    1    0    0    0 -0.11132206753E+02  0.17398437263E+02  0.10664964811E+02  0.23245926972E+02  0.00000000000E+00 0. -1.
</event>
<event>
 5    1  0.6835449E-004  0.9118800E+02  0.7818608E-02  0.1130116E+00
         25   -1    0    0    0    0  0.00000000000E+00  0.00000000000E+00  0.99999998245E-14  0.12500000000E+03  0.12500000000E+03 0.  0.
        -13    1    3    3    0    0  0.38841969871E+02 -0.15212074229E+02  0.34121736686E+02  0.53892577451E+02  0.10566000000E+00 0.  1.
         23    2    1    0    0    0  0.74679028287E+01 -0.26166654316E+02  0.67037955777E+01  0.96974935399E+02  0.92837136157E+02 0.  0.
         13    1    3    3    0    0 -0.31374067043E+02 -0.10954580087E+02 -0.27417941108E+02  0.43082357948E+02  0.10566000000E+00 0. -1.
         22    1    1    0    0    0 -0.74679028287E+01  0.26166654316E+02 -0.67037955777E+01  0.28025064601E+02  0.00000000000E+00 0. -1.
</event>
<event>
 5    1  0.6835449E-004  0.9118800E+02  0.7818608E-02  0.1130116E+00
         25   -1    0    0    0    0  0.00000000000E+00  0.00000000000E+00  0.99999998245E-14  0.12500000000E+03  0.12500000000E+03 0.  0.
        -13    1    3    3    0    0 -0.56287870864E+00  0.91428445677E+01  0.31795850404E+02  0.33089208303E+02  0.10566000000E+00 0. -1.
         23    2    1    0    0    0 -0.93215083675E-01 -0.38334259276E+02  0.18734922881E+02  0.82332430833E+02  0.70413831796E+02 0.  0.
         13    1    3    3    0    0  0.46966362497E+00 -0.47477103844E+02 -0.13060927522E+02  0.49243222529E+02  0.10566000000E+00 0.  1.
         22    1    1    0    0    0  0.93215083675E-01  0.38334259276E+02 -0.18734922881E+02  0.42667569167E+02  0.00000000000E+00 0.  1.
</event>
<event>
 5    1  0.6835449E-004  0.9118800E+02  0.7818608E-02  0.1130116E+00
         25   -1    0    0    0    0  0.00000000000E+00  0.00000000000E+00  0.99999998245E-14  0.12500000000E+03  0.12500000000E+03 0.  0.
        -13    1    3    3    0    0  0.15813955770E+02 -0.44967932759E+02 -0.25154694935E+02  0.53897736641E+02  0.10566000000E+00 0.  1.
         23    2    1    0    0    0 -0.14717446105E+02 -0.27167057163E+02 -0.14901240475E+02  0.90696950829E+02  0.83959738609E+02 0.  0.
         13    1    3    3    0    0 -0.30531401875E+02  0.17800875596E+02  0.10253454461E+02  0.36799214188E+02  0.10566000000E+00 0. -1.
         22    1    1    0    0    0  0.14717446105E+02  0.27167057163E+02  0.14901240475E+02  0.34303049171E+02  0.00000000000E+00 0. -1.
</event>
<event>
 5    1  0.6835449E-004  0.9118800E+02  0.7818608E-02  0.1130116E+00
         25   -1    0    0    0    0  0.00000000000E+00  0.00000000000E+00  0.99999998245E-14  0.12500000000E+03  0.12500000000E+03 0.  0.
        -13    1    3    3    0    0 -0.23049024937E+02 -0.98097015276E+01 -0.20572021247E+02  0.32414611163E+02  0.10566000000E+00 0.  1.
         23    2    1    0    0    0  0.10536666784E+02  0.16605379711E+02  0.23874251547E+02  0.94068788106E+02  0.88838038174E+02 0.  0.
         13    1    3    3    0    0  0.33585691721E+02  0.26415081239E+02  0.44446272794E+02  0.61654176943E+02  0.10566000000E+00 0. -1.
         22    1    1    0    0    0 -0.10536666784E+02 -0.16605379711E+02 -0.23874251547E+02  0.30931211894E+02  0.00000000000E+00 0. -1.
</event>
<event>
 5    1  0.6835449E-004  0.9118800E+02  0.7818608E-02  0.1130116E+00
         25   -1    0    0    0    0  0.00000000000E+00  0.00000000000E+00  0.99999998245E-14  0.12500000000E+03  0.12500000000E+03 0.  0.
        -13    1    3    3    0    0 -0.16852513666E+02 -0.38749518502E+02 -0.11452123998E+01  0.42271208600E+02  0.10566000000E+00 0. -1.
         23    2    1    0    0    0  0.27823597475E+02 -0.10296046002E+02 -0.22182937654E+01  0.95249672826E+02  0.90484353380E+02 0.  0.
         13    1    3    3    0    0  0.44676111142E+02  0.28453472501E+02 -0.10730813656E+01  0.52978464226E+02  0.10566000000E+00 0.  1.
         22    1    1    0    0    0 -0.27823597475E+02  0.10296046002E+02  0.22182937654E+01  0.29750327174E+02  0.00000000000E+00 0.  1.
</event>
<event>
 5    1  0.6835449E-004  0.9118800E+02  0.7818608E-02  0.1130116E+00
         25   -1    0    0    0    0  0.00000000000E+00  0.00000000000E+00  0.99999998245E-14  0.12500000000E+03  0.12500000000E+03 0.  0.
        -13    1    3    3    0    0 -0.28568387192E+01 -0.38242968991E+02  0.53157356212E+01  0.38716332651E+02  0.10566000000E+00 0. -1.
         23    2    1    0    0    0 -0.18411133730E+02  0.16866890653E+02 -0.10174455791E+02  0.98037407466E+02  0.94256839892E+02 0.  0.
         13    1    3    3    0    0 -0.15554295011E+02  0.55109859644E+02 -0.15490191412E+02  0.59321074815E+02  0.10566000000E+00 0.  1.
         22    1    1    0    0    0  0.18411133730E+02 -0.16866890653E+02  0.10174455791E+02  0.26962592534E+02  0.00000000000E+00 0.  1.
</event>
<event>
 5    1  0.6835449E-004  0.9118800E+02  0.7818608E-02  0.1130116E+00
         25   -1    0    0    0    0  0.00000000000E+00  0.00000000000E+00  0.99999998245E-14  0.12500000000E+03  0.12500000000E+03 0.  0.
        -13    1    3    3    0    0 -0.41177992479E+02  0.22711351776E+02  0.12824914198E+02  0.48743431889E+02  0.10566000000E+00 0.  1.
         23    2    1    0    0    0 -0.21394482056E+02 -0.18924621649E+02  0.92376810165E+01  0.94980008035E+02  0.90111053754E+02 0.  0.
         13    1    3    3    0    0  0.19783510423E+02 -0.41635973425E+02 -0.35872331817E+01  0.46236576146E+02  0.10566000000E+00 0. -1.
         22    1    1    0    0    0  0.21394482056E+02  0.18924621649E+02 -0.92376810165E+01  0.30019991965E+02  0.00000000000E+00 0. -1.
</event>
<event>
 5    1  0.6835449E-004  0.9118800E+02  0.7818608E-02  0.1130116E+00
         25   -1    0    0    0    0  0.00000000000E+00  0.00000000000E+00  0.99999998245E-14  0.12500000000E+03  0.12500000000E+03 0.  0.
        -13    1    3    3    0    0 -0.49528211401E+02  0.31763386251E+02  0.79351190133E+01  0.59371152158E+02  0.10566000000E+00 0.  1.
         23    2    1    0    0    0 -0.30658131793E+02  0.74383873047E+01 -0.55266317448E+01  0.92971976190E+02  0.87281120797E+02 0.  0.
         13    1    3    3    0    0  0.18870079608E+02 -0.24324998947E+02 -0.13461750758E+02  0.33600824033E+02  0.10566000000E+00 0. -1.
         22    1    1    0    0    0  0.30658131793E+02 -0.74383873047E+01  0.55266317448E+01  0.32028023810E+02  0.00000000000E+00 0.  1.
</event>
<event>
 5    1  0.6835449E-004  0.9118800E+02  0.7818608E-02  0.1130116E+00
         25   -1    0    0    0    0  0.00000000000E+00  0.00000000000E+00  0.99999998245E-14  0.12500000000E+03  0.12500000000E+03 0.  0.
        -13    1    3    3    0    0 -0.55982538254E+01  0.16478705696E+02 -0.35491496777E+02  0.39529048746E+02  0.10566000000E+00 0.  1.
         23    2    1    0    0    0 -0.44896126046E+01  0.20721452866E+02  0.20391060195E+02  0.95583498405E+02  0.90944348925E+02 0.  0.
         13    1    3    3    0    0  0.11086412208E+01  0.42427471700E+01  0.55882556971E+02  0.56054449659E+02  0.10566000000E+00 0. -1.
         22    1    1    0    0    0  0.44896126046E+01 -0.20721452866E+02 -0.20391060195E+02  0.29416501595E+02  0.00000000000E+00 0. -1.
</event>
<event>
 5    1  0.6835449E-004  0.9118800E+02  0.7818608E-02  0.1130116E+00
         25   -1    0    0    0    0  0.00000000000E+00  0.00000000000E+00  0.99999998245E-14  0.12500000000E+03  0.12500000000E+03 0.  0.
        -13    1    3    3    0    0 -0.26259104208E+02  0.16937043546E+02  0.12181652262E+02  0.33538154597E+02  0.10566000000E+00 0. -1.
         23    2    1    0    0    0  0.11148959804E+02 -0.27588922197E+02 -0.63493309347E+01  0.94573663776E+02  0.89545608179E+02 0.  0.
         13    1    3    3    0    0  0.37408064012E+02 -0.44525965743E+02 -0.18530983197E+02  0.61035509179E+02  0.10566000000E+00 0.  1.
         22    1    1    0    0    0 -0.11148959804E+02  0.27588922197E+02  0.63493309347E+01  0.30426336224E+02  0.00000000000E+00 0.  1.
</event>
<event>
 5    1  0.6835449E-004  0.9118800E+02  0.7818608E-02  0.1130116E+00
         25   -1    0    0    0    0  0.00000000000E+00  0.00000000000E+00  0.99999998245E-14  0.12500000000E+03  0.12500000000E+03 0.  0.
        -13    1    3    3    0    0 -0.16773916270E+02  0.49779676480E+02  0.30996315599E+02  0.60993140616E+02  0.10566000000E+00 0.  1.
         23    2    1    0    0    0 -0.14747191109E+02  0.16469184516E+02  0.81398959556E+01  0.10144216499E+03  0.98668846387E+02 0.  0.
         13    1    3    3    0    0  0.20267251613E+01 -0.33310491964E+02 -0.22856419643E+02  0.40449024373E+02  0.10566000000E+00 0. -1.
         22    1    1    0    0    0  0.14747191109E+02 -0.16469184516E+02 -0.81398959556E+01  0.23557835011E+02  0.00000000000E+00 0.  1.
</event>
<event>
 5    1  0.6835449E-004  0.9118800E+02  0.7818608E-02  0.1130116E+00
         25   -1    0    0    0    0  0.00000000000E+00  0.00000000000E+00  0.99999998245E-14  0.12500000000E+03  0.12500000000E+03 0.  0.
        -13    1    3    3    0    0 -0.12505832846E+02  0.43042154855E+02 -0.31442650497E+02  0.54751021763E+02  0.10566000000E+00 0. -1.
         23    2    1    0    0    0 -0.43050267584E+01  0.28547242006E+02  0.58047472917E+01  0.95552192397E+02  0.90901309667E+02 0.  0.
         13    1    3    3    0    0  0.82008060880E+01 -0.14494912849E+02  0.37247397789E+02  0.40801170634E+02  0.10566000000E+00 0.  1.
         22    1    1    0    0    0  0.43050267584E+01 -0.28547242006E+02 -0.58047472917E+01  0.29447807603E+02  0.00000000000E+00 0. -1.
</event>
<event>
 5    1  0.6835449E-004  0.9118800E+02  0.7818608E-02  0.1130116E+00
         25   -1    0    0    0    0  0.00000000000E+00  0.00000000000E+00  0.99999998245E-14  0.12500000000E+03  0.12500000000E+03 0.  0.
        -13    1    3    3    0    0  0.57634964185E+02 -0.17421775689E+02 -0.96784364102E+01  0.60983527777E+02  0.10566000000E+00 0. -1.
         23    2    1    0    0    0  0.24967946528E+02 -0.10864442191E+02 -0.13654730198E+02  0.94538776868E+02  0.89496895013E+02 0.  0.
         13    1    3    3    0    0 -0.32667017657E+02  0.65573334983E+01 -0.39762937873E+01  0.33555249090E+02  0.10566000000E+00 0.  1.
         22    1    1    0    0    0 -0.24967946528E+02  0.10864442191E+02  0.13654730198E+02  0.30461223132E+02  0.00000000000E+00 0. -1.
</event>
<event>
 5    1  0.6835449E-004  0.9118800E+02  0.7818608E-02  0.1130116E+00
         25   -1    0    0    0    0  0.00000000000E+00  0.00000000000E+00  0.99999998245E-14  0.12500000000E+03  0.12500000000E+03 0.  0.
        -13    1    3    3    0    0  0.30440613990E+02  0.35298014196E+01 -0.21903068579E+02  0.37667572996E+02  0.10566000000E+00 0.  1.
         23    2    1    0    0    0 -0.15363276832E+02  0.20686352225E+02  0.11382293697E+02  0.96830654016E+02  0.92642665678E+02 0.  0.
         13    1    3    3    0    0 -0.45803890822E+02  0.17156550805E+02  0.33285362276E+02  0.59163081020E+02  0.10566000000E+00 0. -1.
         22    1    1    0    0    0  0.15363276832E+02 -0.20686352225E+02 -0.11382293697E+02  0.28169345984E+02  0.00000000000E+00 0. -1.
</event>
<event>
 5    1  0.6835449E-004  0.9118800E+02  0.7818608E-02  0.1130116E+00
         25   -1    0    0    0    0  0.00000000000E+00  0.00000000000E+00  0.99999998245E-14  0.12500000000E+03  0.12500000000E+03 0.  0.
        -13    1    3    3    0    0  0.71703339919E+01 -0.27963293015E+02 -0.32550584317E+02  0.43507598753E+02  0.10566000000E+00 0.  1.
         23    2    1    0    0    0  0.28341140917E+02 -0.22220031098E+01  0.74874016671E+01  0.95602402309E+02  0.90970328004E+02 0.  0.
         13    1    3    3    0    0  0.21170806925E+02  0.25741289905E+02  0.40037985984E+02  0.52094803556E+02  0.10566000000E+00 0. -1.
         22    1    1    0    0    0 -0.28341140917E+02  0.22220031098E+01 -0.74874016671E+01  0.29397597691E+02  0.00000000000E+00 0. -1.
</event>
<event>
 5    1  0.6835449E-004  0.9118800E+02  0.7818608E-02  0.1130116E+00
         25   -1    0    0    0    0  0.00000000000E+00  0.00000000000E+00  0.99999998245E-14  0.12500000000E+03  0.12500000000E+03 0.  0.
        -13    1    3    3    0    0 -0.45354103020E+02  0.10256909783E+02 -0.11666695844E+02  0.47940815752E+02  0.10566000000E+00 0.  1.
         23    2    1    0    0    0 -0.17861425978E+02 -0.82520626798E+00  0.24478579706E+02  0.94686432612E+02  0.89702888209E+02 0.  0.
         13    1    3    3    0    0  0.27492677042E+02 -0.11082116051E+02  0.36145275549E+02  0.46745616860E+02  0.10566000000E+00 0. -1.
         22    1    1    0    0    0  0.17861425978E+02  0.82520626798E+00 -0.24478579706E+02  0.30313567388E+02  0.00000000000E+00 0.  1.
</event>
<event>
 5    1  0.6835449E-004  0.9118800E+02  0.7818608E-02  0.1130116E+00
         25   -1    0    0    0    0  0.00000000000E+00  0.00000000000E+00  0.99999998245E-14  0.12500000000E+03  0.12500000000E+03 0.  0.
        -13    1    3    3    0    0  0.23054475500E+02 -0.14534362226E+02 -0.27935831135E+02  0.39027917586E+02  0.10566000000E+00 0.  1.
         23    2    1    0    0    0 -0.15306320260E+02  0.22973927169E+02 -0.10921812628E+02  0.95312110877E+02  0.90570567622E+02 0.  0.
         13    1    3    3    0    0 -0.38360795760E+02  0.37508289394E+02  0.17014018507E+02  0.56284193291E+02  0.10566000000E+00 0. -1.
         22    1    1    0    0    0  0.15306320260E+02 -0.22973927169E+02  0.10921812628E+02  0.29687889123E+02  0.00000000000E+00 0. -1.
</event>
<event>
 5    1  0.6835449E-004  0.9118800E+02  0.7818608E-02  0.1130116E+00
         25   -1    0    0    0    0  0.00000000000E+00  0.00000000000E+00  0.99999998245E-14  0.12500000000E+03  0.12500000000E+03 0.  0.
        -13    1    3    3    0    0 -0.27690335043E+02 -0.44719158901E+02  0.27146051499E+02  0.59190177425E+02  0.10566000000E+00 0.  1.
         23    2    1    0    0    0  0.34868325507E+01 -0.18951210640E+02  0.11509339687E+02  0.10255515012E+03  0.10006891391E+03 0.  0.
         13    1    3    3    0    0  0.31177167594E+02  0.25767948261E+02 -0.15636711812E+02  0.43364972698E+02  0.10566000000E+00 0. -1.
         22    1    1    0    0    0 -0.34868325507E+01  0.18951210640E+02 -0.11509339687E+02  0.22444849877E+02  0.00000000000E+00 0.  1.
</event>
<event>
 5    1  0.6835449E-004  0.9118800E+02  0.7818608E-02  0.1130116E+00
         25   -1    0    0    0    0  0.00000000000E+00  0.00000000000E+00  0.99999998245E-14  0.12500000000E+03  0.12500000000E+03 0.  0.
        -13    1    3    3    0    0  0.17825879578E+02 -0.12718824997E+02  0.42800040087E+02  0.48076866449E+02  0.10566000000E+00 0. -1.
         23    2    1    0    0    0  0.31342763936E+02 -0.95687013042E+01  0.89903126313E+00  0.92216816002E+02  0.86192830331E+02 0.  0.
         13    1    3    3    0    0  0.13516884358E+02  0.31501236926E+01 -0.41901008824E+02  0.44139949553E+02  0.10566000000E+00 0.  1.
         22    1    1    0    0    0 -0.31342763936E+02  0.95687013042E+01 -0.89903126313E+00  0.32783183998E+02  0.00000000000E+00 0.  1.
</event>
<event>
 5    1  0.6835449E-004  0.9118800E+02  0.7818608E-02  0.1130116E+00
         25   -1    0    0    0    0  0.00000000000E+00  0.00000000000E+00  0.99999998245E-14  0.12500000000E+03  0.12500000000E+03 0.  0.
        -13    1    3    3    0    0  0.12694942152E+02  0.27488331786E+01 -0.46296133207E+02  0.48083892875E+02  0.10566000000E+00 0.  1.
         23    2    1    0    0    0 -0.19385332000E+02  0.16862252156E+02 -0.14012936511E+02  0.95734166094E+02  0.91151201438E+02 0.  0.
         13    1    3    3    0    0 -0.32080274152E+02  0.14113418978E+02  0.32283196696E+02  0.47650273219E+02  0.10566000000E+00 0. -1.
         22    1    1    0    0    0  0.19385332000E+02 -0.16862252156E+02  0.14012936511E+02  0.29265833906E+02  0.00000000000E+00 0.  1.
</event>
<event>
 5    1  0.6835449E-004  0.9118800E+02  0.7818608E-02  0.1130116E+00
         25   -1    0    0    0    0  0.00000000000E+00  0.00000000000E+00  0.99999998245E-14  0.12500000000E+03  0.12500000000E+03 0.  0.
        -13    1    3    3    0    0  0.40654685674E+02 -0.27229781533E+02  0.38815783998E+02  0.62457511326E+02  0.10566000000E+00 0. -1.
         23    2    1    0    0    0  0.17841907451E+02 -0.11423218631E+02  0.14832133916E+02  0.99138527074E+02  0.95705965167E+02 0.  0.
         13    1    3    3    0    0 -0.22812778223E+02  0.15806562903E+02 -0.23983650081E+02  0.36681015748E+02  0.10566000000E+00 0.  1.
         22    1    1    0    0    0 -0.17841907451E+02  0.11423218631E+02 -0.14832133916E+02  0.25861472926E+02  0.00000000000E+00 0. -1.
</event>
<event>
 5    1  0.6835449E-004  0.9118800E+02  0.7818608E-02  0.1130116E+00
         25   -1    0    0    0    0  0.00000000000E+00  0.00000000000E+00  0.99999998245E-14  0.12500000000E+03  0.12500000000E+03 0.  0.
        -13    1    3    3    0    0 -0.31150199457E+02  0.86186242285E+01  0.33507082610E+02  0.46554821005E+02  0.10566000000E+00 0.  1.
         23    2    1    0    0    0 -0.21798873267E+02 -0.18398543716E+02 -0.65153674462E+01  0.95740005134E+02  0.91159208441E+02 0.  0.
         13    1    3    3    0    0  0.93513261896E+01 -0.27017167944E+02 -0.40022450056E+02  0.49185184129E+02  0.10566000000E+00 0. -1.
         22    1    1    0    0    0  0.21798873267E+02  0.18398543716E+02  0.65153674462E+01  0.29259994866E+02  0.00000000000E+00 0. -1.
</event>
<event>
 5    1  0.6835449E-004  0.9118800E+02  0.7818608E-02  0.1130116E+00
         25   -1    0    0    0    0  0.00000000000E+00  0.00000000000E+00  0.99999998245E-14  0.12500000000E+03  0.12500000000E+03 0.  0.
        -13    1    3    3    0    0  0.26743060179E+02 -0.58644540795E+01  0.26638545852E+02  0.38199559926E+02  0.10566000000E+00 0. -1.
         23    2    1    0    0    0  0.25811405160E+01 -0.11882215594E+02 -0.25926358413E+02  0.96363914472E+02  0.92010752731E+02 0.  0.
         13    1    3    3    0    0 -0.24161919663E+02 -0.60177615146E+01 -0.52564904265E+02  0.58164354547E+02  0.10566000000E+00 0.  1.
         22    1    1    0    0    0 -0.25811405160E+01  0.11882215594E+02  0.25926358413E+02  0.28636085528E+02  0.00000000000E+00 0.  1.
</event>
<event>
 5    1  0.6835449E-004  0.9118800E+02  0.7818608E-02  0.1130116E+00
         25   -1    0    0    0    0  0.00000000000E+00  0.00000000000E+00  0.99999998245E-14  0.12500000000E+03  0.12500000000E+03 0.  0.
        -13    1    3    3    0    0 -0.15515504583E+02 -0.21652761337E+02  0.34563878506E+02  0.43637665123E+02  0.10566000000E+00 0. -1.
         23    2    1    0    0    0 -0.74031172113E+01 -0.26935504521E+02 -0.14415984485E+02  0.93565176048E+02  0.88126579486E+02 0.  0.
         13    1    3    3    0    0  0.81123873715E+01 -0.52827431834E+01 -0.48979862992E+02  0.49927510925E+02  0.10566000000E+00 0.  1.
         22    1    1    0    0    0  0.74031172113E+01  0.26935504521E+02  0.14415984485E+02  0.31434823952E+02  0.00000000000E+00 0.  1.
</event>
<event>
 5    1  0.6835449E-004  0.9118800E+02  0.7818608E-02  0.1130116E+00
         25   -1    0    0    0    0  0.00000000000E+00  0.00000000000E+00  0.99999998245E-14  0.12500000000E+03  0.12500000000E+03 0.  0.
        -13    1    3    3    0    0 -0.65228056700E+01  0.58482444002E+02 -0.19622527565E+02  0.62030621489E+02  0.10566000000E+00 0.  1.
         23    2    1    0    0    0  0.18410211857E+01  0.28718518831E+02 -0.73136421055E+01  0.95307710703E+02  0.90564494565E+02 0.  0.
         13    1    3    3    0    0  0.83638268556E+01 -0.29763925171E+02  0.12308885460E+02  0.33277089214E+02  0.10566000000E+00 0. -1.
         22    1    1    0    0    0 -0.18410211857E+01 -0.28718518831E+02  0.73136421055E+01  0.29692289297E+02  0.00000000000E+00 0.  1.
</event>
<event>
 5    1  0.6835449E-004  0.9118800E+02  0.7818608E-02  0.1130116E+00
         25   -1    0    0    0    0  0.00000000000E+00  0.00000000000E+00  0.99999998245E-14  0.12500000000E+03  0.12500000000E+03 0.  0.
        -13    1    3    3    0    0 -0.25279819458E+02 -0.10291097322E+02  0.45907637077E+02  0.53408784501E+02  0.10566000000E+00 0. -1.
         23    2    1    0    0    0 -0.41873618256E+01 -0.26070743232E+02  0.12978245257E+02  0.95578026890E+02  0.90936828197E+02 0.  0.
         13    1    3    3    0    0  0.21092457632E+02 -0.15779645910E+02 -0.32929391820E+02  0.42169242389E+02  0.10566000000E+00 0.  1.
         22    1    1    0    0    0  0.41873618256E+01  0.26070743232E+02 -0.12978245257E+02  0.29421973110E+02  0.00000000000E+00 0. -1.
</event>
<event>
 5    1  0.6835449E-004  0.9118800E+02  0.7818608E-02  0.1130116E+00
         25   -1    0    0    0    0  0.00000000000E+00  0.00000000000E+00  0.99999998245E-14  0.12500000000E+03  0.12500000000E+03 0.  0.
        -13    1    3    3    0    0 -0.49049811305E+02 -0.20424634541E+02  0.10095383622E+02  0.54083062225E+02  0.10566000000E+00 0.  1.
         23    2    1    0    0    0 -0.20260229259E+02  0.78333703312E+01  0.19837006652E+02  0.95583246044E+02  0.90944002062E+02 0.  0.
         13    1    3    3    0    0  0.28789582046E+02  0.28258004872E+02  0.97416230301E+01  0.41500183819E+02  0.10566000000E+00 0. -1.
         22    1    1    0    0    0  0.20260229259E+02 -0.78333703312E+01 -0.19837006652E+02  0.29416753956E+02  0.00000000000E+00 0.  1.
</event>
<event>
 5    1  0.6835449E-004  0.9118800E+02  0.7818608E-02  0.1130116E+00
         25   -1    0    0    0    0  0.00000000000E+00  0.00000000000E+00  0.99999998245E-14  0.12500000000E+03  0.12500000000E+03 0.  0.
        -13    1    3    3    0    0  0.67008640733E+01 -0.23732798825E+02 -0.29924464579E+02  0.38776694853E+02  0.10566000000E+00 0. -1.
         23    2    1    0    0    0  0.93306313189E+01  0.27397323723E+02 -0.53490265320E+01  0.95567261207E+02  0.90922028694E+02 0.  0.
         13    1    3    3    0    0  0.26297672456E+01  0.51130122548E+02  0.24575438047E+02  0.56790566354E+02  0.10566000000E+00 0.  1.
         22    1    1    0    0    0 -0.93306313189E+01 -0.27397323723E+02  0.53490265320E+01  0.29432738793E+02  0.00000000000E+00 0.  1.
</event>
<event>
 5    1  0.6835449E-004  0.9118800E+02  0.7818608E-02  0.1130116E+00
         25   -1    0    0    0    0  0.00000000000E+00  0.00000000000E+00  0.99999998245E-14  0.12500000000E+03  0.12500000000E+03 0.  0.
        -13    1    3    3    0    0 -0.67128818143E+01 -0.77054524236E+01 -0.49200075268E+02  0.50250326861E+02  0.10566000000E+00 0.  1.
         23    2    1    0    0    0  0.13940311652E+02  0.18335995005E+02 -0.19697560941E+02  0.94692659160E+02  0.89711564417E+02 0.  0.
         13    1    3    3    0    0  0.20653193466E+02  0.26041447429E+02  0.29502514327E+02  0.44442332299E+02  0.10566000000E+00 0. -1.
         22    1    1    0    0    0 -0.13940311652E+02 -0.18335995005E+02  0.19697560941E+02  0.30307340840E+02  0.00000000000E+00 0.  1.
</event>
<event>
 5    1  0.6835449E-004  0.9118800E+02  0.7818608E-02  0.1130116E+00
         25   -1    0    0    0    0  0.00000000000E+00  0.00000000000E+00  0.99999998245E-14  0.12500000000E+03  0.12500000000E+03 0.  0.
        -13    1    3    3    0    0  0.44968637320E+02  0.30728909110E+02  0.10525470293E+02  0.55472884245E+02  0.10566000000E+00 0.  1.
         23    2    1    0    0    0  0.19263841580E+02  0.14790841542E+02 -0.16176767087E+02  0.95818629584E+02  0.91266956759E+02 0.  0.
         13    1    3    3    0    0 -0.25704795740E+02 -0.15938067568E+02 -0.26702237380E+02  0.40345745339E+02  0.10566000000E+00 0. -1.
         22    1    1    0    0    0 -0.19263841580E+02 -0.14790841542E+02  0.16176767087E+02  0.29181370416E+02  0.00000000000E+00 0.  1.
</event>
<event>
 5    1  0.6835449E-004  0.9118800E+02  0.7818608E-02  0.1130116E+00
         25   -1    0    0    0    0  0.00000000000E+00  0.00000000000E+00  0.99999998245E-14  0.12500000000E+03  0.12500000000E+03 0.  0.
        -13    1    3    3    0    0  0.48831792592E+02 -0.17742821062E+02  0.33575348634E+02  0.61860058737E+02  0.10566000000E+00 0.  1.
         23    2    1    0    0    0  0.18596614150E+02 -0.11682353401E+02  0.18965692160E+02  0.95982610078E+02  0.91491270181E+02 0.  0.
         13    1    3    3    0    0 -0.30235178442E+02  0.60604676616E+01 -0.14609656474E+02  0.34122551341E+02  0.10566000000E+00 0. -1.
         22    1    1    0    0    0 -0.18596614150E+02  0.11682353401E+02 -0.18965692160E+02  0.29017389922E+02  0.00000000000E+00 0.  1.
</event>
<event>
 5    1  0.6835449E-004  0.9118800E+02  0.7818608E-02  0.1130116E+00
         25   -1    0    0    0    0  0.00000000000E+00  0.00000000000E+00  0.99999998245E-14  0.12500000000E+03  0.12500000000E+03 0.  0.
        -13    1    3    3    0    0 -0.72720801062E+01 -0.49503843515E+02 -0.31852826786E+02  0.59313804549E+02  0.10566000000E+00 0.  1.
         23    2    1    0    0    0  0.37039620583E+01 -0.24532573568E+02 -0.29144356902E+02  0.86725203593E+02  0.77822239098E+02 0.  0.
         13    1    3    3    0    0  0.10976042165E+02  0.24971269947E+02  0.27084698847E+01  0.27411399044E+02  0.10566000000E+00 0. -1.
         22    1    1    0    0    0 -0.37039620583E+01  0.24532573568E+02  0.29144356902E+02  0.38274796407E+02  0.00000000000E+00 0.  1.
</event>
<event>
 5    1  0.6835449E-004  0.9118800E+02  0.7818608E-02  0.1130116E+00
         25   -1    0    0    0    0  0.00000000000E+00  0.00000000000E+00  0.99999998245E-14  0.12500000000E+03  0.12500000000E+03 0.  0.
        -13    1    3    3    0    0  0.42213545927E+02  0.95356498507E+01 -0.92904936858E+01  0.44263263715E+02  0.10566000000E+00 0. -1.
         23    2    1    0    0    0  0.99335458310E+01 -0.28296026014E+02  0.76429241566E+00  0.95001257295E+02  0.90140525424E+02 0.  0.
         13    1    3    3    0    0 -0.32280000096E+02 -0.37831675865E+02  0.10054786101E+02  0.50737993580E+02  0.10566000000E+00 0.  1.
         22    1    1    0    0    0 -0.99335458310E+01  0.28296026014E+02 -0.76429241566E+00  0.29998742705E+02  0.00000000000E+00 0.  1.
</event>
<event>
 5    1  0.6835449E-004  0.9118800E+02  0.7818608E-02  0.1130116E+00
         25   -1    0    0    0    0  0.00000000000E+00  0.00000000000E+00  0.99999998245E-14  0.12500000000E+03  0.12500000000E+03 0.  0.
        -13    1    3    3    0    0 -0.39834827576E+02 -0.13093816172E+02 -0.49142554352E+01  0.42218746789E+02  0.10566000000E+00 0. -1.
         23    2    1    0    0    0 -0.20958877708E+01  0.20217065095E+02 -0.21687130894E+02  0.95277044006E+02  0.90522157517E+02 0.  0.
         13    1    3    3    0    0  0.37738939805E+02  0.33310881267E+02 -0.16772875458E+02  0.53058297217E+02  0.10566000000E+00 0.  1.
         22    1    1    0    0    0  0.20958877708E+01 -0.20217065095E+02  0.21687130894E+02  0.29722955994E+02  0.00000000000E+00 0.  1.
</event>
<event>
 5    1  0.6835449E-004  0.9118800E+02  0.7818608E-02  0.1130116E+00
         25   -1    0    0    0    0  0.00000000000E+00  0.00000000000E+00  0.99999998245E-14  0.12500000000E+03  0.12500000000E+03 0.  0.
        -13    1    3    3    0    0 -0.54010827617E+02 -0.16110892750E+02  0.23231205196E+02  0.60962532953E+02  0.10566000000E+00 0.  1.
         23    2    1    0    0    0 -0.26580116448E+02 -0.11806020790E+02  0.21286233464E+01  0.95838111265E+02  0.91293635135E+02 0.  0.
         13    1    3    3    0    0  0.27430711170E+02  0.43048719608E+01 -0.21102581850E+02  0.34875578312E+02  0.10566000000E+00 0. -1.
         22    1    1    0    0    0  0.26580116448E+02  0.11806020790E+02 -0.21286233464E+01  0.29161888735E+02  0.00000000000E+00 0.  1.
</event>
<event>
 4    1  0.6835449E-004  0.9118800E+02  0.7818608E-02  0.1130116E+00
         25   -1    0    0    0    0  0.00000000000E+00  0.00000000000E+00  0.99999998245E-14  0.12500000000E+03  0.12500000000E+03 0.  0.
        -13    1    1    0    0    0  0.32049609081E+02 -0.42311715614E+02  0.27425099128E+02  0.59746179348E+02  0.10566000000E+00 0.  1.
         13    1    1    0    0    0 -0.93505219283E+01 -0.90036772782E+00 -0.27169599454E+00  0.93982926708E+01  0.10566000000E+00 0. -1.
         22    1    1    0    0    0 -0.22699087153E+02  0.43212083342E+02 -0.27153403134E+02  0.55855527981E+02  0.00000000000E+00 0.  1.
</event>
<event>
 5    1  0.6835449E-004  0.9118800E+02  0.7818608E-02  0.1130116E+00
         25   -1    0    0    0    0  0.00000000000E+00  0.00000000000E+00  0.99999998245E-14  0.12500000000E+03  0.12500000000E+03 0.  0.
        -13    1    3    3    0    0  0.38675176309E+02 -0.32968725308E+02  0.13356269616E+02  0.52546238809E+02  0.10566000000E+00 0. -1.
         23    2    1    0    0    0  0.29314139834E+02  0.67957803050E+01  0.87818707110E+01  0.93653187126E+02  0.88251327364E+02 0.  0.
         13    1    3    3    0    0 -0.93610364741E+01  0.39764505613E+02 -0.45743989046E+01  0.41106948316E+02  0.10566000000E+00 0.  1.
         22    1    1    0    0    0 -0.29314139834E+02 -0.67957803050E+01 -0.87818707110E+01  0.31346812874E+02  0.00000000000E+00 0. -1.
</event>
<event>
 5    1  0.6835449E-004  0.9118800E+02  0.7818608E-02  0.1130116E+00
         25   -1    0    0    0    0  0.00000000000E+00  0.00000000000E+00  0.99999998245E-14  0.12500000000E+03  0.12500000000E+03 0.  0.
        -13    1    3    3    0    0  0.39264424086E+02  0.62514625921E+01 -0.21304726680E+02  0.45107408773E+02  0.10566000000E+00 0.  1.
         23    2    1    0    0    0 -0.41133688517E+01 -0.20732978959E+02 -0.19525522227E+02  0.96224624450E+02  0.91821327111E+02 0.  0.
         13    1    3    3    0    0 -0.43377792937E+02 -0.26984441551E+02  0.17792044529E+01  0.51117215676E+02  0.10566000000E+00 0. -1.
         22    1    1    0    0    0  0.41133688517E+01  0.20732978959E+02  0.19525522227E+02  0.28775375550E+02  0.00000000000E+00 0.  1.
</event>
<event>
 5    1  0.6835449E-004  0.9118800E+02  0.7818608E-02  0.1130116E+00
         25   -1    0    0    0    0  0.00000000000E+00  0.00000000000E+00  0.99999998245E-14  0.12500000000E+03  0.12500000000E+03 0.  0.
        -13    1    3    3    0    0  0.23865034445E+02 -0.67815040761E+01  0.24900065564E+02  0.35150435214E+02  0.10566000000E+00 0. -1.
         23    2    1    0    0    0 -0.17906626630E+02 -0.17200757330E+02 -0.16747601808E+02  0.95050116923E+02  0.90208254782E+02 0.  0.
         13    1    3    3    0    0 -0.41771661075E+02 -0.10419253254E+02 -0.41647667372E+02  0.59899681709E+02  0.10566000000E+00 0.  1.
         22    1    1    0    0    0  0.17906626630E+02  0.17200757330E+02  0.16747601808E+02  0.29949883077E+02  0.00000000000E+00 0.  1.
</event>
<event>
 5    1  0.6835449E-004  0.9118800E+02  0.7818608E-02  0.1130116E+00
         25   -1    0    0    0    0  0.00000000000E+00  0.00000000000E+00  0.99999998245E-14  0.12500000000E+03  0.12500000000E+03 0.  0.
        -13    1    3    3    0    0 -0.35476645389E+02 -0.23303839435E+02  0.40024412268E+02  0.58340603716E+02  0.10566000000E+00 0.  1.
         23    2    1    0    0    0 -0.31550570912E+01 -0.19445190809E+02  0.21686920359E+02  0.95701666506E+02  0.91106622298E+02 0.  0.
         13    1    3    3    0    0  0.32321588298E+02  0.38586486261E+01 -0.18337491909E+02  0.37361062791E+02  0.10566000000E+00 0. -1.
         22    1    1    0    0    0  0.31550570912E+01  0.19445190809E+02 -0.21686920359E+02  0.29298333494E+02  0.00000000000E+00 0.  1.
</event>
<event>
 5    1  0.6835449E-004  0.9118800E+02  0.7818608E-02  0.1130116E+00
         25   -1    0    0    0    0  0.00000000000E+00  0.00000000000E+00  0.99999998245E-14  0.12500000000E+03  0.12500000000E+03 0.  0.
        -13    1    3    3    0    0 -0.52915922280E+02 -0.21227534211E+02 -0.12146902984E+02  0.58294609147E+02  0.10566000000E+00 0. -1.
         23    2    1    0    0    0 -0.29510799697E+02  0.26322534145E+01  0.34390955035E+01  0.95173108866E+02  0.90378521877E+02 0.  0.
         13    1    3    3    0    0  0.23405122583E+02  0.23859787625E+02  0.15585998488E+02  0.36878499719E+02  0.10566000000E+00 0.  1.
         22    1    1    0    0    0  0.29510799697E+02 -0.26322534145E+01 -0.34390955035E+01  0.29826891134E+02  0.00000000000E+00 0. -1.
</event>
<event>
 5    1  0.6835449E-004  0.9118800E+02  0.7818608E-02  0.1130116E+00
         25   -1    0    0    0    0  0.00000000000E+00  0.00000000000E+00  0.99999998245E-14  0.12500000000E+03  0.12500000000E+03 0.  0.
        -13    1    3    3    0    0 -0.22100779987E+02  0.46322966759E+02 -0.30960842085E+02  0.59940358958E+02  0.10566000000E+00 0.  1.
         23    2    1    0    0    0 -0.19820126206E+02  0.16065558052E+02 -0.21238823535E+02  0.91803205222E+02  0.85590894992E+02 0.  0.
         13    1    3    3    0    0  0.22806537814E+01 -0.30257408707E+02  0.97220185503E+01  0.31862846264E+02  0.10566000000E+00 0. -1.
         22    1    1    0    0    0  0.19820126206E+02 -0.16065558052E+02  0.21238823535E+02  0.33196794778E+02  0.00000000000E+00 0.  1.
</event>
<event>
 5    1  0.6835449E-004  0.9118800E+02  0.7818608E-02  0.1130116E+00
         25   -1    0    0    0    0  0.00000000000E+00  0.00000000000E+00  0.99999998245E-14  0.12500000000E+03  0.12500000000E+03 0.  0.
        -13    1    3    3    0    0 -0.11114973749E+02 -0.17299115334E+02 -0.45685716083E+02  0.50099878750E+02  0.10566000000E+00 0.  1.
         23    2    1    0    0    0 -0.28898004815E+02 -0.34432422633E+01 -0.66972205117E+01  0.95136923096E+02  0.90328460487E+02 0.  0.
         13    1    3    3    0    0 -0.17783031066E+02  0.13855873071E+02  0.38988495571E+02  0.45037044345E+02  0.10566000000E+00 0. -1.
         22    1    1    0    0    0  0.28898004815E+02  0.34432422633E+01  0.66972205117E+01  0.29863076904E+02  0.00000000000E+00 0.  1.
</event>
<event>
 5    1  0.6835449E-004  0.9118800E+02  0.7818608E-02  0.1130116E+00
         25   -1    0    0    0    0  0.00000000000E+00  0.00000000000E+00  0.99999998245E-14  0.12500000000E+03  0.12500000000E+03 0.  0.
        -13    1    3    3    0    0 -0.40584155500E+02  0.35564784294E+02 -0.27087189062E+02  0.60379255832E+02  0.10566000000E+00 0.  1.
         23    2    1    0    0    0 -0.16928654066E+02  0.22822177982E+02 -0.30677179509E+01  0.96419551617E+02  0.92086306823E+02 0.  0.
         13    1    3    3    0    0  0.23655501435E+02 -0.12742606312E+02  0.24019471112E+02  0.36040295785E+02  0.10566000000E+00 0. -1.
         22    1    1    0    0    0  0.16928654066E+02 -0.22822177982E+02  0.30677179509E+01  0.28580448383E+02  0.00000000000E+00 0.  1.
</event>
<event>
 5    1  0.6835449E-004  0.9118800E+02  0.7818608E-02  0.1130116E+00
         25   -1    0    0    0    0  0.00000000000E+00  0.00000000000E+00  0.99999998245E-14  0.12500000000E+03  0.12500000000E+03 0.  0.
        -13    1    3    3    0    0 -0.10083674764E+02 -0.42365843483E+02 -0.39573204995E+02  0.58843817929E+02  0.10566000000E+00 0.  1.
         23    2    1    0    0    0 -0.12724451395E+02 -0.25323308348E+02 -0.68347768510E+01  0.95847027877E+02  0.91305843018E+02 0.  0.
         13    1    3    3    0    0 -0.26407766308E+01  0.17042535135E+02  0.32738428144E+02  0.37003209948E+02  0.10566000000E+00 0. -1.
         22    1    1    0    0    0  0.12724451395E+02  0.25323308348E+02  0.68347768510E+01  0.29152972123E+02  0.00000000000E+00 0.  1.
</event>
<event>
 5    1  0.6835449E-004  0.9118800E+02  0.7818608E-02  0.1130116E+00
         25   -1    0    0    0    0  0.00000000000E+00  0.00000000000E+00  0.99999998245E-14  0.12500000000E+03  0.12500000000E+03 0.  0.
        -13    1    3    3    0    0  0.20658051783E+02  0.33020925383E+02 -0.20233270370E+02  0.43892288737E+02  0.10566000000E+00 0. -1.
         23    2    1    0    0    0 -0.35981795501E+01 -0.11852648848E+02 -0.26947249028E+02  0.95342177913E+02  0.90612054817E+02 0.  0.
         13    1    3    3    0    0 -0.24256231334E+02 -0.44873574231E+02 -0.67139786579E+01  0.51449889176E+02  0.10566000000E+00 0.  1.
         22    1    1    0    0    0  0.35981795501E+01  0.11852648848E+02  0.26947249028E+02  0.29657822087E+02  0.00000000000E+00 0.  1.
</event>
<event>
 5    1  0.6835449E-004  0.9118800E+02  0.7818608E-02  0.1130116E+00
         25   -1    0    0    0    0  0.00000000000E+00  0.00000000000E+00  0.99999998245E-14  0.12500000000E+03  0.12500000000E+03 0.  0.
        -13    1    3    3    0    0  0.24267186975E+02 -0.26641369479E+02 -0.44047336369E+02  0.56910789282E+02  0.10566000000E+00 0.  1.
         23    2    1    0    0    0  0.22445007407E+02 -0.18530633386E+02 -0.67525997466E+01  0.95120904724E+02  0.90306290927E+02 0.  0.
         13    1    3    3    0    0 -0.18221795684E+01  0.81107360937E+01  0.37294736622E+02  0.38210115443E+02  0.10566000000E+00 0. -1.
         22    1    1    0    0    0 -0.22445007407E+02  0.18530633386E+02  0.67525997466E+01  0.29879095276E+02  0.00000000000E+00 0.  1.
</event>
<event>
 5    1  0.6835449E-004  0.9118800E+02  0.7818608E-02  0.1130116E+00
         25   -1    0    0    0    0  0.00000000000E+00  0.00000000000E+00  0.99999998245E-14  0.12500000000E+03  0.12500000000E+03 0.  0.
        -13    1    3    3    0    0 -0.13050555233E+02 -0.31591424610E+02  0.31457469502E+02  0.46453403022E+02  0.10566000000E+00 0.  1.
         23    2    1    0    0    0 -0.32038779023E+02 -0.29047340133E+01  0.35931197808E+00  0.92827807876E+02  0.87074404787E+02 0.  0.
         13    1    3    3    0    0 -0.18988223790E+02  0.28686690597E+02 -0.31098157524E+02  0.46374404854E+02  0.10566000000E+00 0. -1.
         22    1    1    0    0    0  0.32038779023E+02  0.29047340133E+01 -0.35931197808E+00  0.32172192124E+02  0.00000000000E+00 0.  1.
</event>
<event>
 5    1  0.6835449E-004  0.9118800E+02  0.7818608E-02  0.1130116E+00
         25   -1    0    0    0    0  0.00000000000E+00  0.00000000000E+00  0.99999998245E-14  0.12500000000E+03  0.12500000000E+03 0.  0.
        -13    1    3    3    0    0  0.93507322508E+01 -0.29456717265E+02  0.29297497025E+02  0.42585078157E+02  0.10566000000E+00 0.  1.
         23    2    1    0    0    0  0.73577840100E+00 -0.18606539096E+02 -0.22263881587E+02  0.95975439877E+02  0.91481473366E+02 0.  0.
         13    1    3    3    0    0 -0.86149538498E+01  0.10850178169E+02 -0.51561378613E+02  0.53390361720E+02  0.10566000000E+00 0. -1.
         22    1    1    0    0    0 -0.73577840100E+00  0.18606539096E+02  0.22263881587E+02  0.29024560123E+02  0.00000000000E+00 0.  1.
</event>
<event>
 5    1  0.6835449E-004  0.9118800E+02  0.7818608E-02  0.1130116E+00
         25   -1    0    0    0    0  0.00000000000E+00  0.00000000000E+00  0.99999998245E-14  0.12500000000E+03  0.12500000000E+03 0.  0.
        -13    1    3    3    0    0 -0.18171474929E+02 -0.37097211797E+02 -0.59648408425E+01  0.41737226963E+02  0.10566000000E+00 0.  1.
         23    2    1    0    0    0  0.14242239527E+02 -0.52064064610E+01  0.24297675204E+02  0.96358682375E+02  0.92003644459E+02 0.  0.
         13    1    3    3    0    0  0.32413714456E+02  0.31890805336E+02  0.30262516047E+02  0.54621455412E+02  0.10566000000E+00 0. -1.
         22    1    1    0    0    0 -0.14242239527E+02  0.52064064610E+01 -0.24297675204E+02  0.28641317625E+02  0.00000000000E+00 0. -1.
</event>
<event>
 5    1  0.6835449E-004  0.9118800E+02  0.7818608E-02  0.1130116E+00
         25   -1    0    0    0    0  0.00000000000E+00  0.00000000000E+00  0.99999998245E-14  0.12500000000E+03  0.12500000000E+03 0.  0.
        -13    1    3    3    0    0  0.23965352168E+02  0.66224589274E+00  0.27579906910E+02  0.36543660235E+02  0.10566000000E+00 0. -1.
         23    2    1    0    0    0 -0.44121148543E+01 -0.26964513147E+02 -0.14280355240E+02  0.94170139921E+02  0.88980531467E+02 0.  0.
         13    1    3    3    0    0 -0.28377467023E+02 -0.27626759040E+02 -0.41860262150E+02  0.57626479686E+02  0.10566000000E+00 0.  1.
         22    1    1    0    0    0  0.44121148543E+01  0.26964513147E+02  0.14280355240E+02  0.30829860079E+02  0.00000000000E+00 0.  1.
</event>
<event>
 5    1  0.6835449E-004  0.9118800E+02  0.7818608E-02  0.1130116E+00
         25   -1    0    0    0    0  0.00000000000E+00  0.00000000000E+00  0.99999998245E-14  0.12500000000E+03  0.12500000000E+03 0.  0.
        -13    1    3    3    0    0  0.17265186279E+02  0.49349593348E+02 -0.29027891419E+02  0.59800490509E+02  0.10566000000E+00 0. -1.
         23    2    1    0    0    0  0.17044453502E+02  0.28456760476E+02 -0.53138446057E+01  0.91406286950E+02  0.85009245013E+02 0.  0.
         13    1    3    3    0    0 -0.22073277719E+00 -0.20892832872E+02  0.23714046814E+02  0.31605796441E+02  0.10566000000E+00 0.  1.
         22    1    1    0    0    0 -0.17044453502E+02 -0.28456760476E+02  0.53138446057E+01  0.33593713050E+02  0.00000000000E+00 0. -1.
</event>
<event>
 5    1  0.6835449E-004  0.9118800E+02  0.7818608E-02  0.1130116E+00
         25   -1    0    0    0    0  0.00000000000E+00  0.00000000000E+00  0.99999998245E-14  0.12500000000E+03  0.12500000000E+03 0.  0.
        -13    1    3    3    0    0 -0.33914534242E+02  0.16295528192E+02 -0.24423841556E+02  0.44858389096E+02  0.10566000000E+00 0.  1.
         23    2    1    0    0    0 -0.15578085047E+02 -0.25432043600E+02 -0.36313877566E+01  0.94955823319E+02  0.90077499020E+02 0.  0.
         13    1    3    3    0    0  0.18336449195E+02 -0.41727571792E+02  0.20792453799E+02  0.50097434223E+02  0.10566000000E+00 0. -1.
         22    1    1    0    0    0  0.15578085047E+02  0.25432043600E+02  0.36313877566E+01  0.30044176681E+02  0.00000000000E+00 0. -1.
</event>
<event>
 5    1  0.6835449E-004  0.9118800E+02  0.7818608E-02  0.1130116E+00
         25   -1    0    0    0    0  0.00000000000E+00  0.00000000000E+00  0.99999998245E-14  0.12500000000E+03  0.12500000000E+03 0.  0.
        -13    1    3    3    0    0 -0.22903694353E+02  0.32741245369E+02 -0.10418323062E+02  0.41293110597E+02  0.10566000000E+00 0. -1.
         23    2    1    0    0    0 -0.16100207578E+02 -0.10835844805E+02  0.21725595887E+02  0.95868681229E+02  0.91335482192E+02 0.  0.
         13    1    3    3    0    0  0.68034867754E+01 -0.43577090174E+02  0.32143918949E+02  0.54575570632E+02  0.10566000000E+00 0.  1.
         22    1    1    0    0    0  0.16100207578E+02  0.10835844805E+02 -0.21725595887E+02  0.29131318771E+02  0.00000000000E+00 0.  1.
</event>
<event>
 5    1  0.6835449E-004  0.9118800E+02  0.7818608E-02  0.1130116E+00
         25   -1    0    0    0    0  0.00000000000E+00  0.00000000000E+00  0.99999998245E-14  0.12500000000E+03  0.12500000000E+03 0.  0.
        -13    1    3    3    0    0  0.44171939804E+02 -0.23651601119E+02  0.93361290514E+01  0.50967960242E+02  0.10566000000E+00 0.  1.
         23    2    1    0    0    0  0.23705576934E+02  0.16127905274E+02  0.47388729291E+01  0.95939362999E+02  0.91432164743E+02 0.  0.
         13    1    3    3    0    0 -0.20466362870E+02  0.39779506393E+02 -0.45972561223E+01  0.44971402757E+02  0.10566000000E+00 0. -1.
         22    1    1    0    0    0 -0.23705576934E+02 -0.16127905274E+02 -0.47388729291E+01  0.29060637001E+02  0.00000000000E+00 0.  1.
</event>
<event>
 5    1  0.6835449E-004  0.9118800E+02  0.7818608E-02  0.1130116E+00
         25   -1    0    0    0    0  0.00000000000E+00  0.00000000000E+00  0.99999998245E-14  0.12500000000E+03  0.12500000000E+03 0.  0.
        -13    1    3    3    0    0  0.14875719797E+02  0.39110806948E+02 -0.46414159885E+02  0.62491820757E+02  0.10566000000E+00 0.  1.
         23    2    1    0    0    0  0.75198387059E+01  0.18123258454E+02 -0.21152241614E+02  0.96148348462E+02  0.91717430816E+02 0.  0.
         13    1    3    3    0    0 -0.73558810910E+01 -0.20987548494E+02  0.25261918271E+02  0.33656527705E+02  0.10566000000E+00 0. -1.
         22    1    1    0    0    0 -0.75198387059E+01 -0.18123258454E+02  0.21152241614E+02  0.28851651538E+02  0.00000000000E+00 0.  1.
</event>
<event>
 5    1  0.6835449E-004  0.9118800E+02  0.7818608E-02  0.1130116E+00
         25   -1    0    0    0    0  0.00000000000E+00  0.00000000000E+00  0.99999998245E-14  0.12500000000E+03  0.12500000000E+03 0.  0.
        -13    1    3    3    0    0  0.39601799335E+02 -0.26584157006E+02 -0.50165548422E+01  0.47960368022E+02  0.10566000000E+00 0. -1.
         23    2    1    0    0    0  0.22063980608E+02  0.12101490100E+02 -0.19847079294E+02  0.92950478016E+02  0.87250326670E+02 0.  0.
         13    1    3    3    0    0 -0.17537818727E+02  0.38685647106E+02 -0.14830524452E+02  0.44990109994E+02  0.10566000000E+00 0.  1.
         22    1    1    0    0    0 -0.22063980608E+02 -0.12101490100E+02  0.19847079294E+02  0.32049521984E+02  0.00000000000E+00 0. -1.
</event>
<event>
 5    1  0.6835449E-004  0.9118800E+02  0.7818608E-02  0.1130116E+00
         25   -1    0    0    0    0  0.00000000000E+00  0.00000000000E+00  0.99999998245E-14  0.12500000000E+03  0.12500000000E+03 0.  0.
        -13    1    3    3    0    0  0.34958057527E+02 -0.15396707776E+02 -0.45385044737E+02  0.59320635923E+02  0.10566000000E+00 0.  1.
         23    2    1    0    0    0  0.80204331276E+01 -0.12615399991E+02 -0.32323537907E+02  0.89386985983E+02  0.81986257970E+02 0.  0.
         13    1    3    3    0    0 -0.26937624399E+02  0.27813077850E+01  0.13061506830E+02  0.30066350061E+02  0.10566000000E+00 0. -1.
         22    1    1    0    0    0 -0.80204331276E+01  0.12615399991E+02  0.32323537907E+02  0.35613014017E+02  0.00000000000E+00 0.  1.
</event>
<event>
 5    1  0.6835449E-004  0.9118800E+02  0.7818608E-02  0.1130116E+00
         25   -1    0    0    0    0  0.00000000000E+00  0.00000000000E+00  0.99999998245E-14  0.12500000000E+03  0.12500000000E+03 0.  0.
        -13    1    3    3    0    0  0.32900236479E+02 -0.74289145468E+01 -0.23580530916E+02  0.41154184891E+02  0.10566000000E+00 0. -1.
         23    2    1    0    0    0  0.32953208307E+01  0.99926868823E+01  0.23394069437E+02  0.99348578688E+02  0.95979918066E+02 0.  0.
         13    1    3    3    0    0 -0.29604915648E+02  0.17421601429E+02  0.46974600354E+02  0.58194393796E+02  0.10566000000E+00 0.  1.
         22    1    1    0    0    0 -0.32953208307E+01 -0.99926868823E+01 -0.23394069437E+02  0.25651421312E+02  0.00000000000E+00 0.  1.
</event>
<event>
 5    1  0.6835449E-004  0.9118800E+02  0.7818608E-02  0.1130116E+00
         25   -1    0    0    0    0  0.00000000000E+00  0.00000000000E+00  0.99999998245E-14  0.12500000000E+03  0.12500000000E+03 0.  0.
        -13    1    3    3    0    0  0.46755867805E+02 -0.59541785492E+01 -0.15433501826E+02  0.49596043784E+02  0.10566000000E+00 0.  1.
         23    2    1    0    0    0  0.20842004054E+02  0.10951977737E+02 -0.32450468657E+02  0.84908007466E+02  0.74846522073E+02 0.  0.
         13    1    3    3    0    0 -0.25913863752E+02  0.16906156286E+02 -0.17016966831E+02  0.35311963682E+02  0.10566000000E+00 0. -1.
         22    1    1    0    0    0 -0.20842004054E+02 -0.10951977737E+02  0.32450468657E+02  0.40091992534E+02  0.00000000000E+00 0.  1.
</event>
<event>
 5    1  0.6835449E-004  0.9118800E+02  0.7818608E-02  0.1130116E+00
         25   -1    0    0    0    0  0.00000000000E+00  0.00000000000E+00  0.99999998245E-14  0.12500000000E+03  0.12500000000E+03 0.  0.
        -13    1    3    3    0    0 -0.20332942405E+01 -0.42607533336E+02  0.40549252936E+02  0.58853965543E+02  0.10566000000E+00 0.  1.
         23    2    1    0    0    0 -0.14231948121E+02 -0.20835056888E+02  0.11159967484E+02  0.97410276966E+02  0.93421460283E+02 0.  0.
         13    1    3    3    0    0 -0.12198653880E+02  0.21772476447E+02 -0.29389285452E+02  0.38556311423E+02  0.10566000000E+00 0. -1.
         22    1    1    0    0    0  0.14231948121E+02  0.20835056888E+02 -0.11159967484E+02  0.27589723034E+02  0.00000000000E+00 0.  1.
</event>
<event>
 5    1  0.6835449E-004  0.9118800E+02  0.7818608E-02  0.1130116E+00
         25   -1    0    0    0    0  0.00000000000E+00  0.00000000000E+00  0.99999998245E-14  0.12500000000E+03  0.12500000000E+03 0.  0.
        -13    1    3    3    0    0  0.80035265879E+01  0.17228889748E+01  0.36038468882E+02  0.36956828702E+02  0.10566000000E+00 0. -1.
         23    2    1    0    0    0 -0.62046569327E+01 -0.15075498843E+02 -0.21187490976E+02  0.98266533953E+02  0.94560210915E+02 0.  0.
         13    1    3    3    0    0 -0.14208183521E+02 -0.16798387818E+02 -0.57225959859E+02  0.61309705251E+02  0.10566000000E+00 0.  1.
         22    1    1    0    0    0  0.62046569327E+01  0.15075498843E+02  0.21187490976E+02  0.26733466047E+02  0.00000000000E+00 0.  1.
</event>
<event>
 5    1  0.6835449E-004  0.9118800E+02  0.7818608E-02  0.1130116E+00
         25   -1    0    0    0    0  0.00000000000E+00  0.00000000000E+00  0.99999998245E-14  0.12500000000E+03  0.12500000000E+03 0.  0.
        -13    1    3    3    0    0 -0.62563805235E+01 -0.37902564445E+02 -0.25971994357E+02  0.46371352619E+02  0.10566000000E+00 0.  1.
         23    2    1    0    0    0 -0.20213805018E+02  0.87694753932E+01  0.25459127795E+01  0.10281930380E+03  0.10039833639E+03 0.  0.
         13    1    3    3    0    0 -0.13957424494E+02  0.46672039838E+02  0.28517907137E+02  0.56447951182E+02  0.10566000000E+00 0. -1.
         22    1    1    0    0    0  0.20213805018E+02 -0.87694753932E+01 -0.25459127795E+01  0.22180696199E+02  0.00000000000E+00 0. -1.
</event>
<event>
 5    1  0.6835449E-004  0.9118800E+02  0.7818608E-02  0.1130116E+00
         25   -1    0    0    0    0  0.00000000000E+00  0.00000000000E+00  0.99999998245E-14  0.12500000000E+03  0.12500000000E+03 0.  0.
        -13    1    3    3    0    0  0.55600136020E+01  0.27996403640E+02 -0.29830732183E+02  0.41286754712E+02  0.10566000000E+00 0.  1.
         23    2    1    0    0    0  0.24990368079E+02  0.75355450420E-01  0.13675104751E+02  0.96512587602E+02  0.92212509458E+02 0.  0.
         13    1    3    3    0    0  0.19430354477E+02 -0.27921048189E+02  0.43505836934E+02  0.55225832891E+02  0.10566000000E+00 0. -1.
         22    1    1    0    0    0 -0.24990368079E+02 -0.75355450420E-01 -0.13675104751E+02  0.28487412398E+02  0.00000000000E+00 0. -1.
</event>
<event>
 5    1  0.6835449E-004  0.9118800E+02  0.7818608E-02  0.1130116E+00
         25   -1    0    0    0    0  0.00000000000E+00  0.00000000000E+00  0.99999998245E-14  0.12500000000E+03  0.12500000000E+03 0.  0.
        -13    1    3    3    0    0 -0.20118898375E+02  0.53264377132E+02  0.67527932161E+01  0.57336509515E+02  0.10566000000E+00 0.  1.
         23    2    1    0    0    0  0.58054072342E+01  0.24530220692E+02 -0.76916753330E+01  0.98644804122E+02  0.95058934512E+02 0.  0.
         13    1    3    3    0    0  0.25924305609E+02 -0.28734156441E+02 -0.14444468549E+02  0.41308294607E+02  0.10566000000E+00 0. -1.
         22    1    1    0    0    0 -0.58054072342E+01 -0.24530220692E+02  0.76916753330E+01  0.26355195878E+02  0.00000000000E+00 0.  1.
</event>
<event>
 5    1  0.6835449E-004  0.9118800E+02  0.7818608E-02  0.1130116E+00
         25   -1    0    0    0    0  0.00000000000E+00  0.00000000000E+00  0.99999998245E-14  0.12500000000E+03  0.12500000000E+03 0.  0.
        -13    1    3    3    0    0  0.35626060949E+02  0.16026821132E+02  0.46989588586E+01  0.39346748185E+02  0.10566000000E+00 0.  1.
         23    2    1    0    0    0 -0.10645875482E+02 -0.49163830573E+01  0.27562690002E+02  0.95046580040E+02  0.90203353652E+02 0.  0.
         13    1    3    3    0    0 -0.46271936432E+02 -0.20943204190E+02  0.22863731143E+02  0.55699831855E+02  0.10566000000E+00 0. -1.
         22    1    1    0    0    0  0.10645875482E+02  0.49163830573E+01 -0.27562690002E+02  0.29953419960E+02  0.00000000000E+00 0. -1.
</event>
<event>
 5    1  0.6835449E-004  0.9118800E+02  0.7818608E-02  0.1130116E+00
         25   -1    0    0    0    0  0.00000000000E+00  0.00000000000E+00  0.99999998245E-14  0.12500000000E+03  0.12500000000E+03 0.  0.
        -13    1    3    3    0    0 -0.34586266792E+02  0.33655329182E+02 -0.83798223886E+01  0.48980849526E+02  0.10566000000E+00 0. -1.
         23    2    1    0    0    0  0.69198869897E+01  0.48173908993E+01 -0.22095916410E+02  0.10135001875E+03  0.98552040506E+02 0.  0.
         13    1    3    3    0    0  0.41506153782E+02 -0.28837938283E+02 -0.13716094022E+02  0.52369169226E+02  0.10566000000E+00 0.  1.
         22    1    1    0    0    0 -0.69198869897E+01 -0.48173908993E+01  0.22095916410E+02  0.23649981248E+02  0.00000000000E+00 0. -1.
</event>
<event>
 5    1  0.6835449E-004  0.9118800E+02  0.7818608E-02  0.1130116E+00
         25   -1    0    0    0    0  0.00000000000E+00  0.00000000000E+00  0.99999998245E-14  0.12500000000E+03  0.12500000000E+03 0.  0.
        -13    1    3    3    0    0  0.52192846938E+02 -0.23656191275E+02 -0.17008489856E+02  0.59774648040E+02  0.10566000000E+00 0.  1.
         23    2    1    0    0    0  0.32690998958E+02 -0.10134190169E+01 -0.12449684255E+02  0.90003956380E+02  0.82921584012E+02 0.  0.
         13    1    3    3    0    0 -0.19501847980E+02  0.22642772258E+02  0.45588056016E+01  0.30229308340E+02  0.10566000000E+00 0. -1.
         22    1    1    0    0    0 -0.32690998958E+02  0.10134190169E+01  0.12449684255E+02  0.34996043620E+02  0.00000000000E+00 0.  1.
</event>
<event>
 5    1  0.6835449E-004  0.9118800E+02  0.7818608E-02  0.1130116E+00
         25   -1    0    0    0    0  0.00000000000E+00  0.00000000000E+00  0.99999998245E-14  0.12500000000E+03  0.12500000000E+03 0.  0.
        -13    1    3    3    0    0 -0.37582178309E+02  0.24227751784E+02 -0.95375331200E+01  0.45720671309E+02  0.10566000000E+00 0.  1.
         23    2    1    0    0    0 -0.10238893184E+02 -0.16464338270E+02 -0.21361217749E+02  0.96151932612E+02  0.91722315459E+02 0.  0.
         13    1    3    3    0    0  0.27343285125E+02 -0.40692090054E+02 -0.11823684629E+02  0.50431261303E+02  0.10566000000E+00 0. -1.
         22    1    1    0    0    0  0.10238893184E+02  0.16464338270E+02  0.21361217749E+02  0.28848067388E+02  0.00000000000E+00 0.  1.
</event>
<event>
 5    1  0.6835449E-004  0.9118800E+02  0.7818608E-02  0.1130116E+00
         25   -1    0    0    0    0  0.00000000000E+00  0.00000000000E+00  0.99999998245E-14  0.12500000000E+03  0.12500000000E+03 0.  0.
        -13    1    3    3    0    0  0.57762302552E+02  0.72797354394E+01 -0.53038891224E+01  0.58460418644E+02  0.10566000000E+00 0.  1.
         23    2    1    0    0    0  0.21450043651E+02  0.16730269155E+02 -0.94304321612E+01  0.96208693511E+02  0.91799637133E+02 0.  0.
         13    1    3    3    0    0 -0.36312258901E+02  0.94505337151E+01 -0.41265430389E+01  0.37748274867E+02  0.10566000000E+00 0. -1.
         22    1    1    0    0    0 -0.21450043651E+02 -0.16730269155E+02  0.94304321612E+01  0.28791306489E+02  0.00000000000E+00 0.  1.
</event>
<event>
 5    1  0.6835449E-004  0.9118800E+02  0.7818608E-02  0.1130116E+00
         25   -1    0    0    0    0  0.00000000000E+00  0.00000000000E+00  0.99999998245E-14  0.12500000000E+03  0.12500000000E+03 0.  0.
        -13    1    3    3    0    0 -0.31788972519E+02  0.86383570802E+01 -0.35476639141E+02  0.48412426872E+02  0.10566000000E+00 0.  1.
         23    2    1    0    0    0  0.14336659358E+02  0.37956314900E+01 -0.24955823805E+02  0.95970019605E+02  0.91474066823E+02 0.  0.
         13    1    3    3    0    0  0.46125631877E+02 -0.48427255902E+01  0.10520815336E+02  0.47557592733E+02  0.10566000000E+00 0. -1.
         22    1    1    0    0    0 -0.14336659358E+02 -0.37956314900E+01  0.24955823805E+02  0.29029980395E+02  0.00000000000E+00 0. -1.
</event>
<event>
 5    1  0.6835449E-004  0.9118800E+02  0.7818608E-02  0.1130116E+00
         25   -1    0    0    0    0  0.00000000000E+00  0.00000000000E+00  0.99999998245E-14  0.12500000000E+03  0.12500000000E+03 0.  0.
        -13    1    3    3    0    0  0.54492862485E+02 -0.16314867891E+02  0.17051156676E+02  0.59383500100E+02  0.10566000000E+00 0.  1.
         23    2    1    0    0    0  0.22677836529E+02  0.38066217353E+01 -0.26177102696E+01  0.10185638218E+03  0.99192215145E+02 0.  0.
         13    1    3    3    0    0 -0.31815025956E+02  0.20121489626E+02 -0.19668866946E+02  0.42472882081E+02  0.10566000000E+00 0. -1.
         22    1    1    0    0    0 -0.22677836529E+02 -0.38066217353E+01  0.26177102696E+01  0.23143617819E+02  0.00000000000E+00 0.  1.
</event>
<event>
 5    1  0.6835449E-004  0.9118800E+02  0.7818608E-02  0.1130116E+00
         25   -1    0    0    0    0  0.00000000000E+00  0.00000000000E+00  0.99999998245E-14  0.12500000000E+03  0.12500000000E+03 0.  0.
        -13    1    3    3    0    0 -0.41174469721E+02  0.32282212029E+02  0.15382158012E+02  0.54535310757E+02  0.10566000000E+00 0.  1.
         23    2    1    0    0    0 -0.29696841796E+02 -0.44146256529E+01  0.35333247953E+01  0.94769622622E+02  0.89818737775E+02 0.  0.
         13    1    3    3    0    0  0.11477627925E+02 -0.36696837682E+02 -0.11848833217E+02  0.40234311865E+02  0.10566000000E+00 0. -1.
         22    1    1    0    0    0  0.29696841796E+02  0.44146256529E+01 -0.35333247953E+01  0.30230377378E+02  0.00000000000E+00 0. -1.
</event>
<event>
 5    1  0.6835449E-004  0.9118800E+02  0.7818608E-02  0.1130116E+00
         25   -1    0    0    0    0  0.00000000000E+00  0.00000000000E+00  0.99999998245E-14  0.12500000000E+03  0.12500000000E+03 0.  0.
        -13    1    3    3    0    0 -0.25617013871E+02  0.30343872502E+02  0.56179702266E+01  0.40106791839E+02  0.10566000000E+00 0.  1.
         23    2    1    0    0    0  0.21465684521E+02  0.85002998401E+01 -0.16598870714E+02  0.96564929781E+02  0.92283435379E+02 0.  0.
         13    1    3    3    0    0  0.47082698392E+02 -0.21843572662E+02 -0.22216840941E+02  0.56458137943E+02  0.10566000000E+00 0. -1.
         22    1    1    0    0    0 -0.21465684521E+02 -0.85002998401E+01  0.16598870714E+02  0.28435070219E+02  0.00000000000E+00 0. -1.
</event>
<event>
 5    1  0.6835449E-004  0.9118800E+02  0.7818608E-02  0.1130116E+00
         25   -1    0    0    0    0  0.00000000000E+00  0.00000000000E+00  0.99999998245E-14  0.12500000000E+03  0.12500000000E+03 0.  0.
        -13    1    3    3    0    0 -0.57399554105E+02 -0.19075135085E+02 -0.12793360356E+02  0.61824354612E+02  0.10566000000E+00 0.  1.
         23    2    1    0    0    0 -0.28682111127E+02 -0.11453360498E+02 -0.14777226881E+00  0.94115298253E+02  0.88903456419E+02 0.  0.
         13    1    3    3    0    0  0.28717442979E+02  0.76217745871E+01  0.12645588088E+02  0.32290943641E+02  0.10566000000E+00 0. -1.
         22    1    1    0    0    0  0.28682111127E+02  0.11453360498E+02  0.14777226881E+00  0.30884701747E+02  0.00000000000E+00 0.  1.
</event>
<event>
 5    1  0.6835449E-004  0.9118800E+02  0.7818608E-02  0.1130116E+00
         25   -1    0    0    0    0  0.00000000000E+00  0.00000000000E+00  0.99999998245E-14  0.12500000000E+03  0.12500000000E+03 0.  0.
        -13    1    3    3    0    0  0.40059562179E+02 -0.28064843309E+01 -0.45742487695E+02  0.60868967634E+02  0.10566000000E+00 0.  1.
         23    2    1    0    0    0  0.20900828032E+02 -0.10847952002E+02 -0.18953203059E+02  0.94771758548E+02  0.89821710277E+02 0.  0.
         13    1    3    3    0    0 -0.19158734147E+02 -0.80414676715E+01  0.26789284636E+02  0.33902790914E+02  0.10566000000E+00 0. -1.
         22    1    1    0    0    0 -0.20900828032E+02  0.10847952002E+02  0.18953203059E+02  0.30228241452E+02  0.00000000000E+00 0.  1.
</event>
<event>
 5    1  0.6835449E-004  0.9118800E+02  0.7818608E-02  0.1130116E+00
         25   -1    0    0    0    0  0.00000000000E+00  0.00000000000E+00  0.99999998245E-14  0.12500000000E+03  0.12500000000E+03 0.  0.
        -13    1    3    3    0    0 -0.31596416197E+02  0.96190793564E+01 -0.21982613329E+02  0.39675013005E+02  0.10566000000E+00 0.  1.
         23    2    1    0    0    0  0.23285443359E+02  0.13768839026E+02 -0.10992733596E+02  0.95800119992E+02  0.91241602342E+02 0.  0.
         13    1    3    3    0    0  0.54881859556E+02  0.41497596701E+01  0.10989879733E+02  0.56125106987E+02  0.10566000000E+00 0. -1.
         22    1    1    0    0    0 -0.23285443359E+02 -0.13768839026E+02  0.10992733596E+02  0.29199880008E+02  0.00000000000E+00 0. -1.
</event>
<event>
 5    1  0.6835449E-004  0.9118800E+02  0.7818608E-02  0.1130116E+00
         25   -1    0    0    0    0  0.00000000000E+00  0.00000000000E+00  0.99999998245E-14  0.12500000000E+03  0.12500000000E+03 0.  0.
        -13    1    3    3    0    0 -0.32608644348E+02  0.19544679259E+02 -0.50438974483E+01  0.38350622407E+02  0.10566000000E+00 0. -1.
         23    2    1    0    0    0  0.78424078041E+01 -0.57643974267E+01  0.27313965679E+02  0.96003718187E+02  0.91520104605E+02 0.  0.
         13    1    3    3    0    0  0.40451052152E+02 -0.25309076685E+02  0.32357863127E+02  0.57653095780E+02  0.10566000000E+00 0.  1.
         22    1    1    0    0    0 -0.78424078041E+01  0.57643974267E+01 -0.27313965679E+02  0.28996281813E+02  0.00000000000E+00 0.  1.
</event>
<event>
 5    1  0.6835449E-004  0.9118800E+02  0.7818608E-02  0.1130116E+00
         25   -1    0    0    0    0  0.00000000000E+00  0.00000000000E+00  0.99999998245E-14  0.12500000000E+03  0.12500000000E+03 0.  0.
        -13    1    3    3    0    0  0.25776723715E+02  0.34022402579E+01 -0.18399997305E+02  0.31852563306E+02  0.10566000000E+00 0.  1.
         23    2    1    0    0    0 -0.28571423940E+02  0.83622492814E+01  0.10281565971E+02  0.93504538774E+02  0.88040528698E+02 0.  0.
         13    1    3    3    0    0 -0.54348147656E+02  0.49600090235E+01  0.28681563277E+02  0.61651975468E+02  0.10566000000E+00 0. -1.
         22    1    1    0    0    0  0.28571423940E+02 -0.83622492814E+01 -0.10281565971E+02  0.31495461226E+02  0.00000000000E+00 0. -1.
</event>
<event>
 5    1  0.6835449E-004  0.9118800E+02  0.7818608E-02  0.1130116E+00
         25   -1    0    0    0    0  0.00000000000E+00  0.00000000000E+00  0.99999998245E-14  0.12500000000E+03  0.12500000000E+03 0.  0.
        -13    1    3    3    0    0  0.11248202808E+02  0.44766209182E+02 -0.25670835006E+02  0.52816081688E+02  0.10566000000E+00 0.  1.
         23    2    1    0    0    0  0.49707909986E+01  0.27363472377E+02  0.11942428018E+02  0.94733021779E+02  0.89767786230E+02 0.  0.
         13    1    3    3    0    0 -0.62774118097E+01 -0.17402736804E+02  0.37613263023E+02  0.41916940091E+02  0.10566000000E+00 0. -1.
         22    1    1    0    0    0 -0.49707909986E+01 -0.27363472377E+02 -0.11942428018E+02  0.30266978221E+02  0.00000000000E+00 0.  1.
</event>
<event>
 5    1  0.6835449E-004  0.9118800E+02  0.7818608E-02  0.1130116E+00
         25   -1    0    0    0    0  0.00000000000E+00  0.00000000000E+00  0.99999998245E-14  0.12500000000E+03  0.12500000000E+03 0.  0.
        -13    1    3    3    0    0  0.33311313437E+02 -0.41516254634E+02 -0.93697928249E+01  0.54046712975E+02  0.10566000000E+00 0.  1.
         23    2    1    0    0    0  0.29401176456E+02 -0.11242847440E+01 -0.56461706008E+00  0.95571918418E+02  0.90928431222E+02 0.  0.
         13    1    3    3    0    0 -0.39101369813E+01  0.40391969890E+02  0.88051757648E+01  0.41525205443E+02  0.10566000000E+00 0. -1.
         22    1    1    0    0    0 -0.29401176456E+02  0.11242847440E+01  0.56461706008E+00  0.29428081582E+02  0.00000000000E+00 0.  1.
</event>
<event>
 5    1  0.6835449E-004  0.9118800E+02  0.7818608E-02  0.1130116E+00
         25   -1    0    0    0    0  0.00000000000E+00  0.00000000000E+00  0.99999998245E-14  0.12500000000E+03  0.12500000000E+03 0.  0.
        -13    1    3    3    0    0 -0.45860592977E+02  0.19223177537E+02  0.23163634245E+02  0.54856992793E+02  0.10566000000E+00 0.  1.
         23    2    1    0    0    0 -0.21163983259E+02 -0.13450958828E+02  0.11274173519E+02  0.97505464737E+02  0.93548736946E+02 0.  0.
         13    1    3    3    0    0  0.24696609719E+02 -0.32674136365E+02 -0.11889460725E+02  0.42648471944E+02  0.10566000000E+00 0. -1.
         22    1    1    0    0    0  0.21163983259E+02  0.13450958828E+02 -0.11274173519E+02  0.27494535263E+02  0.00000000000E+00 0.  1.
</event>
<event>
 5    1  0.6835449E-004  0.9118800E+02  0.7818608E-02  0.1130116E+00
         25   -1    0    0    0    0  0.00000000000E+00  0.00000000000E+00  0.99999998245E-14  0.12500000000E+03  0.12500000000E+03 0.  0.
        -13    1    3    3    0    0 -0.52379063288E+02  0.15541587767E+02 -0.15702334247E+02  0.56847881984E+02  0.10566000000E+00 0.  1.
         23    2    1    0    0    0 -0.26972887062E+02 -0.10557000229E+02 -0.13286942804E+01  0.96004270680E+02  0.91520859207E+02 0.  0.
         13    1    3    3    0    0  0.25406176226E+02 -0.26098587995E+02  0.14373639966E+02  0.39156388696E+02  0.10566000000E+00 0. -1.
         22    1    1    0    0    0  0.26972887062E+02  0.10557000229E+02  0.13286942804E+01  0.28995729320E+02  0.00000000000E+00 0.  1.
</event>
<event>
 5    1  0.6835449E-004  0.9118800E+02  0.7818608E-02  0.1130116E+00
         25   -1    0    0    0    0  0.00000000000E+00  0.00000000000E+00  0.99999998245E-14  0.12500000000E+03  0.12500000000E+03 0.  0.
        -13    1    3    3    0    0 -0.24155208867E+01 -0.35268656186E+02 -0.13228328566E+02  0.37745366484E+02  0.10566000000E+00 0.  1.
         23    2    1    0    0    0  0.17093886158E+02  0.78634487443E+01  0.21479340263E+02  0.96444845855E+02  0.92120635385E+02 0.  0.
         13    1    3    3    0    0  0.19509407044E+02  0.43132104930E+02  0.34707668829E+02  0.58699479371E+02  0.10566000000E+00 0. -1.
         22    1    1    0    0    0 -0.17093886158E+02 -0.78634487443E+01 -0.21479340263E+02  0.28555154145E+02  0.00000000000E+00 0. -1.
</event>
<event>
 5    1  0.6835449E-004  0.9118800E+02  0.7818608E-02  0.1130116E+00
         25   -1    0    0    0    0  0.00000000000E+00  0.00000000000E+00  0.99999998245E-14  0.12500000000E+03  0.12500000000E+03 0.  0.
        -13    1    3    3    0    0  0.28989351556E+02 -0.81776203086E+01  0.51696752598E+02  0.59831608459E+02  0.10566000000E+00 0. -1.
         23    2    1    0    0    0  0.24164763206E+02  0.12115408328E+00  0.18003722503E+02  0.94865559851E+02  0.89952153741E+02 0.  0.
         13    1    3    3    0    0 -0.48245883501E+01  0.82987743919E+01 -0.33693030094E+02  0.35033951392E+02  0.10566000000E+00 0.  1.
         22    1    1    0    0    0 -0.24164763206E+02 -0.12115408328E+00 -0.18003722503E+02  0.30134440149E+02  0.00000000000E+00 0. -1.
</event>
<event>
 5    1  0.6835449E-004  0.9118800E+02  0.7818608E-02  0.1130116E+00
         25   -1    0    0    0    0  0.00000000000E+00  0.00000000000E+00  0.99999998245E-14  0.12500000000E+03  0.12500000000E+03 0.  0.
        -13    1    3    3    0    0 -0.25454341365E+02  0.25265434688E+02 -0.52911042901E+01  0.36252898269E+02  0.10566000000E+00 0.  1.
         23    2    1    0    0    0  0.19271191524E+02 -0.11981864019E+02 -0.18246493383E+02  0.95881648245E+02  0.91353226879E+02 0.  0.
         13    1    3    3    0    0  0.44725532889E+02 -0.37247298706E+02 -0.12955389093E+02  0.59628749976E+02  0.10566000000E+00 0. -1.
         22    1    1    0    0    0 -0.19271191524E+02  0.11981864019E+02  0.18246493383E+02  0.29118351755E+02  0.00000000000E+00 0. -1.
</event>
<event>
 5    1  0.6835449E-004  0.9118800E+02  0.7818608E-02  0.1130116E+00
         25   -1    0    0    0    0  0.00000000000E+00  0.00000000000E+00  0.99999998245E-14  0.12500000000E+03  0.12500000000E+03 0.  0.
        -13    1    3    3    0    0 -0.31512903700E+02 -0.72889757375E+00 -0.30665385615E+02  0.43976942029E+02  0.10566000000E+00 0.  1.
         23    2    1    0    0    0 -0.16047649749E+02  0.17902968368E+02  0.15700565959E+02  0.96285001997E+02  0.91903484696E+02 0.  0.
         13    1    3    3    0    0  0.15465253950E+02  0.18631865942E+02  0.46365951574E+02  0.52308059968E+02  0.10566000000E+00 0. -1.
         22    1    1    0    0    0  0.16047649749E+02 -0.17902968368E+02 -0.15700565959E+02  0.28714998003E+02  0.00000000000E+00 0. -1.
</event>
<event>
 5    1  0.6835449E-004  0.9118800E+02  0.7818608E-02  0.1130116E+00
         25   -1    0    0    0    0  0.00000000000E+00  0.00000000000E+00  0.99999998245E-14  0.12500000000E+03  0.12500000000E+03 0.  0.
        -13    1    3    3    0    0  0.31748268465E+02 -0.10733455244E+02 -0.21507290534E+02  0.39821279765E+02  0.10566000000E+00 0.  1.
         23    2    1    0    0    0  0.93615342156E+01  0.12420411916E+02  0.24499266820E+02  0.95980712797E+02  0.91488677984E+02 0.  0.
         13    1    3    3    0    0 -0.22386734249E+02  0.23153867161E+02  0.46006557354E+02  0.56159433032E+02  0.10566000000E+00 0. -1.
         22    1    1    0    0    0 -0.93615342156E+01 -0.12420411916E+02 -0.24499266820E+02  0.29019287203E+02  0.00000000000E+00 0. -1.
</event>
<event>
 5    1  0.6835449E-004  0.9118800E+02  0.7818608E-02  0.1130116E+00
         25   -1    0    0    0    0  0.00000000000E+00  0.00000000000E+00  0.99999998245E-14  0.12500000000E+03  0.12500000000E+03 0.  0.
        -13    1    3    3    0    0 -0.66381967498E+01 -0.54159647570E+01  0.40587757996E+02  0.41482232263E+02  0.10566000000E+00 0.  1.
         23    2    1    0    0    0  0.31161333913E+02  0.89366108317E+01  0.20656224864E+02  0.86560809451E+02  0.77557735674E+02 0.  0.
         13    1    3    3    0    0  0.37799530663E+02  0.14352575589E+02 -0.19931533132E+02  0.45078577189E+02  0.10566000000E+00 0. -1.
         22    1    1    0    0    0 -0.31161333913E+02 -0.89366108317E+01 -0.20656224864E+02  0.38439190549E+02  0.00000000000E+00 0. -1.
</event>
<event>
 5    1  0.6835449E-004  0.9118800E+02  0.7818608E-02  0.1130116E+00
         25   -1    0    0    0    0  0.00000000000E+00  0.00000000000E+00  0.99999998245E-14  0.12500000000E+03  0.12500000000E+03 0.  0.
        -13    1    3    3    0    0 -0.24583233572E+02  0.41756097628E+02 -0.21424017759E+02  0.52980248801E+02  0.10566000000E+00 0.  1.
         23    2    1    0    0    0 -0.29138757403E+01  0.73083505427E+01 -0.29498556331E+02  0.94470219701E+02  0.89401090179E+02 0.  0.
         13    1    3    3    0    0  0.21669357832E+02 -0.34447747085E+02 -0.80745385723E+01  0.41489970900E+02  0.10566000000E+00 0. -1.
         22    1    1    0    0    0  0.29138757403E+01 -0.73083505427E+01  0.29498556331E+02  0.30529780299E+02  0.00000000000E+00 0.  1.
</event>
<event>
 5    1  0.6835449E-004  0.9118800E+02  0.7818608E-02  0.1130116E+00
         25   -1    0    0    0    0  0.00000000000E+00  0.00000000000E+00  0.99999998245E-14  0.12500000000E+03  0.12500000000E+03 0.  0.
        -13    1    3    3    0    0 -0.36912989181E+00  0.39423921760E+02 -0.41472013913E+02  0.57221682655E+02  0.10566000000E+00 0. -1.
         23    2    1    0    0    0 -0.12568586945E+02  0.27214333925E+02 -0.95016904038E+01  0.93553673199E+02  0.88110262170E+02 0.  0.
         13    1    3    3    0    0 -0.12199457053E+02 -0.12209587835E+02  0.31970323509E+02  0.36331990543E+02  0.10566000000E+00 0.  1.
         22    1    1    0    0    0  0.12568586945E+02 -0.27214333925E+02  0.95016904038E+01  0.31446326801E+02  0.00000000000E+00 0. -1.
</event>
<event>
 5    1  0.6835449E-004  0.9118800E+02  0.7818608E-02  0.1130116E+00
         25   -1    0    0    0    0  0.00000000000E+00  0.00000000000E+00  0.99999998245E-14  0.12500000000E+03  0.12500000000E+03 0.  0.
        -13    1    3    3    0    0  0.95239125506E+01  0.48618106982E+02  0.77478106760E+01  0.50144441079E+02  0.10566000000E+00 0. -1.
         23    2    1    0    0    0 -0.18860094581E+01  0.13971596086E+02 -0.23114111368E+02  0.97925571600E+02  0.94108410357E+02 0.  0.
         13    1    3    3    0    0 -0.11409922009E+02 -0.34646510896E+02 -0.30861922044E+02  0.47781130520E+02  0.10566000000E+00 0.  1.
         22    1    1    0    0    0  0.18860094581E+01 -0.13971596086E+02  0.23114111368E+02  0.27074428400E+02  0.00000000000E+00 0. -1.
</event>
<event>
 5    1  0.6835449E-004  0.9118800E+02  0.7818608E-02  0.1130116E+00
         25   -1    0    0    0    0  0.00000000000E+00  0.00000000000E+00  0.99999998245E-14  0.12500000000E+03  0.12500000000E+03 0.  0.
        -13    1    3    3    0    0  0.27799090658E+02 -0.40031993165E+02  0.13565561465E+02  0.50590370033E+02  0.10566000000E+00 0. -1.
         23    2    1    0    0    0 -0.10509213188E+02 -0.27792871405E+02 -0.49723482183E+01  0.94873408597E+02  0.89963059915E+02 0.  0.
         13    1    3    3    0    0 -0.38308303846E+02  0.12239121760E+02 -0.18537909684E+02  0.44283038564E+02  0.10566000000E+00 0.  1.
         22    1    1    0    0    0  0.10509213188E+02  0.27792871405E+02  0.49723482183E+01  0.30126591403E+02  0.00000000000E+00 0.  1.
</event>
<event>
 5    1  0.6835449E-004  0.9118800E+02  0.7818608E-02  0.1130116E+00
         25   -1    0    0    0    0  0.00000000000E+00  0.00000000000E+00  0.99999998245E-14  0.12500000000E+03  0.12500000000E+03 0.  0.
        -13    1    3    3    0    0 -0.22008438438E+02 -0.43541165600E+02  0.37058232097E+02  0.61266044385E+02  0.10566000000E+00 0.  1.
         23    2    1    0    0    0 -0.12436077350E+02 -0.14187867571E+02  0.23168612642E+02  0.95121308298E+02  0.90306849544E+02 0.  0.
         13    1    3    3    0    0  0.95723610884E+01  0.29353298030E+02 -0.13889619455E+02  0.33855263914E+02  0.10566000000E+00 0. -1.
         22    1    1    0    0    0  0.12436077350E+02  0.14187867571E+02 -0.23168612642E+02  0.29878691702E+02  0.00000000000E+00 0.  1.
</event>
<event>
 5    1  0.6835449E-004  0.9118800E+02  0.7818608E-02  0.1130116E+00
         25   -1    0    0    0    0  0.00000000000E+00  0.00000000000E+00  0.99999998245E-14  0.12500000000E+03  0.12500000000E+03 0.  0.
        -13    1    3    3    0    0  0.21212120654E+01  0.14951068707E+02 -0.45305916204E+02  0.47756373431E+02  0.10566000000E+00 0.  1.
         23    2    1    0    0    0  0.52385482553E+01 -0.23402617918E+02 -0.15293295430E+02  0.96556902449E+02  0.92272561535E+02 0.  0.
         13    1    3    3    0    0  0.31173361899E+01 -0.38353686625E+02  0.30012620775E+02  0.48800529018E+02  0.10566000000E+00 0. -1.
         22    1    1    0    0    0 -0.52385482553E+01  0.23402617918E+02  0.15293295430E+02  0.28443097551E+02  0.00000000000E+00 0. -1.
</event>
<event>
 5    1  0.6835449E-004  0.9118800E+02  0.7818608E-02  0.1130116E+00
         25   -1    0    0    0    0  0.00000000000E+00  0.00000000000E+00  0.99999998245E-14  0.12500000000E+03  0.12500000000E+03 0.  0.
        -13    1    3    3    0    0  0.59837379511E+01 -0.40856564934E+02 -0.32712148800E+02  0.52679786078E+02  0.10566000000E+00 0.  1.
         23    2    1    0    0    0  0.31573290769E+01  0.19503126968E+01 -0.29025606935E+02  0.95738108324E+02  0.91156607445E+02 0.  0.
         13    1    3    3    0    0 -0.28264088742E+01  0.42806877631E+02  0.36865418650E+01  0.43058322246E+02  0.10566000000E+00 0. -1.
         22    1    1    0    0    0 -0.31573290769E+01 -0.19503126968E+01  0.29025606935E+02  0.29261891676E+02  0.00000000000E+00 0.  1.
</event>
<event>
 5    1  0.6835449E-004  0.9118800E+02  0.7818608E-02  0.1130116E+00
         25   -1    0    0    0    0  0.00000000000E+00  0.00000000000E+00  0.99999998245E-14  0.12500000000E+03  0.12500000000E+03 0.  0.
        -13    1    3    3    0    0  0.24887347948E+02  0.36217866392E+02  0.18556584978E+02  0.47701907132E+02  0.10566000000E+00 0.  1.
         23    2    1    0    0    0  0.18579477422E+02 -0.11325138387E+02  0.19660551734E+02  0.95674362151E+02  0.91069152504E+02 0.  0.
         13    1    3    3    0    0 -0.63078705265E+01 -0.47543004779E+02  0.11039667559E+01  0.47972455020E+02  0.10566000000E+00 0. -1.
         22    1    1    0    0    0 -0.18579477422E+02  0.11325138387E+02 -0.19660551734E+02  0.29325637849E+02  0.00000000000E+00 0.  1.
</event>
<event>
 5    1  0.6835449E-004  0.9118800E+02  0.7818608E-02  0.1130116E+00
         25   -1    0    0    0    0  0.00000000000E+00  0.00000000000E+00  0.99999998245E-14  0.12500000000E+03  0.12500000000E+03 0.  0.
        -13    1    3    3    0    0 -0.18354575259E+02  0.31224064131E+02  0.37744753637E+02  0.52311664138E+02  0.10566000000E+00 0. -1.
         23    2    1    0    0    0 -0.23746299086E+02  0.16140529050E+02 -0.30378018974E+01  0.96127320203E+02  0.91688767309E+02 0.  0.
         13    1    3    3    0    0 -0.53917238278E+01 -0.15083535081E+02 -0.40782555535E+02  0.43815656064E+02  0.10566000000E+00 0.  1.
         22    1    1    0    0    0  0.23746299086E+02 -0.16140529050E+02  0.30378018974E+01  0.28872679797E+02  0.00000000000E+00 0. -1.
</event>
<event>
 5    1  0.6835449E-004  0.9118800E+02  0.7818608E-02  0.1130116E+00
         25   -1    0    0    0    0  0.00000000000E+00  0.00000000000E+00  0.99999998245E-14  0.12500000000E+03  0.12500000000E+03 0.  0.
        -13    1    3    3    0    0  0.22928972101E+02  0.67046125398E+01  0.21175867743E+02  0.31923629644E+02  0.10566000000E+00 0.  1.
         23    2    1    0    0    0 -0.13114986147E+02 -0.19507540779E+02 -0.21144388100E+02  0.93383040042E+02  0.87867855388E+02 0.  0.
         13    1    3    3    0    0 -0.36043958248E+02 -0.26212153319E+02 -0.42320255843E+02  0.61459410398E+02  0.10566000000E+00 0. -1.
         22    1    1    0    0    0  0.13114986147E+02  0.19507540779E+02  0.21144388100E+02  0.31616959958E+02  0.00000000000E+00 0. -1.
</event>
<event>
 5    1  0.6835449E-004  0.9118800E+02  0.7818608E-02  0.1130116E+00
         25   -1    0    0    0    0  0.00000000000E+00  0.00000000000E+00  0.99999998245E-14  0.12500000000E+03  0.12500000000E+03 0.  0.
        -13    1    3    3    0    0  0.20009510722E+02 -0.79430303863E+01  0.43717544867E+02  0.48730966995E+02  0.10566000000E+00 0. -1.
         23    2    1    0    0    0  0.26133243569E+02 -0.88253706698E+01 -0.42458943739E+01  0.97091915044E+02  0.92994509305E+02 0.  0.
         13    1    3    3    0    0  0.61237328469E+01 -0.88234028343E+00 -0.47963439240E+02  0.48360948049E+02  0.10566000000E+00 0.  1.
         22    1    1    0    0    0 -0.26133243569E+02  0.88253706698E+01  0.42458943739E+01  0.27908084956E+02  0.00000000000E+00 0. -1.
</event>
<event>
 5    1  0.6835449E-004  0.9118800E+02  0.7818608E-02  0.1130116E+00
         25   -1    0    0    0    0  0.00000000000E+00  0.00000000000E+00  0.99999998245E-14  0.12500000000E+03  0.12500000000E+03 0.  0.
        -13    1    3    3    0    0 -0.30165992346E+02 -0.54198719133E+01  0.50786704393E+02  0.59318315998E+02  0.10566000000E+00 0.  1.
         23    2    1    0    0    0 -0.56848300216E+01  0.77763832682E+01  0.28369873709E+02  0.95039373115E+02  0.90193366046E+02 0.  0.
         13    1    3    3    0    0  0.24481162324E+02  0.13196255182E+02 -0.22416830684E+02  0.35721057116E+02  0.10566000000E+00 0. -1.
         22    1    1    0    0    0  0.56848300216E+01 -0.77763832682E+01 -0.28369873709E+02  0.29960626885E+02  0.00000000000E+00 0.  1.
</event>
<event>
 5    1  0.6835449E-004  0.9118800E+02  0.7818608E-02  0.1130116E+00
         25   -1    0    0    0    0  0.00000000000E+00  0.00000000000E+00  0.99999998245E-14  0.12500000000E+03  0.12500000000E+03 0.  0.
        -13    1    3    3    0    0 -0.12771064761E+02  0.21744913789E+02 -0.22769883324E+02  0.33976758549E+02  0.10566000000E+00 0.  1.
         23    2    1    0    0    0  0.12664306610E+02 -0.25480960396E+02  0.75070738015E+01  0.95571779502E+02  0.90928240253E+02 0.  0.
         13    1    3    3    0    0  0.25435371371E+02 -0.47225874186E+02  0.30276957126E+02  0.61595020953E+02  0.10566000000E+00 0. -1.
         22    1    1    0    0    0 -0.12664306610E+02  0.25480960396E+02 -0.75070738015E+01  0.29428220498E+02  0.00000000000E+00 0. -1.
</event>
<event>
 5    1  0.6835449E-004  0.9118800E+02  0.7818608E-02  0.1130116E+00
         25   -1    0    0    0    0  0.00000000000E+00  0.00000000000E+00  0.99999998245E-14  0.12500000000E+03  0.12500000000E+03 0.  0.
        -13    1    3    3    0    0  0.15348876290E+02 -0.27360108317E+02 -0.19068725102E+02  0.36712272764E+02  0.10566000000E+00 0.  1.
         23    2    1    0    0    0 -0.13956741843E+02 -0.12947267408E+01  0.25389888097E+02  0.95998045277E+02  0.91512356101E+02 0.  0.
         13    1    3    3    0    0 -0.29305618133E+02  0.26065381576E+02  0.44458613198E+02  0.59285772513E+02  0.10566000000E+00 0. -1.
         22    1    1    0    0    0  0.13956741843E+02  0.12947267408E+01 -0.25389888097E+02  0.29001954723E+02  0.00000000000E+00 0. -1.
</event>
<event>
 5    1  0.6835449E-004  0.9118800E+02  0.7818608E-02  0.1130116E+00
         25   -1    0    0    0    0  0.00000000000E+00  0.00000000000E+00  0.99999998245E-14  0.12500000000E+03  0.12500000000E+03 0.  0.
        -13    1    3    3    0    0 -0.34946615606E+02  0.10526599621E+02 -0.28475691375E+01  0.36608674599E+02  0.10566000000E+00 0.  1.
         23    2    1    0    0    0  0.25166303442E+02  0.62602486198E+01 -0.98090488934E+01  0.97273641027E+02  0.93238459107E+02 0.  0.
         13    1    3    3    0    0  0.60112919047E+02 -0.42663510016E+01 -0.69614797560E+01  0.60664966428E+02  0.10566000000E+00 0. -1.
         22    1    1    0    0    0 -0.25166303442E+02 -0.62602486198E+01  0.98090488934E+01  0.27726358973E+02  0.00000000000E+00 0. -1.
</event>
<event>
 5    1  0.6835449E-004  0.9118800E+02  0.7818608E-02  0.1130116E+00
         25   -1    0    0    0    0  0.00000000000E+00  0.00000000000E+00  0.99999998245E-14  0.12500000000E+03  0.12500000000E+03 0.  0.
        -13    1    3    3    0    0 -0.22674240884E+02  0.37292452030E+02 -0.17170010550E+02  0.46900624776E+02  0.10566000000E+00 0.  1.
         23    2    1    0    0    0  0.15789607961E+02  0.11736987298E+02 -0.24414417716E+02  0.93645058080E+02  0.88239812556E+02 0.  0.
         13    1    3    3    0    0  0.38463848845E+02 -0.25555464732E+02 -0.72444071665E+01  0.46744433304E+02  0.10566000000E+00 0. -1.
         22    1    1    0    0    0 -0.15789607961E+02 -0.11736987298E+02  0.24414417716E+02  0.31354941920E+02  0.00000000000E+00 0. -1.
</event>
<event>
 5    1  0.6835449E-004  0.9118800E+02  0.7818608E-02  0.1130116E+00
         25   -1    0    0    0    0  0.00000000000E+00  0.00000000000E+00  0.99999998245E-14  0.12500000000E+03  0.12500000000E+03 0.  0.
        -13    1    3    3    0    0 -0.18859163803E+02  0.25525618483E+02  0.36594514437E+02  0.48439600630E+02  0.10566000000E+00 0. -1.
         23    2    1    0    0    0  0.12438787374E+01  0.30696674873E+02 -0.39856652687E+01  0.94020674472E+02  0.88770313832E+02 0.  0.
         13    1    3    3    0    0  0.20103042541E+02  0.51710563899E+01 -0.40580179705E+02  0.45581073842E+02  0.10566000000E+00 0.  1.
         22    1    1    0    0    0 -0.12438787374E+01 -0.30696674873E+02  0.39856652687E+01  0.30979325528E+02  0.00000000000E+00 0. -1.
</event>
<event>
 5    1  0.6835449E-004  0.9118800E+02  0.7818608E-02  0.1130116E+00
         25   -1    0    0    0    0  0.00000000000E+00  0.00000000000E+00  0.99999998245E-14  0.12500000000E+03  0.12500000000E+03 0.  0.
        -13    1    3    3    0    0  0.23346131409E+02  0.52422378333E+02 -0.66984490668E+01  0.57775669497E+02  0.10566000000E+00 0.  1.
         23    2    1    0    0    0  0.21947030493E+02  0.17596328642E+02  0.82274107693E+01  0.95691413935E+02  0.91092554491E+02 0.  0.
         13    1    3    3    0    0 -0.13991009155E+01 -0.34826049691E+02  0.14925859836E+02  0.37915744438E+02  0.10566000000E+00 0. -1.
         22    1    1    0    0    0 -0.21947030493E+02 -0.17596328642E+02 -0.82274107693E+01  0.29308586065E+02  0.00000000000E+00 0.  1.
</event>
<event>
 5    1  0.6835449E-004  0.9118800E+02  0.7818608E-02  0.1130116E+00
         25   -1    0    0    0    0  0.00000000000E+00  0.00000000000E+00  0.99999998245E-14  0.12500000000E+03  0.12500000000E+03 0.  0.
        -13    1    3    3    0    0 -0.43615222579E+02 -0.29415181042E+02  0.31267686745E+02  0.61198201892E+02  0.10566000000E+00 0. -1.
         23    2    1    0    0    0 -0.19520962753E+02 -0.82655254385E+01  0.21719544675E+02  0.94649950273E+02  0.89652036051E+02 0.  0.
         13    1    3    3    0    0  0.24094259826E+02  0.21149655604E+02 -0.95481420703E+01  0.33451748381E+02  0.10566000000E+00 0.  1.
         22    1    1    0    0    0  0.19520962753E+02  0.82655254385E+01 -0.21719544675E+02  0.30350049727E+02  0.00000000000E+00 0. -1.
</event>
<event>
 5    1  0.6835449E-004  0.9118800E+02  0.7818608E-02  0.1130116E+00
         25   -1    0    0    0    0  0.00000000000E+00  0.00000000000E+00  0.99999998245E-14  0.12500000000E+03  0.12500000000E+03 0.  0.
        -13    1    3    3    0    0 -0.25684349425E+01 -0.92118189827E+01 -0.30543207840E+02  0.32005517902E+02  0.10566000000E+00 0. -1.
         23    2    1    0    0    0 -0.30484786198E+02  0.67789365359E+01  0.17024713809E+02  0.89431516052E+02  0.82054122462E+02 0.  0.
         13    1    3    3    0    0 -0.27916351255E+02  0.15990755519E+02  0.47567921649E+02  0.57425998150E+02  0.10566000000E+00 0.  1.
         22    1    1    0    0    0  0.30484786198E+02 -0.67789365359E+01 -0.17024713809E+02  0.35568483948E+02  0.00000000000E+00 0.  1.
</event>
<event>
 5    1  0.6835449E-004  0.9118800E+02  0.7818608E-02  0.1130116E+00
         25   -1    0    0    0    0  0.00000000000E+00  0.00000000000E+00  0.99999998245E-14  0.12500000000E+03  0.12500000000E+03 0.  0.
        -13    1    3    3    0    0  0.21916403899E+02 -0.15314468616E+02 -0.20904653194E+02  0.33939319352E+02  0.10566000000E+00 0.  1.
         23    2    1    0    0    0 -0.25506328017E+02  0.68981524762E+01  0.12204078701E+02  0.95895072352E+02  0.91371593441E+02 0.  0.
         13    1    3    3    0    0 -0.47422731915E+02  0.22212621092E+02  0.33108731895E+02  0.61955753000E+02  0.10566000000E+00 0. -1.
         22    1    1    0    0    0  0.25506328017E+02 -0.68981524762E+01 -0.12204078701E+02  0.29104927648E+02  0.00000000000E+00 0. -1.
</event>
<event>
 5    1  0.6835449E-004  0.9118800E+02  0.7818608E-02  0.1130116E+00
         25   -1    0    0    0    0  0.00000000000E+00  0.00000000000E+00  0.99999998245E-14  0.12500000000E+03  0.12500000000E+03 0.  0.
        -13    1    3    3    0    0 -0.28585511807E+02  0.17133846681E+02  0.33242107081E+02  0.47071743484E+02  0.10566000000E+00 0. -1.
         23    2    1    0    0    0  0.13191359176E+01  0.30213406699E+02 -0.14734094651E+01  0.94721938645E+02  0.89752351843E+02 0.  0.
         13    1    3    3    0    0  0.29904647725E+02  0.13079560018E+02 -0.34715516546E+02  0.47650195162E+02  0.10566000000E+00 0.  1.
         22    1    1    0    0    0 -0.13191359176E+01 -0.30213406699E+02  0.14734094651E+01  0.30278061355E+02  0.00000000000E+00 0.  1.
</event>
<event>
 5    1  0.6835449E-004  0.9118800E+02  0.7818608E-02  0.1130116E+00
         25   -1    0    0    0    0  0.00000000000E+00  0.00000000000E+00  0.99999998245E-14  0.12500000000E+03  0.12500000000E+03 0.  0.
        -13    1    3    3    0    0 -0.20632228877E+02  0.20309114854E+02 -0.38401926132E+02  0.48092287420E+02  0.10566000000E+00 0. -1.
         23    2    1    0    0    0  0.19543957626E+02  0.34819246304E+01 -0.23744409990E+02  0.94050249039E+02  0.88811948856E+02 0.  0.
         13    1    3    3    0    0  0.40176186502E+02 -0.16827190224E+02  0.14657516142E+02  0.45957961619E+02  0.10566000000E+00 0.  1.
         22    1    1    0    0    0 -0.19543957626E+02 -0.34819246304E+01  0.23744409990E+02  0.30949750961E+02  0.00000000000E+00 0. -1.
</event>
<event>
 5    1  0.6835449E-004  0.9118800E+02  0.7818608E-02  0.1130116E+00
         25   -1    0    0    0    0  0.00000000000E+00  0.00000000000E+00  0.99999998245E-14  0.12500000000E+03  0.12500000000E+03 0.  0.
        -13    1    3    3    0    0  0.31125999355E+02  0.71148061124E+01 -0.18708806385E+02  0.37006471086E+02  0.10566000000E+00 0.  1.
         23    2    1    0    0    0 -0.95898592025E+01  0.14274232783E+02  0.23363187304E+02  0.95990387075E+02  0.91501894891E+02 0.  0.
         13    1    3    3    0    0 -0.40715858558E+02  0.71594266706E+01  0.42071993689E+02  0.58983915988E+02  0.10566000000E+00 0. -1.
         22    1    1    0    0    0  0.95898592025E+01 -0.14274232783E+02 -0.23363187304E+02  0.29009612925E+02  0.00000000000E+00 0. -1.
</event>
<event>
 5    1  0.6835449E-004  0.9118800E+02  0.7818608E-02  0.1130116E+00
         25   -1    0    0    0    0  0.00000000000E+00  0.00000000000E+00  0.99999998245E-14  0.12500000000E+03  0.12500000000E+03 0.  0.
        -13    1    3    3    0    0  0.60858440147E+01 -0.62534853344E+01 -0.59118087250E+02  0.59758706314E+02  0.10566000000E+00 0.  1.
         23    2    1    0    0    0 -0.80782763306E+01  0.44250213840E+01 -0.27307645540E+02  0.96180789954E+02  0.91761634077E+02 0.  0.
         13    1    3    3    0    0 -0.14164120345E+02  0.10678506718E+02  0.31810441710E+02  0.36422083640E+02  0.10566000000E+00 0. -1.
         22    1    1    0    0    0  0.80782763306E+01 -0.44250213840E+01  0.27307645540E+02  0.28819210046E+02  0.00000000000E+00 0.  1.
</event>
<event>
 5    1  0.6835449E-004  0.9118800E+02  0.7818608E-02  0.1130116E+00
         25   -1    0    0    0    0  0.00000000000E+00  0.00000000000E+00  0.99999998245E-14  0.12500000000E+03  0.12500000000E+03 0.  0.
        -13    1    3    3    0    0 -0.39548714343E+02 -0.65464267065E+01  0.22471370080E+02  0.45955741166E+02  0.10566000000E+00 0. -1.
         23    2    1    0    0    0  0.88829045602E+01 -0.13959791400E+02  0.25003995463E+02  0.95016978830E+02  0.90162324213E+02 0.  0.
         13    1    3    3    0    0  0.48431618903E+02 -0.74133646939E+01  0.25326253832E+01  0.49061237663E+02  0.10566000000E+00 0.  1.
         22    1    1    0    0    0 -0.88829045602E+01  0.13959791400E+02 -0.25003995463E+02  0.29983021170E+02  0.00000000000E+00 0. -1.
</event>
<event>
 5    1  0.6835449E-004  0.9118800E+02  0.7818608E-02  0.1130116E+00
         25   -1    0    0    0    0  0.00000000000E+00  0.00000000000E+00  0.99999998245E-14  0.12500000000E+03  0.12500000000E+03 0.  0.
        -13    1    3    3    0    0 -0.42715910905E+02 -0.31544157164E+02 -0.10825309194E+02  0.54193001197E+02  0.10566000000E+00 0. -1.
         23    2    1    0    0    0 -0.24475944408E+02  0.24554316950E+01  0.10473040541E+02  0.98264525857E+02  0.94557556358E+02 0.  0.
         13    1    3    3    0    0  0.18239966497E+02  0.33999588859E+02  0.21298349734E+02  0.44071524660E+02  0.10566000000E+00 0.  1.
         22    1    1    0    0    0  0.24475944408E+02 -0.24554316950E+01 -0.10473040541E+02  0.26735474143E+02  0.00000000000E+00 0. -1.
</event>
<event>
 5    1  0.6835449E-004  0.9118800E+02  0.7818608E-02  0.1130116E+00
         25   -1    0    0    0    0  0.00000000000E+00  0.00000000000E+00  0.99999998245E-14  0.12500000000E+03  0.12500000000E+03 0.  0.
        -13    1    3    3    0    0  0.75496600827E+01 -0.26623852657E+02 -0.51843692870E+02  0.58767393613E+02  0.10566000000E+00 0.  1.
         23    2    1    0    0    0  0.13108576880E+02 -0.20845073196E+02 -0.15685093938E+02  0.95804554530E+02  0.91247677408E+02 0.  0.
         13    1    3    3    0    0  0.55589167971E+01  0.57787794608E+01  0.36158598932E+02  0.37037160917E+02  0.10566000000E+00 0. -1.
         22    1    1    0    0    0 -0.13108576880E+02  0.20845073196E+02  0.15685093938E+02  0.29195445470E+02  0.00000000000E+00 0.  1.
</event>
<event>
 5    1  0.6835449E-004  0.9118800E+02  0.7818608E-02  0.1130116E+00
         25   -1    0    0    0    0  0.00000000000E+00  0.00000000000E+00  0.99999998245E-14  0.12500000000E+03  0.12500000000E+03 0.  0.
        -13    1    3    3    0    0 -0.45373374225E+02 -0.20667577807E+02 -0.37636870734E+01  0.50000683649E+02  0.10566000000E+00 0. -1.
         23    2    1    0    0    0 -0.50775662780E+00 -0.18988821037E+02 -0.19691735228E+02  0.97639488721E+02  0.93727648963E+02 0.  0.
         13    1    3    3    0    0  0.44865617597E+02  0.16787567698E+01 -0.15928048155E+02  0.47638805072E+02  0.10566000000E+00 0.  1.
         22    1    1    0    0    0  0.50775662780E+00  0.18988821037E+02  0.19691735228E+02  0.27360511279E+02  0.00000000000E+00 0. -1.
</event>
<event>
 5    1  0.6835449E-004  0.9118800E+02  0.7818608E-02  0.1130116E+00
         25   -1    0    0    0    0  0.00000000000E+00  0.00000000000E+00  0.99999998245E-14  0.12500000000E+03  0.12500000000E+03 0.  0.
        -13    1    3    3    0    0  0.35532583373E+02  0.79256139347E+01  0.35974179171E+02  0.51181369349E+02  0.10566000000E+00 0.  1.
         23    2    1    0    0    0  0.27456508741E+02 -0.10899089011E+02 -0.30977788045E+01  0.95297369694E+02  0.90550220450E+02 0.  0.
         13    1    3    3    0    0 -0.80760746311E+01 -0.18824702946E+02 -0.39071957975E+02  0.44116000346E+02  0.10566000000E+00 0. -1.
         22    1    1    0    0    0 -0.27456508741E+02  0.10899089011E+02  0.30977788045E+01  0.29702630306E+02  0.00000000000E+00 0.  1.
</event>
<event>
 5    1  0.6835449E-004  0.9118800E+02  0.7818608E-02  0.1130116E+00
         25   -1    0    0    0    0  0.00000000000E+00  0.00000000000E+00  0.99999998245E-14  0.12500000000E+03  0.12500000000E+03 0.  0.
        -13    1    3    3    0    0 -0.26342835823E+02 -0.48245538065E+02  0.17492516045E+02  0.57685147343E+02  0.10566000000E+00 0. -1.
         23    2    1    0    0    0 -0.22227441713E+02 -0.18955330996E+02 -0.56565346101E+01  0.95244998369E+02  0.90477895600E+02 0.  0.
         13    1    3    3    0    0  0.41153941102E+01  0.29290207069E+02 -0.23149050655E+02  0.37559851026E+02  0.10566000000E+00 0.  1.
         22    1    1    0    0    0  0.22227441713E+02  0.18955330996E+02  0.56565346101E+01  0.29755001631E+02  0.00000000000E+00 0. -1.
</event>
<event>
 5    1  0.6835449E-004  0.9118800E+02  0.7818608E-02  0.1130116E+00
         25   -1    0    0    0    0  0.00000000000E+00  0.00000000000E+00  0.99999998245E-14  0.12500000000E+03  0.12500000000E+03 0.  0.
        -13    1    3    3    0    0 -0.76205879611E+01  0.32788238815E+02  0.25045550951E+02  0.41957511269E+02  0.10566000000E+00 0.  1.
         23    2    1    0    0    0  0.18036083123E+02 -0.20580121966E+01  0.34284984806E+02  0.86205723466E+02  0.76983315508E+02 0.  0.
         13    1    3    3    0    0  0.25656671084E+02 -0.34846251011E+02  0.92394338555E+01  0.44248212197E+02  0.10566000000E+00 0. -1.
         22    1    1    0    0    0 -0.18036083123E+02  0.20580121966E+01 -0.34284984806E+02  0.38794276534E+02  0.00000000000E+00 0.  1.
</event>
<event>
 5    1  0.6835449E-004  0.9118800E+02  0.7818608E-02  0.1130116E+00
         25   -1    0    0    0    0  0.00000000000E+00  0.00000000000E+00  0.99999998245E-14  0.12500000000E+03  0.12500000000E+03 0.  0.
        -13    1    3    3    0    0 -0.20720122164E+02  0.41667423624E+02 -0.31491837626E+02  0.56189364252E+02  0.10566000000E+00 0. -1.
         23    2    1    0    0    0 -0.15083576351E+02  0.40416491255E+01 -0.26058043317E+02  0.94621210941E+02  0.89611956430E+02 0.  0.
         13    1    3    3    0    0  0.56365458135E+01 -0.37625774498E+02  0.54337943088E+01  0.38431846689E+02  0.10566000000E+00 0.  1.
         22    1    1    0    0    0  0.15083576351E+02 -0.40416491255E+01  0.26058043317E+02  0.30378789059E+02  0.00000000000E+00 0. -1.
</event>
<event>
 5    1  0.6835449E-004  0.9118800E+02  0.7818608E-02  0.1130116E+00
         25   -1    0    0    0    0  0.00000000000E+00  0.00000000000E+00  0.99999998245E-14  0.12500000000E+03  0.12500000000E+03 0.  0.
        -13    1    3    3    0    0  0.13295673732E+02 -0.15496723356E+02  0.55495087190E+02  0.59132387412E+02  0.10566000000E+00 0.  1.
         23    2    1    0    0    0  0.41443664660E+01  0.68301438969E+01  0.28780526917E+02  0.95131197401E+02  0.90320536703E+02 0.  0.
         13    1    3    3    0    0 -0.91513072660E+01  0.22326867253E+02 -0.26714560273E+02  0.35998809989E+02  0.10566000000E+00 0. -1.
         22    1    1    0    0    0 -0.41443664660E+01 -0.68301438969E+01 -0.28780526917E+02  0.29868802599E+02  0.00000000000E+00 0.  1.
</event>
<event>
 5    1  0.6835449E-004  0.9118800E+02  0.7818608E-02  0.1130116E+00
         25   -1    0    0    0    0  0.00000000000E+00  0.00000000000E+00  0.99999998245E-14  0.12500000000E+03  0.12500000000E+03 0.  0.
        -13    1    3    3    0    0 -0.22620139936E+02  0.64266437105E+01 -0.28232221563E+02  0.36742917392E+02  0.10566000000E+00 0.  1.
         23    2    1    0    0    0  0.23103691665E+02 -0.19756602693E+02 -0.15160545899E+02  0.91030218275E+02  0.84454452628E+02 0.  0.
         13    1    3    3    0    0  0.45723831600E+02 -0.26183246403E+02  0.13071675664E+02  0.54287300883E+02  0.10566000000E+00 0. -1.
         22    1    1    0    0    0 -0.23103691665E+02  0.19756602693E+02  0.15160545899E+02  0.33969781725E+02  0.00000000000E+00 0. -1.
</event>
<event>
 5    1  0.6835449E-004  0.9118800E+02  0.7818608E-02  0.1130116E+00
         25   -1    0    0    0    0  0.00000000000E+00  0.00000000000E+00  0.99999998245E-14  0.12500000000E+03  0.12500000000E+03 0.  0.
        -13    1    3    3    0    0  0.32561626097E+02 -0.75752389906E+01  0.98214356182E+01  0.34844160221E+02  0.10566000000E+00 0.  1.
         23    2    1    0    0    0 -0.19600243600E+02  0.59783498989E+01 -0.19938399376E+02  0.96408917713E+02  0.92071870993E+02 0.  0.
         13    1    3    3    0    0 -0.52161869698E+02  0.13553588890E+02 -0.29759834994E+02  0.61564757492E+02  0.10566000000E+00 0. -1.
         22    1    1    0    0    0  0.19600243600E+02 -0.59783498989E+01  0.19938399376E+02  0.28591082287E+02  0.00000000000E+00 0. -1.
</event>
<event>
 5    1  0.6835449E-004  0.9118800E+02  0.7818608E-02  0.1130116E+00
         25   -1    0    0    0    0  0.00000000000E+00  0.00000000000E+00  0.99999998245E-14  0.12500000000E+03  0.12500000000E+03 0.  0.
        -13    1    3    3    0    0  0.31695526670E+01  0.31061402604E+02  0.23463873741E+02  0.39056642595E+02  0.10566000000E+00 0.  1.
         23    2    1    0    0    0  0.16168650407E+02  0.59180247905E+01 -0.24681719900E+02  0.94906220400E+02  0.90008639030E+02 0.  0.
         13    1    3    3    0    0  0.12999097740E+02 -0.25143377814E+02 -0.48145593641E+02  0.55849577805E+02  0.10566000000E+00 0. -1.
         22    1    1    0    0    0 -0.16168650407E+02 -0.59180247905E+01  0.24681719900E+02  0.30093779600E+02  0.00000000000E+00 0. -1.
</event>
<event>
 5    1  0.6835449E-004  0.9118800E+02  0.7818608E-02  0.1130116E+00
         25   -1    0    0    0    0  0.00000000000E+00  0.00000000000E+00  0.99999998245E-14  0.12500000000E+03  0.12500000000E+03 0.  0.
        -13    1    3    3    0    0  0.11568320417E+02 -0.26909902234E+02 -0.25704220781E+02  0.38970334943E+02  0.10566000000E+00 0. -1.
         23    2    1    0    0    0  0.88310563802E+01  0.26764371281E+02 -0.62136886746E+01  0.96139489717E+02  0.91705356600E+02 0.  0.
         13    1    3    3    0    0 -0.27372640373E+01  0.53674273515E+02  0.19490532107E+02  0.57169154774E+02  0.10566000000E+00 0.  1.
         22    1    1    0    0    0 -0.88310563802E+01 -0.26764371281E+02  0.62136886746E+01  0.28860510283E+02  0.00000000000E+00 0.  1.
</event>
<event>
 5    1  0.6835449E-004  0.9118800E+02  0.7818608E-02  0.1130116E+00
         25   -1    0    0    0    0  0.00000000000E+00  0.00000000000E+00  0.99999998245E-14  0.12500000000E+03  0.12500000000E+03 0.  0.
        -13    1    3    3    0    0 -0.18176151477E+02  0.46235690250E+02  0.92193865816E+01  0.50528405758E+02  0.10566000000E+00 0.  1.
         23    2    1    0    0    0 -0.28653478861E+02  0.91650695171E+01 -0.96260401919E+01  0.93413911292E+02  0.87911761574E+02 0.  0.
         13    1    3    3    0    0 -0.10477327384E+02 -0.37070620733E+02 -0.18845426773E+02  0.42885505535E+02  0.10566000000E+00 0. -1.
         22    1    1    0    0    0  0.28653478861E+02 -0.91650695171E+01  0.96260401919E+01  0.31586088708E+02  0.00000000000E+00 0.  1.
</event>
<event>
 5    1  0.6835449E-004  0.9118800E+02  0.7818608E-02  0.1130116E+00
         25   -1    0    0    0    0  0.00000000000E+00  0.00000000000E+00  0.99999998245E-14  0.12500000000E+03  0.12500000000E+03 0.  0.
        -13    1    3    3    0    0  0.37568881551E+01  0.12458923938E+02 -0.27494264882E+02  0.30418493713E+02  0.10566000000E+00 0.  1.
         23    2    1    0    0    0 -0.39371037349E+02 -0.11488596480E+02 -0.97445619463E+01  0.82845250344E+02  0.71318388835E+02 0.  0.
         13    1    3    3    0    0 -0.43127925504E+02 -0.23947520418E+02  0.17749702936E+02  0.52426756631E+02  0.10566000000E+00 0. -1.
         22    1    1    0    0    0  0.39371037349E+02  0.11488596480E+02  0.97445619463E+01  0.42154749656E+02  0.00000000000E+00 0. -1.
</event>
<event>
 5    1  0.6835449E-004  0.9118800E+02  0.7818608E-02  0.1130116E+00
         25   -1    0    0    0    0  0.00000000000E+00  0.00000000000E+00  0.99999998245E-14  0.12500000000E+03  0.12500000000E+03 0.  0.
        -13    1    3    3    0    0 -0.46983734687E+02  0.19368455039E+02 -0.20327366257E+02  0.54734096857E+02  0.10566000000E+00 0. -1.
         23    2    1    0    0    0 -0.99701247025E+01  0.26818760092E+02 -0.14453923558E+02  0.92944342376E+02  0.87241535945E+02 0.  0.
         13    1    3    3    0    0  0.37013609985E+02  0.74503050533E+01  0.58734426990E+01  0.38210245520E+02  0.10566000000E+00 0.  1.
         22    1    1    0    0    0  0.99701247025E+01 -0.26818760092E+02  0.14453923558E+02  0.32055657624E+02  0.00000000000E+00 0. -1.
</event>
<event>
 5    1  0.6835449E-004  0.9118800E+02  0.7818608E-02  0.1130116E+00
         25   -1    0    0    0    0  0.00000000000E+00  0.00000000000E+00  0.99999998245E-14  0.12500000000E+03  0.12500000000E+03 0.  0.
        -13    1    3    3    0    0 -0.17768749158E+02  0.12493772366E+02  0.34453193474E+02  0.40729062096E+02  0.10566000000E+00 0.  1.
         23    2    1    0    0    0 -0.15999114037E+02 -0.17289511878E+02 -0.13974939031E+02  0.97610261194E+02  0.93688661525E+02 0.  0.
         13    1    3    3    0    0  0.17696351203E+01 -0.29783284244E+02 -0.48428132506E+02  0.56881199098E+02  0.10566000000E+00 0. -1.
         22    1    1    0    0    0  0.15999114037E+02  0.17289511878E+02  0.13974939031E+02  0.27389738806E+02  0.00000000000E+00 0. -1.
</event>
<event>
 5    1  0.6835449E-004  0.9118800E+02  0.7818608E-02  0.1130116E+00
         25   -1    0    0    0    0  0.00000000000E+00  0.00000000000E+00  0.99999998245E-14  0.12500000000E+03  0.12500000000E+03 0.  0.
        -13    1    3    3    0    0 -0.35795068485E+02  0.21055527011E+02  0.90216354068E+00  0.41538502725E+02  0.10566000000E+00 0. -1.
         23    2    1    0    0    0  0.19566126735E+02  0.19945958256E+02  0.26145132305E+01  0.96937387050E+02  0.92786565636E+02 0.  0.
         13    1    3    3    0    0  0.55361195220E+02 -0.11095687550E+01  0.17123496898E+01  0.55398884325E+02  0.10566000000E+00 0.  1.
         22    1    1    0    0    0 -0.19566126735E+02 -0.19945958256E+02 -0.26145132305E+01  0.28062612950E+02  0.00000000000E+00 0.  1.
</event>
<event>
 5    1  0.6835449E-004  0.9118800E+02  0.7818608E-02  0.1130116E+00
         25   -1    0    0    0    0  0.00000000000E+00  0.00000000000E+00  0.99999998245E-14  0.12500000000E+03  0.12500000000E+03 0.  0.
        -13    1    3    3    0    0  0.39487203945E+02 -0.89929438443E+01 -0.44283884686E+02  0.60009881864E+02  0.10566000000E+00 0. -1.
         23    2    1    0    0    0  0.10857121612E+02 -0.10007858721E+02 -0.28945226547E+02  0.92505993388E+02  0.86611190657E+02 0.  0.
         13    1    3    3    0    0 -0.28630082333E+02 -0.10149148762E+01  0.15338658140E+02  0.32496111524E+02  0.10566000000E+00 0.  1.
         22    1    1    0    0    0 -0.10857121612E+02  0.10007858721E+02  0.28945226547E+02  0.32494006612E+02  0.00000000000E+00 0. -1.
</event>
<event>
 5    1  0.6835449E-004  0.9118800E+02  0.7818608E-02  0.1130116E+00
         25   -1    0    0    0    0  0.00000000000E+00  0.00000000000E+00  0.99999998245E-14  0.12500000000E+03  0.12500000000E+03 0.  0.
        -13    1    3    3    0    0 -0.38965638166E+02 -0.16224751604E+02  0.10693338913E+02  0.43542188546E+02  0.10566000000E+00 0.  1.
         23    2    1    0    0    0  0.51166830019E+01  0.13054910447E+01 -0.22788480702E+02  0.10160770203E+03  0.98878336891E+02 0.  0.
         13    1    3    3    0    0  0.44082321168E+02  0.17530242648E+02 -0.33481819615E+02  0.58065513479E+02  0.10566000000E+00 0. -1.
         22    1    1    0    0    0 -0.51166830019E+01 -0.13054910447E+01  0.22788480702E+02  0.23392297974E+02  0.00000000000E+00 0. -1.
</event>
<event>
 5    1  0.6835449E-004  0.9118800E+02  0.7818608E-02  0.1130116E+00
         25   -1    0    0    0    0  0.00000000000E+00  0.00000000000E+00  0.99999998245E-14  0.12500000000E+03  0.12500000000E+03 0.  0.
        -13    1    3    3    0    0 -0.32637990046E+01  0.22418728091E+02  0.36775206919E+02  0.43193503691E+02  0.10566000000E+00 0.  1.
         23    2    1    0    0    0  0.15901730749E+02  0.19093996013E+02 -0.13230062238E+02  0.96848973884E+02  0.92667380836E+02 0.  0.
         13    1    3    3    0    0  0.19165529753E+02 -0.33247320773E+01 -0.50005269157E+02  0.53655470193E+02  0.10566000000E+00 0. -1.
         22    1    1    0    0    0 -0.15901730749E+02 -0.19093996013E+02  0.13230062238E+02  0.28151026116E+02  0.00000000000E+00 0. -1.
</event>
<event>
 5    1  0.6835449E-004  0.9118800E+02  0.7818608E-02  0.1130116E+00
         25   -1    0    0    0    0  0.00000000000E+00  0.00000000000E+00  0.99999998245E-14  0.12500000000E+03  0.12500000000E+03 0.  0.
        -13    1    3    3    0    0  0.54980644433E+01  0.54868130659E+02 -0.27315490846E+02  0.61537693155E+02  0.10566000000E+00 0. -1.
         23    2    1    0    0    0  0.96893146246E+00  0.28419440055E+02 -0.56914919035E+01  0.96000060668E+02  0.91515108954E+02 0.  0.
         13    1    3    3    0    0 -0.45291329808E+01 -0.26448690605E+02  0.21623998943E+02  0.34462367512E+02  0.10566000000E+00 0.  1.
         22    1    1    0    0    0 -0.96893146246E+00 -0.28419440055E+02  0.56914919035E+01  0.28999939332E+02  0.00000000000E+00 0. -1.
</event>
<event>
 5    1  0.6835449E-004  0.9118800E+02  0.7818608E-02  0.1130116E+00
         25   -1    0    0    0    0  0.00000000000E+00  0.00000000000E+00  0.99999998245E-14  0.12500000000E+03  0.12500000000E+03 0.  0.
        -13    1    3    3    0    0 -0.24222576165E+02 -0.21993631994E+02 -0.12722329010E+02  0.35104442224E+02  0.10566000000E+00 0. -1.
         23    2    1    0    0    0  0.16147812908E+02  0.15376573515E+02 -0.25032228942E+02  0.91476823530E+02  0.85112900800E+02 0.  0.
         13    1    3    3    0    0  0.40370389074E+02  0.37370205509E+02 -0.12309899932E+02  0.56372381306E+02  0.10566000000E+00 0.  1.
         22    1    1    0    0    0 -0.16147812908E+02 -0.15376573515E+02  0.25032228942E+02  0.33523176470E+02  0.00000000000E+00 0.  1.
</event>
<event>
 5    1  0.6835449E-004  0.9118800E+02  0.7818608E-02  0.1130116E+00
         25   -1    0    0    0    0  0.00000000000E+00  0.00000000000E+00  0.99999998245E-14  0.12500000000E+03  0.12500000000E+03 0.  0.
        -13    1    3    3    0    0 -0.61100921733E+01 -0.38482175485E+02  0.14751077499E+02  0.41663131277E+02  0.10566000000E+00 0. -1.
         23    2    1    0    0    0  0.10909569494E+02  0.19088529299E+02  0.37767712387E+01  0.10269182530E+03  0.10023949484E+03 0.  0.
         13    1    3    3    0    0  0.17019661668E+02  0.57570704783E+02 -0.10974306261E+02  0.61028694025E+02  0.10566000000E+00 0.  1.
         22    1    1    0    0    0 -0.10909569494E+02 -0.19088529299E+02 -0.37767712387E+01  0.22308174697E+02  0.00000000000E+00 0.  1.
</event>
<event>
 5    1  0.6835449E-004  0.9118800E+02  0.7818608E-02  0.1130116E+00
         25   -1    0    0    0    0  0.00000000000E+00  0.00000000000E+00  0.99999998245E-14  0.12500000000E+03  0.12500000000E+03 0.  0.
        -13    1    3    3    0    0  0.20152888836E+02  0.23939944704E+02  0.30133769540E+02  0.43443240114E+02  0.10566000000E+00 0. -1.
         23    2    1    0    0    0 -0.19412585764E+02 -0.59575798087E+01  0.24232192999E+02  0.93384490819E+02  0.87869919226E+02 0.  0.
         13    1    3    3    0    0 -0.39565474600E+02 -0.29897524513E+02 -0.59015765408E+01  0.49941250706E+02  0.10566000000E+00 0.  1.
         22    1    1    0    0    0  0.19412585764E+02  0.59575798087E+01 -0.24232192999E+02  0.31615509181E+02  0.00000000000E+00 0.  1.
</event>
<event>
 5    1  0.6835449E-004  0.9118800E+02  0.7818608E-02  0.1130116E+00
         25   -1    0    0    0    0  0.00000000000E+00  0.00000000000E+00  0.99999998245E-14  0.12500000000E+03  0.12500000000E+03 0.  0.
        -13    1    3    3    0    0 -0.22185884267E+02  0.30022966983E+02  0.12237006975E+02  0.39285461826E+02  0.10566000000E+00 0. -1.
         23    2    1    0    0    0 -0.27189622308E+02 -0.18867957684E+01 -0.24605040513E+02  0.88281563512E+02  0.80283191752E+02 0.  0.
         13    1    3    3    0    0 -0.50037380409E+01 -0.31909762751E+02 -0.36842047488E+02  0.48996101685E+02  0.10566000000E+00 0.  1.
         22    1    1    0    0    0  0.27189622308E+02  0.18867957684E+01  0.24605040513E+02  0.36718436488E+02  0.00000000000E+00 0.  1.
</event>
<event>
 5    1  0.6835449E-004  0.9118800E+02  0.7818608E-02  0.1130116E+00
         25   -1    0    0    0    0  0.00000000000E+00  0.00000000000E+00  0.99999998245E-14  0.12500000000E+03  0.12500000000E+03 0.  0.
        -13    1    3    3    0    0 -0.36693906428E+02  0.22051339712E+02 -0.44058532125E+02  0.61431830260E+02  0.10566000000E+00 0. -1.
         23    2    1    0    0    0 -0.10887685870E+02  0.15432751561E+02 -0.21871847629E+02  0.96102089295E+02  0.91654363365E+02 0.  0.
         13    1    3    3    0    0  0.25806220558E+02 -0.66185881509E+01  0.22186684496E+02  0.34670259035E+02  0.10566000000E+00 0.  1.
         22    1    1    0    0    0  0.10887685870E+02 -0.15432751561E+02  0.21871847629E+02  0.28897910705E+02  0.00000000000E+00 0. -1.
</event>
<event>
 5    1  0.6835449E-004  0.9118800E+02  0.7818608E-02  0.1130116E+00
         25   -1    0    0    0    0  0.00000000000E+00  0.00000000000E+00  0.99999998245E-14  0.12500000000E+03  0.12500000000E+03 0.  0.
        -13    1    3    3    0    0 -0.74367612079E+01 -0.54946754420E+02  0.14970140931E+02  0.57433156993E+02  0.10566000000E+00 0. -1.
         23    2    1    0    0    0 -0.15116898860E+02 -0.20450878279E+02  0.19349859476E+02  0.93044153661E+02  0.87384428906E+02 0.  0.
         13    1    3    3    0    0 -0.76801376524E+01  0.34495876142E+02  0.43797185448E+01  0.35610996668E+02  0.10566000000E+00 0.  1.
         22    1    1    0    0    0  0.15116898860E+02  0.20450878279E+02 -0.19349859476E+02  0.31955846339E+02  0.00000000000E+00 0. -1.
</event>
<event>
 5    1  0.6835449E-004  0.9118800E+02  0.7818608E-02  0.1130116E+00
         25   -1    0    0    0    0  0.00000000000E+00  0.00000000000E+00  0.99999998245E-14  0.12500000000E+03  0.12500000000E+03 0.  0.
        -13    1    3    3    0    0  0.30078218260E+02 -0.54456514558E+01 -0.52651610606E+02  0.60881504555E+02  0.10566000000E+00 0.  1.
         23    2    1    0    0    0  0.66406059587E+01  0.31907606362E+01 -0.28265957301E+02  0.95789677456E+02  0.91227295061E+02 0.  0.
         13    1    3    3    0    0 -0.23437612301E+02  0.86364120920E+01  0.24385653304E+02  0.34908172901E+02  0.10566000000E+00 0. -1.
         22    1    1    0    0    0 -0.66406059587E+01 -0.31907606362E+01  0.28265957301E+02  0.29210322544E+02  0.00000000000E+00 0.  1.
</event>
<event>
 5    1  0.6835449E-004  0.9118800E+02  0.7818608E-02  0.1130116E+00
         25   -1    0    0    0    0  0.00000000000E+00  0.00000000000E+00  0.99999998245E-14  0.12500000000E+03  0.12500000000E+03 0.  0.
        -13    1    3    3    0    0 -0.51024590656E+02 -0.25468750470E+02  0.14134893443E+02  0.58753489077E+02  0.10566000000E+00 0. -1.
         23    2    1    0    0    0 -0.31016017698E+02 -0.28819010351E+01 -0.34198508792E+01  0.93663215106E+02  0.88265529946E+02 0.  0.
         13    1    3    3    0    0  0.20008572958E+02  0.22586849435E+02 -0.17554744322E+02  0.34909726029E+02  0.10566000000E+00 0.  1.
         22    1    1    0    0    0  0.31016017698E+02  0.28819010351E+01  0.34198508792E+01  0.31336784894E+02  0.00000000000E+00 0. -1.
</event>
<event>
 5    1  0.6835449E-004  0.9118800E+02  0.7818608E-02  0.1130116E+00
         25   -1    0    0    0    0  0.00000000000E+00  0.00000000000E+00  0.99999998245E-14  0.12500000000E+03  0.12500000000E+03 0.  0.
        -13    1    3    3    0    0  0.86584561025E+01  0.17019190065E+02  0.57941951228E+02  0.61007397655E+02  0.10566000000E+00 0. -1.
         23    2    1    0    0    0 -0.87219853742E+00  0.15743617598E+02  0.24011859783E+02  0.96273851013E+02  0.91888316740E+02 0.  0.
         13    1    3    3    0    0 -0.95306546399E+01 -0.12755724664E+01 -0.33930091445E+02  0.35266453358E+02  0.10566000000E+00 0.  1.
         22    1    1    0    0    0  0.87219853742E+00 -0.15743617598E+02 -0.24011859783E+02  0.28726148987E+02  0.00000000000E+00 0. -1.
</event>
<event>
 5    1  0.6835449E-004  0.9118800E+02  0.7818608E-02  0.1130116E+00
         25   -1    0    0    0    0  0.00000000000E+00  0.00000000000E+00  0.99999998245E-14  0.12500000000E+03  0.12500000000E+03 0.  0.
        -13    1    3    3    0    0 -0.68912949466E+01  0.17148596324E+00 -0.36231395981E+02  0.36881493628E+02  0.10566000000E+00 0.  1.
         23    2    1    0    0    0  0.17177393288E+02  0.65255518281E+01  0.19674490632E+02  0.98079167018E+02  0.94312203635E+02 0.  0.
         13    1    3    3    0    0  0.24068688235E+02  0.63540658648E+01  0.55905886612E+02  0.61197673390E+02  0.10566000000E+00 0. -1.
         22    1    1    0    0    0 -0.17177393288E+02 -0.65255518281E+01 -0.19674490632E+02  0.26920832982E+02  0.00000000000E+00 0. -1.
</event>
<event>
 5    1  0.6835449E-004  0.9118800E+02  0.7818608E-02  0.1130116E+00
         25   -1    0    0    0    0  0.00000000000E+00  0.00000000000E+00  0.99999998245E-14  0.12500000000E+03  0.12500000000E+03 0.  0.
        -13    1    3    3    0    0 -0.17507625693E+02  0.54434066520E+02  0.23108904098E+02  0.61673472157E+02  0.10566000000E+00 0. -1.
         23    2    1    0    0    0 -0.31582454209E+01  0.28805002082E+02  0.69384886745E+01  0.95203267223E+02  0.90420223434E+02 0.  0.
         13    1    3    3    0    0  0.14349380272E+02 -0.25629064438E+02 -0.16170415424E+02  0.33529795066E+02  0.10566000000E+00 0.  1.
         22    1    1    0    0    0  0.31582454209E+01 -0.28805002082E+02 -0.69384886745E+01  0.29796732777E+02  0.00000000000E+00 0. -1.
</event>
<event>
 5    1  0.6835449E-004  0.9118800E+02  0.7818608E-02  0.1130116E+00
         25   -1    0    0    0    0  0.00000000000E+00  0.00000000000E+00  0.99999998245E-14  0.12500000000E+03  0.12500000000E+03 0.  0.
        -13    1    3    3    0    0 -0.33079300924E+02  0.33448517175E+02  0.17771506032E+02  0.50287981084E+02  0.10566000000E+00 0. -1.
         23    2    1    0    0    0  0.42436096138E+01  0.28745659900E+02 -0.67194182123E+01  0.95175986743E+02  0.90382502099E+02 0.  0.
         13    1    3    3    0    0  0.37322910538E+02 -0.47028572749E+01 -0.24490924245E+02  0.44888005658E+02  0.10566000000E+00 0.  1.
         22    1    1    0    0    0 -0.42436096138E+01 -0.28745659900E+02  0.67194182123E+01  0.29824013257E+02  0.00000000000E+00 0. -1.
</event>
<event>
 5    1  0.6835449E-004  0.9118800E+02  0.7818608E-02  0.1130116E+00
         25   -1    0    0    0    0  0.00000000000E+00  0.00000000000E+00  0.99999998245E-14  0.12500000000E+03  0.12500000000E+03 0.  0.
        -13    1    3    3    0    0  0.65111899146E+01 -0.59207276009E+02  0.17752489152E+02  0.62153512866E+02  0.10566000000E+00 0.  1.
         23    2    1    0    0    0  0.64597703107E+01 -0.27329470961E+02  0.11579950088E+02  0.94623629916E+02  0.89615330602E+02 0.  0.
         13    1    3    3    0    0 -0.51419603904E-01  0.31877805048E+02 -0.61725390634E+01  0.32470117049E+02  0.10566000000E+00 0. -1.
         22    1    1    0    0    0 -0.64597703107E+01  0.27329470961E+02 -0.11579950088E+02  0.30376370084E+02  0.00000000000E+00 0.  1.
</event>
<event>
 5    1  0.6835449E-004  0.9118800E+02  0.7818608E-02  0.1130116E+00
         25   -1    0    0    0    0  0.00000000000E+00  0.00000000000E+00  0.99999998245E-14  0.12500000000E+03  0.12500000000E+03 0.  0.
        -13    1    3    3    0    0  0.12621212976E+02 -0.37316026939E+02  0.91098884216E+00  0.39403324076E+02  0.10566000000E+00 0.  1.
         23    2    1    0    0    0 -0.50329047415E+01  0.97076717416E+01  0.26903822863E+02  0.95958913495E+02  0.91458888981E+02 0.  0.
         13    1    3    3    0    0 -0.17654117718E+02  0.47023698681E+02  0.25992834021E+02  0.56555589419E+02  0.10566000000E+00 0. -1.
         22    1    1    0    0    0  0.50329047415E+01 -0.97076717416E+01 -0.26903822863E+02  0.29041086505E+02  0.00000000000E+00 0. -1.
</event>
<event>
 5    1  0.6835449E-004  0.9118800E+02  0.7818608E-02  0.1130116E+00
         25   -1    0    0    0    0  0.00000000000E+00  0.00000000000E+00  0.99999998245E-14  0.12500000000E+03  0.12500000000E+03 0.  0.
        -13    1    3    3    0    0  0.33874254464E+02 -0.27662068910E+02 -0.38098560896E+02  0.58001436864E+02  0.10566000000E+00 0. -1.
         23    2    1    0    0    0  0.26366840298E+02 -0.13339075706E+02 -0.47398707066E+01  0.95073296501E+02  0.90240368602E+02 0.  0.
         13    1    3    3    0    0 -0.75074141668E+01  0.14322993204E+02  0.33358690189E+02  0.37071859637E+02  0.10566000000E+00 0.  1.
         22    1    1    0    0    0 -0.26366840298E+02  0.13339075706E+02  0.47398707066E+01  0.29926703499E+02  0.00000000000E+00 0. -1.
</event>
<event>
 5    1  0.6835449E-004  0.9118800E+02  0.7818608E-02  0.1130116E+00
         25   -1    0    0    0    0  0.00000000000E+00  0.00000000000E+00  0.99999998245E-14  0.12500000000E+03  0.12500000000E+03 0.  0.
        -13    1    3    3    0    0  0.32101882176E+02 -0.23952363013E+02 -0.44086210822E+02  0.59563845426E+02  0.10566000000E+00 0. -1.
         23    2    1    0    0    0  0.21362073703E+02 -0.22832035286E+02 -0.15540671622E+02  0.90083635604E+02  0.83041609456E+02 0.  0.
         13    1    3    3    0    0 -0.10739808473E+02  0.11203277278E+01  0.28545539201E+02  0.30519790179E+02  0.10566000000E+00 0.  1.
         22    1    1    0    0    0 -0.21362073703E+02  0.22832035286E+02  0.15540671622E+02  0.34916364396E+02  0.00000000000E+00 0. -1.
</event>
<event>
 5    1  0.6835449E-004  0.9118800E+02  0.7818608E-02  0.1130116E+00
         25   -1    0    0    0    0  0.00000000000E+00  0.00000000000E+00  0.99999998245E-14  0.12500000000E+03  0.12500000000E+03 0.  0.
        -13    1    3    3    0    0 -0.33574911492E+02  0.15144511280E+02 -0.46928367411E+02  0.59656631949E+02  0.10566000000E+00 0. -1.
         23    2    1    0    0    0 -0.22027157687E+02  0.15399129631E+02 -0.13704066935E+02  0.94831633791E+02  0.89904996790E+02 0.  0.
         13    1    3    3    0    0  0.11547753805E+02  0.25461835104E+00  0.33224300476E+02  0.35175001842E+02  0.10566000000E+00 0.  1.
         22    1    1    0    0    0  0.22027157687E+02 -0.15399129631E+02  0.13704066935E+02  0.30168366209E+02  0.00000000000E+00 0. -1.
</event>
<event>
 5    1  0.6835449E-004  0.9118800E+02  0.7818608E-02  0.1130116E+00
         25   -1    0    0    0    0  0.00000000000E+00  0.00000000000E+00  0.99999998245E-14  0.12500000000E+03  0.12500000000E+03 0.  0.
        -13    1    3    3    0    0 -0.16170966455E+02  0.18765074828E+02 -0.33237818571E+02  0.41453491249E+02  0.10566000000E+00 0.  1.
         23    2    1    0    0    0  0.78192882849E-01  0.24211874099E+02  0.17577027589E+02  0.95080560494E+02  0.90250430046E+02 0.  0.
         13    1    3    3    0    0  0.16249159338E+02  0.54467992708E+01  0.50814846160E+02  0.53627069244E+02  0.10566000000E+00 0. -1.
         22    1    1    0    0    0 -0.78192882849E-01 -0.24211874099E+02 -0.17577027589E+02  0.29919439506E+02  0.00000000000E+00 0. -1.
</event>
<event>
 5    1  0.6835449E-004  0.9118800E+02  0.7818608E-02  0.1130116E+00
         25   -1    0    0    0    0  0.00000000000E+00  0.00000000000E+00  0.99999998245E-14  0.12500000000E+03  0.12500000000E+03 0.  0.
        -13    1    3    3    0    0  0.39757043584E+02  0.33484270293E+02 -0.11011491526E+02  0.53132692208E+02  0.10566000000E+00 0.  1.
         23    2    1    0    0    0  0.12725586224E+02  0.17117100669E+02  0.18794108295E+02  0.96571947188E+02  0.92292940126E+02 0.  0.
         13    1    3    3    0    0 -0.27031457360E+02 -0.16367169624E+02  0.29805599820E+02  0.43439254980E+02  0.10566000000E+00 0. -1.
         22    1    1    0    0    0 -0.12725586224E+02 -0.17117100669E+02 -0.18794108295E+02  0.28428052812E+02  0.00000000000E+00 0.  1.
</event>
<event>
 5    1  0.6835449E-004  0.9118800E+02  0.7818608E-02  0.1130116E+00
         25   -1    0    0    0    0  0.00000000000E+00  0.00000000000E+00  0.99999998245E-14  0.12500000000E+03  0.12500000000E+03 0.  0.
        -13    1    3    3    0    0  0.11169353271E+02 -0.22300350035E+02 -0.31254745364E+02  0.39986626964E+02  0.10566000000E+00 0.  1.
         23    2    1    0    0    0 -0.27897048542E+02 -0.11910134722E+02  0.49642250416E+01  0.94263374344E+02  0.89111411088E+02 0.  0.
         13    1    3    3    0    0 -0.39066401812E+02  0.10390215313E+02  0.36218970406E+02  0.54276747380E+02  0.10566000000E+00 0. -1.
         22    1    1    0    0    0  0.27897048542E+02  0.11910134722E+02 -0.49642250416E+01  0.30736625656E+02  0.00000000000E+00 0. -1.
</event>
<event>
 5    1  0.6835449E-004  0.9118800E+02  0.7818608E-02  0.1130116E+00
         25   -1    0    0    0    0  0.00000000000E+00  0.00000000000E+00  0.99999998245E-14  0.12500000000E+03  0.12500000000E+03 0.  0.
        -13    1    3    3    0    0 -0.37109386305E+01  0.51004587572E+02 -0.26286202721E+02  0.57499692490E+02  0.10566000000E+00 0.  1.
         23    2    1    0    0    0 -0.11856962913E+02  0.19056651085E+02  0.39212584919E+01  0.10221579959E+03  0.99644116223E+02 0.  0.
         13    1    3    3    0    0 -0.81460242824E+01 -0.31947936487E+02  0.30207461213E+02  0.44716107102E+02  0.10566000000E+00 0. -1.
         22    1    1    0    0    0  0.11856962913E+02 -0.19056651085E+02 -0.39212584919E+01  0.22784200409E+02  0.00000000000E+00 0.  1.
</event>
<event>
 5    1  0.6835449E-004  0.9118800E+02  0.7818608E-02  0.1130116E+00
         25   -1    0    0    0    0  0.00000000000E+00  0.00000000000E+00  0.99999998245E-14  0.12500000000E+03  0.12500000000E+03 0.  0.
        -13    1    3    3    0    0 -0.16807919476E+02  0.30953115193E+02 -0.54259432847E+00  0.35226510895E+02  0.10566000000E+00 0. -1.
         23    2    1    0    0    0 -0.97285056771E+01 -0.27890536140E+02 -0.63765772092E+01  0.94781023085E+02  0.89834602305E+02 0.  0.
         13    1    3    3    0    0  0.70794137987E+01 -0.58843651332E+02 -0.58339828807E+01  0.59554512190E+02  0.10566000000E+00 0.  1.
         22    1    1    0    0    0  0.97285056771E+01  0.27890536140E+02  0.63765772092E+01  0.30218976915E+02  0.00000000000E+00 0.  1.
</event>
<event>
 5    1  0.6835449E-004  0.9118800E+02  0.7818608E-02  0.1130116E+00
         25   -1    0    0    0    0  0.00000000000E+00  0.00000000000E+00  0.99999998245E-14  0.12500000000E+03  0.12500000000E+03 0.  0.
        -13    1    3    3    0    0 -0.34686199279E+02  0.39582040459E+02  0.30882208701E+02  0.61021244871E+02  0.10566000000E+00 0.  1.
         23    2    1    0    0    0 -0.75390944771E+01  0.21928063571E+02  0.16968851700E+02  0.96266398668E+02  0.91878178405E+02 0.  0.
         13    1    3    3    0    0  0.27147104802E+02 -0.17653976888E+02 -0.13913357001E+02  0.35245153797E+02  0.10566000000E+00 0. -1.
         22    1    1    0    0    0  0.75390944771E+01 -0.21928063571E+02 -0.16968851700E+02  0.28733601332E+02  0.00000000000E+00 0.  1.
</event>
<event>
 5    1  0.6835449E-004  0.9118800E+02  0.7818608E-02  0.1130116E+00
         25   -1    0    0    0    0  0.00000000000E+00  0.00000000000E+00  0.99999998245E-14  0.12500000000E+03  0.12500000000E+03 0.  0.
        -13    1    3    3    0    0  0.34929246779E+02  0.24841753695E+02  0.88847443631E+01  0.43773449186E+02  0.10566000000E+00 0. -1.
         23    2    1    0    0    0 -0.16700458058E+01 -0.17535418785E+02 -0.12164288913E+02  0.10359322795E+03  0.10135732330E+03 0.  0.
         13    1    3    3    0    0 -0.36599292585E+02 -0.42377172480E+02 -0.21049033276E+02  0.59819778761E+02  0.10566000000E+00 0.  1.
         22    1    1    0    0    0  0.16700458058E+01  0.17535418785E+02  0.12164288913E+02  0.21406772053E+02  0.00000000000E+00 0.  1.
</event>
<event>
 5    1  0.6835449E-004  0.9118800E+02  0.7818608E-02  0.1130116E+00
         25   -1    0    0    0    0  0.00000000000E+00  0.00000000000E+00  0.99999998245E-14  0.12500000000E+03  0.12500000000E+03 0.  0.
        -13    1    3    3    0    0  0.86950916077E+01  0.10674311487E+02 -0.41711519883E+02  0.43925022468E+02  0.10566000000E+00 0. -1.
         23    2    1    0    0    0 -0.27907727538E+02 -0.28781914475E+01 -0.71775878807E+01  0.96040666269E+02  0.91570555133E+02 0.  0.
         13    1    3    3    0    0 -0.36602819146E+02 -0.13552502935E+02  0.34533932003E+02  0.52115643801E+02  0.10566000000E+00 0.  1.
         22    1    1    0    0    0  0.27907727538E+02  0.28781914475E+01  0.71775878807E+01  0.28959333731E+02  0.00000000000E+00 0.  1.
</event>
<event>
 5    1  0.6835449E-004  0.9118800E+02  0.7818608E-02  0.1130116E+00
         25   -1    0    0    0    0  0.00000000000E+00  0.00000000000E+00  0.99999998245E-14  0.12500000000E+03  0.12500000000E+03 0.  0.
        -13    1    3    3    0    0  0.13303086526E+02 -0.25033958907E+02 -0.25141056160E+02  0.37891358890E+02  0.10566000000E+00 0.  1.
         23    2    1    0    0    0 -0.27641762083E+01  0.27904144630E+02 -0.97057276326E+01  0.95327064410E+02  0.90591203229E+02 0.  0.
         13    1    3    3    0    0 -0.16067262734E+02  0.52938103537E+02  0.15435328527E+02  0.57435705520E+02  0.10566000000E+00 0. -1.
         22    1    1    0    0    0  0.27641762083E+01 -0.27904144630E+02  0.97057276326E+01  0.29672935590E+02  0.00000000000E+00 0. -1.
</event>
<event>
 5    1  0.6835449E-004  0.9118800E+02  0.7818608E-02  0.1130116E+00
         25   -1    0    0    0    0  0.00000000000E+00  0.00000000000E+00  0.99999998245E-14  0.12500000000E+03  0.12500000000E+03 0.  0.
        -13    1    3    3    0    0 -0.15182925022E+02 -0.44945696092E+02 -0.28032268956E+01  0.47523742008E+02  0.10566000000E+00 0.  1.
         23    2    1    0    0    0  0.16589004654E+02 -0.18000464805E+02 -0.20774357801E+02  0.92894147720E+02  0.87169587185E+02 0.  0.
         13    1    3    3    0    0  0.31771929676E+02  0.26945231286E+02 -0.17971130905E+02  0.45370405712E+02  0.10566000000E+00 0. -1.
         22    1    1    0    0    0 -0.16589004654E+02  0.18000464805E+02  0.20774357801E+02  0.32105852280E+02  0.00000000000E+00 0.  1.
</event>
<event>
 5    1  0.6835449E-004  0.9118800E+02  0.7818608E-02  0.1130116E+00
         25   -1    0    0    0    0  0.00000000000E+00  0.00000000000E+00  0.99999998245E-14  0.12500000000E+03  0.12500000000E+03 0.  0.
        -13    1    3    3    0    0 -0.19865135415E+02  0.47098353185E+02  0.94370816543E+00  0.51125142806E+02  0.10566000000E+00 0.  1.
         23    2    1    0    0    0 -0.11489503928E+02  0.12191963732E+02 -0.24638627725E+02  0.95205459287E+02  0.90423253766E+02 0.  0.
         13    1    3    3    0    0  0.83756314865E+01 -0.34906389453E+02 -0.25582335890E+02  0.44080316481E+02  0.10566000000E+00 0. -1.
         22    1    1    0    0    0  0.11489503928E+02 -0.12191963732E+02  0.24638627725E+02  0.29794540713E+02  0.00000000000E+00 0.  1.
</event>
<event>
 5    1  0.6835449E-004  0.9118800E+02  0.7818608E-02  0.1130116E+00
         25   -1    0    0    0    0  0.00000000000E+00  0.00000000000E+00  0.99999998245E-14  0.12500000000E+03  0.12500000000E+03 0.  0.
        -13    1    3    3    0    0 -0.28135846379E+01  0.40349327714E+02  0.14660135392E+02  0.43022264460E+02  0.10566000000E+00 0. -1.
         23    2    1    0    0    0  0.15345570228E+02  0.67094283524E+01 -0.22909344580E+02  0.96621468968E+02  0.92359987235E+02 0.  0.
         13    1    3    3    0    0  0.18159154866E+02 -0.33639899362E+02 -0.37569479972E+02  0.53599204508E+02  0.10566000000E+00 0.  1.
         22    1    1    0    0    0 -0.15345570228E+02 -0.67094283524E+01  0.22909344580E+02  0.28378531032E+02  0.00000000000E+00 0.  1.
</event>
<event>
 5    1  0.6835449E-004  0.9118800E+02  0.7818608E-02  0.1130116E+00
         25   -1    0    0    0    0  0.00000000000E+00  0.00000000000E+00  0.99999998245E-14  0.12500000000E+03  0.12500000000E+03 0.  0.
        -13    1    3    3    0    0  0.16908420646E+02  0.34053194981E+02 -0.16146448204E+02  0.41306582173E+02  0.10566000000E+00 0.  1.
         23    2    1    0    0    0  0.13477391945E+02 -0.22072991956E+02 -0.40770903116E+01  0.98818332121E+02  0.95286846050E+02 0.  0.
         13    1    3    3    0    0 -0.34310287012E+01 -0.56126186937E+02  0.12069357892E+02  0.57511749948E+02  0.10566000000E+00 0. -1.
         22    1    1    0    0    0 -0.13477391945E+02  0.22072991956E+02  0.40770903116E+01  0.26181667879E+02  0.00000000000E+00 0. -1.
</event>
<event>
 5    1  0.6835449E-004  0.9118800E+02  0.7818608E-02  0.1130116E+00
         25   -1    0    0    0    0  0.00000000000E+00  0.00000000000E+00  0.99999998245E-14  0.12500000000E+03  0.12500000000E+03 0.  0.
        -13    1    3    3    0    0  0.24673792785E+02 -0.45552084117E+01 -0.53222492376E+02  0.58840384370E+02  0.10566000000E+00 0. -1.
         23    2    1    0    0    0  0.14141940104E+02 -0.16575522470E+02 -0.21352511782E+02  0.94493079892E+02  0.89433047432E+02 0.  0.
         13    1    3    3    0    0 -0.10531852680E+02 -0.12020314058E+02  0.31869980593E+02  0.35652695522E+02  0.10566000000E+00 0.  1.
         22    1    1    0    0    0 -0.14141940104E+02  0.16575522470E+02  0.21352511782E+02  0.30506920108E+02  0.00000000000E+00 0. -1.
</event>
<event>
 5    1  0.6835449E-004  0.9118800E+02  0.7818608E-02  0.1130116E+00
         25   -1    0    0    0    0  0.00000000000E+00  0.00000000000E+00  0.99999998245E-14  0.12500000000E+03  0.12500000000E+03 0.  0.
        -13    1    3    3    0    0 -0.16198229214E+02  0.43608199758E+02  0.13931467243E+02  0.48560834624E+02  0.10566000000E+00 0.  1.
         23    2    1    0    0    0 -0.18622031657E+02  0.31260639877E+01 -0.17021225159E+02  0.99578071572E+02  0.96278335533E+02 0.  0.
         13    1    3    3    0    0 -0.24238024427E+01 -0.40482135771E+02 -0.30952692402E+02  0.51017236948E+02  0.10566000000E+00 0. -1.
         22    1    1    0    0    0  0.18622031657E+02 -0.31260639877E+01  0.17021225159E+02  0.25421928428E+02  0.00000000000E+00 0.  1.
</event>
<event>
 5    1  0.6835449E-004  0.9118800E+02  0.7818608E-02  0.1130116E+00
         25   -1    0    0    0    0  0.00000000000E+00  0.00000000000E+00  0.99999998245E-14  0.12500000000E+03  0.12500000000E+03 0.  0.
        -13    1    3    3    0    0  0.30483870635E+02 -0.22343395049E+02  0.58952954145E+01  0.38252573028E+02  0.10566000000E+00 0.  1.
         23    2    1    0    0    0  0.24105787242E+01  0.22413204935E+02 -0.17918042770E+02  0.96203838764E+02  0.91793026375E+02 0.  0.
         13    1    3    3    0    0 -0.28073291911E+02  0.44756599984E+02 -0.23813338184E+02  0.57951265736E+02  0.10566000000E+00 0. -1.
         22    1    1    0    0    0 -0.24105787242E+01 -0.22413204935E+02  0.17918042770E+02  0.28796161236E+02  0.00000000000E+00 0. -1.
</event>
<event>
 5    1  0.6835449E-004  0.9118800E+02  0.7818608E-02  0.1130116E+00
         25   -1    0    0    0    0  0.00000000000E+00  0.00000000000E+00  0.99999998245E-14  0.12500000000E+03  0.12500000000E+03 0.  0.
        -13    1    3    3    0    0 -0.11112784865E+02 -0.30503675681E+02 -0.17458246511E+02  0.36861494175E+02  0.10566000000E+00 0. -1.
         23    2    1    0    0    0  0.29724006475E+02  0.68754819272E+01 -0.15996649462E+01  0.94449259574E+02  0.89371779066E+02 0.  0.
         13    1    3    3    0    0  0.40836791340E+02  0.37379157608E+02  0.15858581565E+02  0.57587765399E+02  0.10566000000E+00 0.  1.
         22    1    1    0    0    0 -0.29724006475E+02 -0.68754819272E+01  0.15996649462E+01  0.30550740426E+02  0.00000000000E+00 0.  1.
</event>
<event>
 5    1  0.6835449E-004  0.9118800E+02  0.7818608E-02  0.1130116E+00
         25   -1    0    0    0    0  0.00000000000E+00  0.00000000000E+00  0.99999998245E-14  0.12500000000E+03  0.12500000000E+03 0.  0.
        -13    1    3    3    0    0  0.72759150219E+01 -0.23097534039E+02  0.54495753210E+02  0.59634162189E+02  0.10566000000E+00 0.  1.
         23    2    1    0    0    0  0.86096776734E+01 -0.20897081552E+02  0.18306557110E+02  0.95914873212E+02  0.91398677797E+02 0.  0.
         13    1    3    3    0    0  0.13337626514E+01  0.22004524866E+01 -0.36189196099E+02  0.36280711023E+02  0.10566000000E+00 0. -1.
         22    1    1    0    0    0 -0.86096776734E+01  0.20897081552E+02 -0.18306557110E+02  0.29085126788E+02  0.00000000000E+00 0.  1.
</event>
<event>
 5    1  0.6835449E-004  0.9118800E+02  0.7818608E-02  0.1130116E+00
         25   -1    0    0    0    0  0.00000000000E+00  0.00000000000E+00  0.99999998245E-14  0.12500000000E+03  0.12500000000E+03 0.  0.
        -13    1    3    3    0    0 -0.12557278467E+02 -0.17504379158E+01  0.42034132530E+02  0.43904768955E+02  0.10566000000E+00 0. -1.
         23    2    1    0    0    0  0.22619838593E+02 -0.18611146621E+02  0.11158459390E+02  0.93654456577E+02  0.88253125408E+02 0.  0.
         13    1    3    3    0    0  0.35177117060E+02 -0.16860708705E+02 -0.30875673140E+02  0.49749687623E+02  0.10566000000E+00 0.  1.
         22    1    1    0    0    0 -0.22619838593E+02  0.18611146621E+02 -0.11158459390E+02  0.31345543423E+02  0.00000000000E+00 0.  1.
</event>
<event>
 5    1  0.6835449E-004  0.9118800E+02  0.7818608E-02  0.1130116E+00
         25   -1    0    0    0    0  0.00000000000E+00  0.00000000000E+00  0.99999998245E-14  0.12500000000E+03  0.12500000000E+03 0.  0.
        -13    1    3    3    0    0  0.48518187328E+01 -0.26226632597E+02 -0.27446670091E+02  0.38271494163E+02  0.10566000000E+00 0.  1.
         23    2    1    0    0    0 -0.98333050145E+00  0.27752110918E+02 -0.12228184088E+02  0.94657371812E+02  0.89662383155E+02 0.  0.
         13    1    3    3    0    0 -0.58351492342E+01  0.53978743514E+02  0.15218486003E+02  0.56385877649E+02  0.10566000000E+00 0. -1.
         22    1    1    0    0    0  0.98333050145E+00 -0.27752110918E+02  0.12228184088E+02  0.30342628188E+02  0.00000000000E+00 0. -1.
</event>
<event>
 5    1  0.6835449E-004  0.9118800E+02  0.7818608E-02  0.1130116E+00
         25   -1    0    0    0    0  0.00000000000E+00  0.00000000000E+00  0.99999998245E-14  0.12500000000E+03  0.12500000000E+03 0.  0.
        -13    1    3    3    0    0  0.47782928581E+02  0.35250565291E+01  0.14365122725E+02  0.50020018015E+02  0.10566000000E+00 0.  1.
         23    2    1    0    0    0  0.54973963835E+01  0.23174013582E+02  0.15361701460E+02  0.96658543717E+02  0.92410150575E+02 0.  0.
         13    1    3    3    0    0 -0.42285532197E+02  0.19648957053E+02  0.99657873439E+00  0.46638525702E+02  0.10566000000E+00 0. -1.
         22    1    1    0    0    0 -0.54973963835E+01 -0.23174013582E+02 -0.15361701460E+02  0.28341456283E+02  0.00000000000E+00 0. -1.
</event>
<event>
 5    1  0.6835449E-004  0.9118800E+02  0.7818608E-02  0.1130116E+00
         25   -1    0    0    0    0  0.00000000000E+00  0.00000000000E+00  0.99999998245E-14  0.12500000000E+03  0.12500000000E+03 0.  0.
        -13    1    3    3    0    0  0.43364444422E+02 -0.13477688488E+02  0.27306039795E+02  0.52988244925E+02  0.10566000000E+00 0.  1.
         23    2    1    0    0    0  0.24386644952E+02 -0.16861662537E+02 -0.89325861809E+01  0.94035258577E+02  0.88790847750E+02 0.  0.
         13    1    3    3    0    0 -0.18977799470E+02 -0.33839740495E+01 -0.36238625975E+02  0.41047013652E+02  0.10566000000E+00 0. -1.
         22    1    1    0    0    0 -0.24386644952E+02  0.16861662537E+02  0.89325861809E+01  0.30964741423E+02  0.00000000000E+00 0.  1.
</event>
<event>
 5    1  0.6835449E-004  0.9118800E+02  0.7818608E-02  0.1130116E+00
         25   -1    0    0    0    0  0.00000000000E+00  0.00000000000E+00  0.99999998245E-14  0.12500000000E+03  0.12500000000E+03 0.  0.
        -13    1    3    3    0    0  0.39914309545E+01  0.19835681006E+02  0.30998786877E+02  0.37017856690E+02  0.10566000000E+00 0.  1.
         23    2    1    0    0    0  0.11614461603E+02 -0.27251420869E+02 -0.24477764736E+01  0.95275813428E+02  0.90520458224E+02 0.  0.
         13    1    3    3    0    0  0.76230306486E+01 -0.47087101875E+02 -0.33446563351E+02  0.58257956738E+02  0.10566000000E+00 0. -1.
         22    1    1    0    0    0 -0.11614461603E+02  0.27251420869E+02  0.24477764736E+01  0.29724186572E+02  0.00000000000E+00 0. -1.
</event>
<event>
 5    1  0.6835449E-004  0.9118800E+02  0.7818608E-02  0.1130116E+00
         25   -1    0    0    0    0  0.00000000000E+00  0.00000000000E+00  0.99999998245E-14  0.12500000000E+03  0.12500000000E+03 0.  0.
        -13    1    3    3    0    0 -0.16931267757E+02 -0.22642273971E+02 -0.44660868764E+02  0.52857778625E+02  0.10566000000E+00 0.  1.
         23    2    1    0    0    0 -0.27168190384E+02 -0.57737105556E+01 -0.55332616424E+01  0.96679278139E+02  0.92438193052E+02 0.  0.
         13    1    3    3    0    0 -0.10236922628E+02  0.16868563415E+02  0.39127607121E+02  0.43821499514E+02  0.10566000000E+00 0. -1.
         22    1    1    0    0    0  0.27168190384E+02  0.57737105556E+01  0.55332616424E+01  0.28320721861E+02  0.00000000000E+00 0.  1.
</event>
<event>
 5    1  0.6835449E-004  0.9118800E+02  0.7818608E-02  0.1130116E+00
         25   -1    0    0    0    0  0.00000000000E+00  0.00000000000E+00  0.99999998245E-14  0.12500000000E+03  0.12500000000E+03 0.  0.
        -13    1    3    3    0    0  0.20874880860E+02  0.96085323602E+01 -0.37987526560E+02  0.44397611233E+02  0.10566000000E+00 0.  1.
         23    2    1    0    0    0  0.98789297478E+01  0.24628195579E+02  0.10597366885E+02  0.96426490322E+02  0.92095725093E+02 0.  0.
         13    1    3    3    0    0 -0.10995951112E+02  0.15019663219E+02  0.48584893445E+02  0.52028879088E+02  0.10566000000E+00 0. -1.
         22    1    1    0    0    0 -0.98789297478E+01 -0.24628195579E+02 -0.10597366885E+02  0.28573509678E+02  0.00000000000E+00 0. -1.
</event>
<event>
 5    1  0.6835449E-004  0.9118800E+02  0.7818608E-02  0.1130116E+00
         25   -1    0    0    0    0  0.00000000000E+00  0.00000000000E+00  0.99999998245E-14  0.12500000000E+03  0.12500000000E+03 0.  0.
        -13    1    3    3    0    0 -0.36173512899E+02  0.33850040463E+01 -0.12177395142E+02  0.38318160241E+02  0.10566000000E+00 0.  1.
         23    2    1    0    0    0  0.17449541624E+02  0.22545686855E+02 -0.29183681822E+00  0.96488955343E+02  0.92180468842E+02 0.  0.
         13    1    3    3    0    0  0.53623054523E+02  0.19160682809E+02  0.11885558323E+02  0.58170795102E+02  0.10566000000E+00 0. -1.
         22    1    1    0    0    0 -0.17449541624E+02 -0.22545686855E+02  0.29183681822E+00  0.28511044657E+02  0.00000000000E+00 0. -1.
</event>
<event>
 5    1  0.6835449E-004  0.9118800E+02  0.7818608E-02  0.1130116E+00
         25   -1    0    0    0    0  0.00000000000E+00  0.00000000000E+00  0.99999998245E-14  0.12500000000E+03  0.12500000000E+03 0.  0.
        -13    1    3    3    0    0  0.48841906574E+02  0.12753011771E+02 -0.47249767473E+01  0.50700174717E+02  0.10566000000E+00 0. -1.
         23    2    1    0    0    0  0.13850496012E+02  0.57083784871E+01 -0.27952633799E+02  0.93286098300E+02  0.87729838567E+02 0.  0.
         13    1    3    3    0    0 -0.34991410563E+02 -0.70446332836E+01 -0.23227657052E+02  0.42585923583E+02  0.10566000000E+00 0.  1.
         22    1    1    0    0    0 -0.13850496012E+02 -0.57083784871E+01  0.27952633799E+02  0.31713901700E+02  0.00000000000E+00 0. -1.
</event>
<event>
 5    1  0.6835449E-004  0.9118800E+02  0.7818608E-02  0.1130116E+00
         25   -1    0    0    0    0  0.00000000000E+00  0.00000000000E+00  0.99999998245E-14  0.12500000000E+03  0.12500000000E+03 0.  0.
        -13    1    3    3    0    0  0.38877069372E+01  0.28066709807E+02  0.29216282912E+02  0.40699592330E+02  0.10566000000E+00 0.  1.
         23    2    1    0    0    0  0.27074191802E+02 -0.10673050845E+02 -0.23721050886E+01  0.95801493897E+02  0.91243484558E+02 0.  0.
         13    1    3    3    0    0  0.23186484865E+02 -0.38739760652E+02 -0.31588388001E+02  0.55101901567E+02  0.10566000000E+00 0. -1.
         22    1    1    0    0    0 -0.27074191802E+02  0.10673050845E+02  0.23721050886E+01  0.29198506103E+02  0.00000000000E+00 0. -1.
</event>
<event>
 5    1  0.6835449E-004  0.9118800E+02  0.7818608E-02  0.1130116E+00
         25   -1    0    0    0    0  0.00000000000E+00  0.00000000000E+00  0.99999998245E-14  0.12500000000E+03  0.12500000000E+03 0.  0.
        -13    1    3    3    0    0 -0.29011118183E+02  0.17930189580E+02 -0.51026571030E+02  0.61374740665E+02  0.10566000000E+00 0.  1.
         23    2    1    0    0    0 -0.60980120449E+01  0.51591520614E+01 -0.26629069425E+02  0.97198742126E+02  0.93137991881E+02 0.  0.
         13    1    3    3    0    0  0.22913106138E+02 -0.12771037518E+02  0.24397501604E+02  0.35824001462E+02  0.10566000000E+00 0. -1.
         22    1    1    0    0    0  0.60980120449E+01 -0.51591520614E+01  0.26629069425E+02  0.27801257874E+02  0.00000000000E+00 0.  1.
</event>
<event>
 5    1  0.6835449E-004  0.9118800E+02  0.7818608E-02  0.1130116E+00
         25   -1    0    0    0    0  0.00000000000E+00  0.00000000000E+00  0.99999998245E-14  0.12500000000E+03  0.12500000000E+03 0.  0.
        -13    1    3    3    0    0  0.18220438251E+02  0.37545656306E+02 -0.93936440244E+01  0.42777475260E+02  0.10566000000E+00 0.  1.
         23    2    1    0    0    0 -0.18354257218E+02 -0.50295382192E+01 -0.17078816856E+02  0.99429294145E+02  0.96084980805E+02 0.  0.
         13    1    3    3    0    0 -0.36574695469E+02 -0.42575194525E+02 -0.76851728313E+01  0.56651818885E+02  0.10566000000E+00 0. -1.
         22    1    1    0    0    0  0.18354257218E+02  0.50295382192E+01  0.17078816856E+02  0.25570705855E+02  0.00000000000E+00 0. -1.
</event>
<event>
 5    1  0.6835449E-004  0.9118800E+02  0.7818608E-02  0.1130116E+00
         25   -1    0    0    0    0  0.00000000000E+00  0.00000000000E+00  0.99999998245E-14  0.12500000000E+03  0.12500000000E+03 0.  0.
        -13    1    3    3    0    0  0.27829840008E+02  0.21604867357E+02 -0.39887394703E+02  0.53219223111E+02  0.10566000000E+00 0. -1.
         23    2    1    0    0    0  0.29103169449E+02  0.63637000468E+00 -0.29132773349E+01  0.95744459951E+02  0.91165316803E+02 0.  0.
         13    1    3    3    0    0  0.12733294411E+01 -0.20968497353E+02  0.36974117368E+02  0.42525236840E+02  0.10566000000E+00 0.  1.
         22    1    1    0    0    0 -0.29103169449E+02 -0.63637000468E+00  0.29132773349E+01  0.29255540049E+02  0.00000000000E+00 0. -1.
</event>
<event>
 5    1  0.6835449E-004  0.9118800E+02  0.7818608E-02  0.1130116E+00
         25   -1    0    0    0    0  0.00000000000E+00  0.00000000000E+00  0.99999998245E-14  0.12500000000E+03  0.12500000000E+03 0.  0.
        -13    1    3    3    0    0  0.44857561565E+02 -0.54280232856E+01  0.12998848185E+01  0.45203596438E+02  0.10566000000E+00 0. -1.
         23    2    1    0    0    0  0.31662096895E+01 -0.18855803858E+02 -0.22838219210E+02  0.95214928578E+02  0.90436343051E+02 0.  0.
         13    1    3    3    0    0 -0.41691351875E+02 -0.13427780573E+02 -0.24138104029E+02  0.50011332140E+02  0.10566000000E+00 0.  1.
         22    1    1    0    0    0 -0.31662096895E+01  0.18855803858E+02  0.22838219210E+02  0.29785071422E+02  0.00000000000E+00 0.  1.
</event>
<event>
 5    1  0.6835449E-004  0.9118800E+02  0.7818608E-02  0.1130116E+00
         25   -1    0    0    0    0  0.00000000000E+00  0.00000000000E+00  0.99999998245E-14  0.12500000000E+03  0.12500000000E+03 0.  0.
        -13    1    3    3    0    0 -0.40923494109E+02  0.30190350873E+02 -0.29162180688E+02  0.58622807869E+02  0.10566000000E+00 0.  1.
         23    2    1    0    0    0 -0.35109340351E+02  0.10014456561E+02 -0.26710773717E+02  0.79762619963E+02  0.65693644979E+02 0.  0.
         13    1    3    3    0    0  0.58141537577E+01 -0.20175894312E+02  0.24514069713E+01  0.21139812094E+02  0.10566000000E+00 0. -1.
         22    1    1    0    0    0  0.35109340351E+02 -0.10014456561E+02  0.26710773717E+02  0.45237380037E+02  0.00000000000E+00 0.  1.
</event>
<event>
 5    1  0.6835449E-004  0.9118800E+02  0.7818608E-02  0.1130116E+00
         25   -1    0    0    0    0  0.00000000000E+00  0.00000000000E+00  0.99999998245E-14  0.12500000000E+03  0.12500000000E+03 0.  0.
        -13    1    3    3    0    0  0.52188538933E+02 -0.46478145453E+01  0.29328356494E+02  0.60045061701E+02  0.10566000000E+00 0.  1.
         23    2    1    0    0    0  0.20759591701E+02 -0.13572648448E+02  0.16832191728E+02  0.95025008560E+02  0.90173455850E+02 0.  0.
         13    1    3    3    0    0 -0.31428947232E+02 -0.89248339027E+01 -0.12496164766E+02  0.34979946858E+02  0.10566000000E+00 0. -1.
         22    1    1    0    0    0 -0.20759591701E+02  0.13572648448E+02 -0.16832191728E+02  0.29974991440E+02  0.00000000000E+00 0.  1.
</event>
<event>
 5    1  0.6835449E-004  0.9118800E+02  0.7818608E-02  0.1130116E+00
         25   -1    0    0    0    0  0.00000000000E+00  0.00000000000E+00  0.99999998245E-14  0.12500000000E+03  0.12500000000E+03 0.  0.
        -13    1    3    3    0    0 -0.73139721696E+01 -0.40161577830E+01  0.30610991177E+02  0.31728026366E+02  0.10566000000E+00 0. -1.
         23    2    1    0    0    0  0.90165909097E+01 -0.94674758956E+01 -0.28686666811E+02  0.93474504537E+02  0.87997875737E+02 0.  0.
         13    1    3    3    0    0  0.16330563079E+02 -0.54513181126E+01 -0.59297657988E+02  0.61746478171E+02  0.10566000000E+00 0.  1.
         22    1    1    0    0    0 -0.90165909097E+01  0.94674758956E+01  0.28686666811E+02  0.31525495463E+02  0.00000000000E+00 0.  1.
</event>
<event>
 5    1  0.6835449E-004  0.9118800E+02  0.7818608E-02  0.1130116E+00
         25   -1    0    0    0    0  0.00000000000E+00  0.00000000000E+00  0.99999998245E-14  0.12500000000E+03  0.12500000000E+03 0.  0.
        -13    1    3    3    0    0 -0.43298501500E+02  0.10668673639E+01 -0.91896321343E+01  0.44275940881E+02  0.10566000000E+00 0.  1.
         23    2    1    0    0    0  0.34906976389E+01 -0.10219590154E+02 -0.27253103369E+02  0.95685214717E+02  0.91084047337E+02 0.  0.
         13    1    3    3    0    0  0.46789199139E+02 -0.11286457518E+02 -0.18063471235E+02  0.51409273837E+02  0.10566000000E+00 0. -1.
         22    1    1    0    0    0 -0.34906976389E+01  0.10219590154E+02  0.27253103369E+02  0.29314785283E+02  0.00000000000E+00 0. -1.
</event>
<event>
 5    1  0.6835449E-004  0.9118800E+02  0.7818608E-02  0.1130116E+00
         25   -1    0    0    0    0  0.00000000000E+00  0.00000000000E+00  0.99999998245E-14  0.12500000000E+03  0.12500000000E+03 0.  0.
        -13    1    3    3    0    0  0.20789818951E+02 -0.44743324428E+02  0.19746563969E+02  0.53142446363E+02  0.10566000000E+00 0. -1.
         23    2    1    0    0    0 -0.87087258196E+01 -0.28534867880E+02 -0.47749260873E+01  0.94786087485E+02  0.89841648868E+02 0.  0.
         13    1    3    3    0    0 -0.29498544771E+02  0.16208456548E+02 -0.24521490057E+02  0.41643641122E+02  0.10566000000E+00 0.  1.
         22    1    1    0    0    0  0.87087258196E+01  0.28534867880E+02  0.47749260873E+01  0.30213912515E+02  0.00000000000E+00 0. -1.
</event>
<event>
 5    1  0.6835449E-004  0.9118800E+02  0.7818608E-02  0.1130116E+00
         25   -1    0    0    0    0  0.00000000000E+00  0.00000000000E+00  0.99999998245E-14  0.12500000000E+03  0.12500000000E+03 0.  0.
        -13    1    3    3    0    0  0.25693355316E+02 -0.70323388504E+01 -0.77883818878E+01  0.27753780887E+02  0.10566000000E+00 0. -1.
         23    2    1    0    0    0 -0.31829313497E+02  0.14325002212E+02  0.26511390242E+01  0.89995151418E+02  0.82908309925E+02 0.  0.
         13    1    3    3    0    0 -0.57522668813E+02  0.21357341063E+02  0.10439520912E+02  0.62241370531E+02  0.10566000000E+00 0.  1.
         22    1    1    0    0    0  0.31829313497E+02 -0.14325002212E+02 -0.26511390242E+01  0.35004848582E+02  0.00000000000E+00 0.  1.
</event>
<event>
 5    1  0.6835449E-004  0.9118800E+02  0.7818608E-02  0.1130116E+00
         25   -1    0    0    0    0  0.00000000000E+00  0.00000000000E+00  0.99999998245E-14  0.12500000000E+03  0.12500000000E+03 0.  0.
        -13    1    3    3    0    0 -0.48396635317E+02 -0.38676036248E+02  0.38508301858E+01  0.62071814434E+02  0.10566000000E+00 0. -1.
         23    2    1    0    0    0 -0.20869507607E+02 -0.21187378080E+02  0.56255315452E+01  0.94733055277E+02  0.89767832876E+02 0.  0.
         13    1    3    3    0    0  0.27527127710E+02  0.17488658168E+02  0.17747013594E+01  0.32661240843E+02  0.10566000000E+00 0.  1.
         22    1    1    0    0    0  0.20869507607E+02  0.21187378080E+02 -0.56255315452E+01  0.30266944723E+02  0.00000000000E+00 0. -1.
</event>
<event>
 5    1  0.6835449E-004  0.9118800E+02  0.7818608E-02  0.1130116E+00
         25   -1    0    0    0    0  0.00000000000E+00  0.00000000000E+00  0.99999998245E-14  0.12500000000E+03  0.12500000000E+03 0.  0.
        -13    1    3    3    0    0  0.19222442288E+02  0.12335357534E+02 -0.31107426443E+02  0.38592051992E+02  0.10566000000E+00 0.  1.
         23    2    1    0    0    0 -0.29494463297E+01 -0.29647183218E+02 -0.27051325582E+00  0.95205237309E+02  0.90422946907E+02 0.  0.
         13    1    3    3    0    0 -0.22171888618E+02 -0.41982540752E+02  0.30836913187E+02  0.56613185317E+02  0.10566000000E+00 0. -1.
         22    1    1    0    0    0  0.29494463297E+01  0.29647183218E+02  0.27051325582E+00  0.29794762691E+02  0.00000000000E+00 0. -1.
</event>
<event>
 5    1  0.6835449E-004  0.9118800E+02  0.7818608E-02  0.1130116E+00
         25   -1    0    0    0    0  0.00000000000E+00  0.00000000000E+00  0.99999998245E-14  0.12500000000E+03  0.12500000000E+03 0.  0.
        -13    1    3    3    0    0 -0.33356857869E+02  0.18136644700E+02  0.18071371393E+02  0.42050011604E+02  0.10566000000E+00 0.  1.
         23    2    1    0    0    0 -0.77612457987E+01 -0.81939664833E+01 -0.24352615980E+02  0.98159211484E+02  0.94418233785E+02 0.  0.
         13    1    3    3    0    0  0.25595612070E+02 -0.26330611183E+02 -0.42423987373E+02  0.56109199880E+02  0.10566000000E+00 0. -1.
         22    1    1    0    0    0  0.77612457987E+01  0.81939664833E+01  0.24352615980E+02  0.26840788516E+02  0.00000000000E+00 0. -1.
</event>
<event>
 5    1  0.6835449E-004  0.9118800E+02  0.7818608E-02  0.1130116E+00
         25   -1    0    0    0    0  0.00000000000E+00  0.00000000000E+00  0.99999998245E-14  0.12500000000E+03  0.12500000000E+03 0.  0.
        -13    1    3    3    0    0  0.15221800830E+02  0.31581520818E+02 -0.14452200901E+02  0.37920613821E+02  0.10566000000E+00 0. -1.
         23    2    1    0    0    0 -0.22589908299E+01 -0.25672807215E+02 -0.73267977101E+01  0.98206753938E+02  0.94481154123E+02 0.  0.
         13    1    3    3    0    0 -0.17480791660E+02 -0.57254328032E+02  0.71254031906E+01  0.60286140117E+02  0.10566000000E+00 0.  1.
         22    1    1    0    0    0  0.22589908299E+01  0.25672807215E+02  0.73267977101E+01  0.26793246062E+02  0.00000000000E+00 0.  1.
</event>
<event>
 5    1  0.6835449E-004  0.9118800E+02  0.7818608E-02  0.1130116E+00
         25   -1    0    0    0    0  0.00000000000E+00  0.00000000000E+00  0.99999998245E-14  0.12500000000E+03  0.12500000000E+03 0.  0.
        -13    1    3    3    0    0  0.10639888541E+02  0.19721986767E+01  0.54727640345E+02  0.55787297636E+02  0.10566000000E+00 0.  1.
         23    2    1    0    0    0  0.23633145810E+02 -0.12177219825E+00  0.16609202580E+02  0.96113913043E+02  0.91670487403E+02 0.  0.
         13    1    3    3    0    0  0.12993257269E+02 -0.20939708749E+01 -0.38118437765E+02  0.40326615407E+02  0.10566000000E+00 0. -1.
         22    1    1    0    0    0 -0.23633145810E+02  0.12177219825E+00 -0.16609202580E+02  0.28886086957E+02  0.00000000000E+00 0.  1.
</event>
<event>
 5    1  0.6835449E-004  0.9118800E+02  0.7818608E-02  0.1130116E+00
         25   -1    0    0    0    0  0.00000000000E+00  0.00000000000E+00  0.99999998245E-14  0.12500000000E+03  0.12500000000E+03 0.  0.
        -13    1    3    3    0    0 -0.14875968268E+02 -0.46594674738E+02  0.18940348708E+01  0.48948510477E+02  0.10566000000E+00 0. -1.
         23    2    1    0    0    0  0.23332361034E+01 -0.97647711231E+01  0.26633649501E+02  0.96536935661E+02  0.92245508917E+02 0.  0.
         13    1    3    3    0    0  0.17209204371E+02  0.36829903615E+02  0.24739614631E+02  0.47588425184E+02  0.10566000000E+00 0.  1.
         22    1    1    0    0    0 -0.23332361034E+01  0.97647711231E+01 -0.26633649501E+02  0.28463064339E+02  0.00000000000E+00 0.  1.
</event>
<event>
 5    1  0.6835449E-004  0.9118800E+02  0.7818608E-02  0.1130116E+00
         25   -1    0    0    0    0  0.00000000000E+00  0.00000000000E+00  0.99999998245E-14  0.12500000000E+03  0.12500000000E+03 0.  0.
        -13    1    3    3    0    0 -0.51268252036E+02  0.30779552135E+01  0.21299766157E+02  0.55602146339E+02  0.10566000000E+00 0. -1.
         23    2    1    0    0    0 -0.15112989211E+02  0.20412702611E+02  0.12670821418E+02  0.96616367636E+02  0.92353082834E+02 0.  0.
         13    1    3    3    0    0  0.36155262825E+02  0.17334747398E+02 -0.86289447390E+01  0.41014221297E+02  0.10566000000E+00 0.  1.
         22    1    1    0    0    0  0.15112989211E+02 -0.20412702611E+02 -0.12670821418E+02  0.28383632364E+02  0.00000000000E+00 0.  1.
</event>
<event>
 5    1  0.6835449E-004  0.9118800E+02  0.7818608E-02  0.1130116E+00
         25   -1    0    0    0    0  0.00000000000E+00  0.00000000000E+00  0.99999998245E-14  0.12500000000E+03  0.12500000000E+03 0.  0.
        -13    1    3    3    0    0  0.13261678372E+01 -0.20724262332E+02 -0.44088925906E+02  0.48734980475E+02  0.10566000000E+00 0. -1.
         23    2    1    0    0    0 -0.26334368509E+02  0.12629667770E+01 -0.13979342250E+02  0.95158484295E+02  0.90358292777E+02 0.  0.
         13    1    3    3    0    0 -0.27660536346E+02  0.21987229109E+02  0.30109583656E+02  0.46423503819E+02  0.10566000000E+00 0.  1.
         22    1    1    0    0    0  0.26334368509E+02 -0.12629667770E+01  0.13979342250E+02  0.29841515705E+02  0.00000000000E+00 0.  1.
</event>
<event>
 5    1  0.6835449E-004  0.9118800E+02  0.7818608E-02  0.1130116E+00
         25   -1    0    0    0    0  0.00000000000E+00  0.00000000000E+00  0.99999998245E-14  0.12500000000E+03  0.12500000000E+03 0.  0.
        -13    1    3    3    0    0  0.96108613942E+01  0.54400549578E+02  0.19248317399E+02  0.58500404596E+02  0.10566000000E+00 0. -1.
         23    2    1    0    0    0  0.47789948448E+01  0.27561288960E+02 -0.68000742228E+01  0.96212772792E+02  0.91805191564E+02 0.  0.
         13    1    3    3    0    0 -0.48318665494E+01 -0.26839260618E+02 -0.26048391622E+02  0.37712368197E+02  0.10566000000E+00 0.  1.
         22    1    1    0    0    0 -0.47789948448E+01 -0.27561288960E+02  0.68000742228E+01  0.28787227208E+02  0.00000000000E+00 0. -1.
</event>
<event>
 5    1  0.6835449E-004  0.9118800E+02  0.7818608E-02  0.1130116E+00
         25   -1    0    0    0    0  0.00000000000E+00  0.00000000000E+00  0.99999998245E-14  0.12500000000E+03  0.12500000000E+03 0.  0.
        -13    1    3    3    0    0  0.24910177216E+02 -0.44627333094E+02 -0.10310093586E+02  0.52138517257E+02  0.10566000000E+00 0.  1.
         23    2    1    0    0    0 -0.18302873752E+01 -0.14112782369E+02 -0.25773391602E+02  0.95558731468E+02  0.90910301215E+02 0.  0.
         13    1    3    3    0    0 -0.26740464591E+02  0.30514550725E+02 -0.15463298017E+02  0.43420214211E+02  0.10566000000E+00 0. -1.
         22    1    1    0    0    0  0.18302873752E+01  0.14112782369E+02  0.25773391602E+02  0.29441268532E+02  0.00000000000E+00 0.  1.
</event>
<event>
 5    1  0.6835449E-004  0.9118800E+02  0.7818608E-02  0.1130116E+00
         25   -1    0    0    0    0  0.00000000000E+00  0.00000000000E+00  0.99999998245E-14  0.12500000000E+03  0.12500000000E+03 0.  0.
        -13    1    3    3    0    0 -0.34816606161E+02 -0.50856777963E+00  0.47499178056E+00  0.34823720178E+02  0.10566000000E+00 0.  1.
         23    2    1    0    0    0  0.24616585555E+02 -0.15227682075E+02  0.22916918580E-01  0.96054203916E+02  0.91589033072E+02 0.  0.
         13    1    3    3    0    0  0.59433191716E+02 -0.14719114295E+02 -0.45207486198E+00  0.61230483739E+02  0.10566000000E+00 0. -1.
         22    1    1    0    0    0 -0.24616585555E+02  0.15227682075E+02 -0.22916918580E-01  0.28945796084E+02  0.00000000000E+00 0. -1.
</event>
<event>
 5    1  0.6835449E-004  0.9118800E+02  0.7818608E-02  0.1130116E+00
         25   -1    0    0    0    0  0.00000000000E+00  0.00000000000E+00  0.99999998245E-14  0.12500000000E+03  0.12500000000E+03 0.  0.
        -13    1    3    3    0    0 -0.16559449105E+02 -0.22420989957E+02 -0.23612072085E+00  0.27874415910E+02  0.10566000000E+00 0. -1.
         23    2    1    0    0    0  0.19122417419E+02  0.27100715955E+02 -0.11405664663E+02  0.89925723962E+02  0.82803568706E+02 0.  0.
         13    1    3    3    0    0  0.35681866524E+02  0.49521705912E+02 -0.11169543942E+02  0.62051308052E+02  0.10566000000E+00 0.  1.
         22    1    1    0    0    0 -0.19122417419E+02 -0.27100715955E+02  0.11405664663E+02  0.35074276038E+02  0.00000000000E+00 0.  1.
</event>
<event>
 5    1  0.6835449E-004  0.9118800E+02  0.7818608E-02  0.1130116E+00
         25   -1    0    0    0    0  0.00000000000E+00  0.00000000000E+00  0.99999998245E-14  0.12500000000E+03  0.12500000000E+03 0.  0.
        -13    1    3    3    0    0 -0.42004596354E+01  0.27886136723E+02  0.20511588611E+02  0.34871434067E+02  0.10566000000E+00 0. -1.
         23    2    1    0    0    0 -0.17205606259E+02 -0.12615406343E+02 -0.21537062198E+02  0.94684551594E+02  0.89700266992E+02 0.  0.
         13    1    3    3    0    0 -0.13005146624E+02 -0.40501543066E+02 -0.42048650809E+02  0.59813117527E+02  0.10566000000E+00 0.  1.
         22    1    1    0    0    0  0.17205606259E+02  0.12615406343E+02  0.21537062198E+02  0.30315448406E+02  0.00000000000E+00 0.  1.
</event>
<event>
 5    1  0.6835449E-004  0.9118800E+02  0.7818608E-02  0.1130116E+00
         25   -1    0    0    0    0  0.00000000000E+00  0.00000000000E+00  0.99999998245E-14  0.12500000000E+03  0.12500000000E+03 0.  0.
        -13    1    3    3    0    0  0.21232623075E+02 -0.25782074768E+01 -0.26431897028E+02  0.34001879081E+02  0.10566000000E+00 0.  1.
         23    2    1    0    0    0 -0.27338668554E+02  0.89475812148E+01  0.85868708136E+01  0.94980067318E+02  0.90111135990E+02 0.  0.
         13    1    3    3    0    0 -0.48571291629E+02  0.11525788692E+02  0.35018767842E+02  0.60978188237E+02  0.10566000000E+00 0. -1.
         22    1    1    0    0    0  0.27338668554E+02 -0.89475812148E+01 -0.85868708136E+01  0.30019932682E+02  0.00000000000E+00 0. -1.
</event>
<event>
 5    1  0.6835449E-004  0.9118800E+02  0.7818608E-02  0.1130116E+00
         25   -1    0    0    0    0  0.00000000000E+00  0.00000000000E+00  0.99999998245E-14  0.12500000000E+03  0.12500000000E+03 0.  0.
        -13    1    3    3    0    0  0.48802581498E+02 -0.31353783852E+02  0.16133189384E+02  0.60208327385E+02  0.10566000000E+00 0.  1.
         23    2    1    0    0    0  0.23351179749E+02 -0.55820669362E+01  0.15475822474E+02  0.96435368930E+02  0.92107775092E+02 0.  0.
         13    1    3    3    0    0 -0.25451401749E+02  0.25771716916E+02 -0.65736691009E+00  0.36227041545E+02  0.10566000000E+00 0. -1.
         22    1    1    0    0    0 -0.23351179749E+02  0.55820669362E+01 -0.15475822474E+02  0.28564631070E+02  0.00000000000E+00 0.  1.
</event>
<event>
 5    1  0.6835449E-004  0.9118800E+02  0.7818608E-02  0.1130116E+00
         25   -1    0    0    0    0  0.00000000000E+00  0.00000000000E+00  0.99999998245E-14  0.12500000000E+03  0.12500000000E+03 0.  0.
        -13    1    3    3    0    0  0.18641420628E+02  0.42529037235E+02  0.37269500285E+02  0.59541988434E+02  0.10566000000E+00 0. -1.
         23    2    1    0    0    0  0.18820534668E+02  0.21172698173E+02  0.84005569151E+01  0.95452326156E+02  0.90763877942E+02 0.  0.
         13    1    3    3    0    0  0.17911403944E+00 -0.21356339063E+02 -0.28868943370E+02  0.35910337722E+02  0.10566000000E+00 0.  1.
         22    1    1    0    0    0 -0.18820534668E+02 -0.21172698173E+02 -0.84005569151E+01  0.29547673844E+02  0.00000000000E+00 0. -1.
</event>
<event>
 5    1  0.6835449E-004  0.9118800E+02  0.7818608E-02  0.1130116E+00
         25   -1    0    0    0    0  0.00000000000E+00  0.00000000000E+00  0.99999998245E-14  0.12500000000E+03  0.12500000000E+03 0.  0.
        -13    1    3    3    0    0  0.96306043870E+01 -0.37046484316E+02 -0.33420210161E+02  0.50814487622E+02  0.10566000000E+00 0.  1.
         23    2    1    0    0    0 -0.76925088997E+01 -0.33172709697E+02  0.24730316325E+01  0.90857369064E+02  0.84198231965E+02 0.  0.
         13    1    3    3    0    0 -0.17323113287E+02  0.38737746194E+01  0.35893241793E+02  0.40042881442E+02  0.10566000000E+00 0. -1.
         22    1    1    0    0    0  0.76925088997E+01  0.33172709697E+02 -0.24730316325E+01  0.34142630936E+02  0.00000000000E+00 0.  1.
</event>
<event>
 5    1  0.6835449E-004  0.9118800E+02  0.7818608E-02  0.1130116E+00
         25   -1    0    0    0    0  0.00000000000E+00  0.00000000000E+00  0.99999998245E-14  0.12500000000E+03  0.12500000000E+03 0.  0.
        -13    1    3    3    0    0  0.93602133190E+01  0.54580119151E+02  0.15545879305E+02  0.57517723593E+02  0.10566000000E+00 0. -1.
         23    2    1    0    0    0 -0.10718056692E+02  0.38186043299E+02  0.77268516576E+01  0.84592638312E+02  0.74317962687E+02 0.  0.
         13    1    3    3    0    0 -0.20078270011E+02 -0.16394075852E+02 -0.78190276473E+01  0.27074914719E+02  0.10566000000E+00 0.  1.
         22    1    1    0    0    0  0.10718056692E+02 -0.38186043299E+02 -0.77268516576E+01  0.40407361688E+02  0.00000000000E+00 0. -1.
</event>
<event>
 5    1  0.6835449E-004  0.9118800E+02  0.7818608E-02  0.1130116E+00
         25   -1    0    0    0    0  0.00000000000E+00  0.00000000000E+00  0.99999998245E-14  0.12500000000E+03  0.12500000000E+03 0.  0.
        -13    1    3    3    0    0 -0.21356636369E+02 -0.10017260051E+02  0.25417823918E+02  0.34677490576E+02  0.10566000000E+00 0. -1.
         23    2    1    0    0    0  0.17318766185E+02 -0.21530971025E+01 -0.22351880078E+02  0.96641896532E+02  0.92387629762E+02 0.  0.
         13    1    3    3    0    0  0.38675402553E+02  0.78641629485E+01 -0.47769703996E+02  0.61964405956E+02  0.10566000000E+00 0.  1.
         22    1    1    0    0    0 -0.17318766185E+02  0.21530971025E+01  0.22351880078E+02  0.28358103468E+02  0.00000000000E+00 0.  1.
</event>
<event>
 5    1  0.6835449E-004  0.9118800E+02  0.7818608E-02  0.1130116E+00
         25   -1    0    0    0    0  0.00000000000E+00  0.00000000000E+00  0.99999998245E-14  0.12500000000E+03  0.12500000000E+03 0.  0.
        -13    1    3    3    0    0  0.19162132269E+02 -0.15621512698E+02 -0.22841775954E+02  0.33659721698E+02  0.10566000000E+00 0. -1.
         23    2    1    0    0    0  0.13850404607E+02  0.28215387314E+02  0.13444459679E+02  0.90813814411E+02  0.84133546239E+02 0.  0.
         13    1    3    3    0    0 -0.53117276619E+01  0.43836900011E+02  0.36286235633E+02  0.57154092713E+02  0.10566000000E+00 0.  1.
         22    1    1    0    0    0 -0.13850404607E+02 -0.28215387314E+02 -0.13444459679E+02  0.34186185589E+02  0.00000000000E+00 0.  1.
</event>
<event>
 5    1  0.6835449E-004  0.9118800E+02  0.7818608E-02  0.1130116E+00
         25   -1    0    0    0    0  0.00000000000E+00  0.00000000000E+00  0.99999998245E-14  0.12500000000E+03  0.12500000000E+03 0.  0.
        -13    1    3    3    0    0  0.21426014101E+02  0.50936949876E+02  0.26327331310E+02  0.61210999672E+02  0.10566000000E+00 0.  1.
         23    2    1    0    0    0  0.17078973907E+02  0.26085214544E+02  0.68664576723E+01  0.93073866371E+02  0.87426921442E+02 0.  0.
         13    1    3    3    0    0 -0.43470401934E+01 -0.24851735332E+02 -0.19460873638E+02  0.31862866699E+02  0.10566000000E+00 0. -1.
         22    1    1    0    0    0 -0.17078973907E+02 -0.26085214544E+02 -0.68664576723E+01  0.31926133629E+02  0.00000000000E+00 0.  1.
</event>
<event>
 5    1  0.6835449E-004  0.9118800E+02  0.7818608E-02  0.1130116E+00
         25   -1    0    0    0    0  0.00000000000E+00  0.00000000000E+00  0.99999998245E-14  0.12500000000E+03  0.12500000000E+03 0.  0.
        -13    1    3    3    0    0 -0.24074152688E+02  0.14076136874E+02 -0.14206468513E+02  0.31297561703E+02  0.10566000000E+00 0.  1.
         23    2    1    0    0    0  0.23104052637E+02 -0.48508988205E+01  0.21219432152E+02  0.93257398209E+02  0.87688936316E+02 0.  0.
         13    1    3    3    0    0  0.47178205325E+02 -0.18927035694E+02  0.35425900665E+02  0.61959836506E+02  0.10566000000E+00 0. -1.
         22    1    1    0    0    0 -0.23104052637E+02  0.48508988205E+01 -0.21219432152E+02  0.31742601791E+02  0.00000000000E+00 0. -1.
</event>
<event>
 5    1  0.6835449E-004  0.9118800E+02  0.7818608E-02  0.1130116E+00
         25   -1    0    0    0    0  0.00000000000E+00  0.00000000000E+00  0.99999998245E-14  0.12500000000E+03  0.12500000000E+03 0.  0.
        -13    1    3    3    0    0 -0.18708947859E+02 -0.27483621757E+02  0.20030542509E+02  0.38815048527E+02  0.10566000000E+00 0.  1.
         23    2    1    0    0    0  0.29047741544E+02 -0.70482082733E+01 -0.15600860025E+01  0.95068705391E+02  0.90234008819E+02 0.  0.
         13    1    3    3    0    0  0.47756689403E+02  0.20435413484E+02 -0.21590628512E+02  0.56253656864E+02  0.10566000000E+00 0. -1.
         22    1    1    0    0    0 -0.29047741544E+02  0.70482082733E+01  0.15600860025E+01  0.29931294609E+02  0.00000000000E+00 0. -1.
</event>
<event>
 5    1  0.6835449E-004  0.9118800E+02  0.7818608E-02  0.1130116E+00
         25   -1    0    0    0    0  0.00000000000E+00  0.00000000000E+00  0.99999998245E-14  0.12500000000E+03  0.12500000000E+03 0.  0.
        -13    1    3    3    0    0  0.80318957489E+01 -0.30655460246E+02 -0.24910487663E+02  0.40308958705E+02  0.10566000000E+00 0. -1.
         23    2    1    0    0    0  0.23118223282E+02  0.14827686121E+02  0.53986871224E+01  0.97009674063E+02  0.92883898044E+02 0.  0.
         13    1    3    3    0    0  0.15086327533E+02  0.45483146367E+02  0.30309174786E+02  0.56700715358E+02  0.10566000000E+00 0.  1.
         22    1    1    0    0    0 -0.23118223282E+02 -0.14827686121E+02 -0.53986871224E+01  0.27990325937E+02  0.00000000000E+00 0.  1.
</event>
<event>
 5    1  0.6835449E-004  0.9118800E+02  0.7818608E-02  0.1130116E+00
         25   -1    0    0    0    0  0.00000000000E+00  0.00000000000E+00  0.99999998245E-14  0.12500000000E+03  0.12500000000E+03 0.  0.
        -13    1    3    3    0    0 -0.44664292011E+02 -0.24017253264E+02 -0.23916251440E+02  0.56068936874E+02  0.10566000000E+00 0.  1.
         23    2    1    0    0    0 -0.50819143936E+01 -0.22000475204E+02 -0.17961374914E+02  0.96147656041E+02  0.91716487124E+02 0.  0.
         13    1    3    3    0    0  0.39582377618E+02  0.20167780603E+01  0.59548765259E+01  0.40078719167E+02  0.10566000000E+00 0. -1.
         22    1    1    0    0    0  0.50819143936E+01  0.22000475204E+02  0.17961374914E+02  0.28852343959E+02  0.00000000000E+00 0.  1.
</event>
<event>
 5    1  0.6835449E-004  0.9118800E+02  0.7818608E-02  0.1130116E+00
         25   -1    0    0    0    0  0.00000000000E+00  0.00000000000E+00  0.99999998245E-14  0.12500000000E+03  0.12500000000E+03 0.  0.
        -13    1    3    3    0    0  0.29911273580E+02 -0.20650982604E+02 -0.17221562534E+02  0.40221148042E+02  0.10566000000E+00 0.  1.
         23    2    1    0    0    0 -0.14673050092E+02 -0.32624284520E+02 -0.14293056159E+02  0.86478138755E+02  0.77424380454E+02 0.  0.
         13    1    3    3    0    0 -0.44584323673E+02 -0.11973301916E+02  0.29285063743E+01  0.46256990712E+02  0.10566000000E+00 0. -1.
         22    1    1    0    0    0  0.14673050092E+02  0.32624284520E+02  0.14293056159E+02  0.38521861245E+02  0.00000000000E+00 0. -1.
</event>
<event>
 5    1  0.6835449E-004  0.9118800E+02  0.7818608E-02  0.1130116E+00
         25   -1    0    0    0    0  0.00000000000E+00  0.00000000000E+00  0.99999998245E-14  0.12500000000E+03  0.12500000000E+03 0.  0.
        -13    1    3    3    0    0 -0.23714369972E+02 -0.10613185199E+02 -0.29562938390E+02  0.39357204340E+02  0.10566000000E+00 0. -1.
         23    2    1    0    0    0  0.26430784003E+02 -0.12503461342E+02 -0.46101029998E+01  0.95399730774E+02  0.90691414663E+02 0.  0.
         13    1    3    3    0    0  0.50145153975E+02 -0.18902761427E+01  0.24952835390E+02  0.56042526434E+02  0.10566000000E+00 0.  1.
         22    1    1    0    0    0 -0.26430784003E+02  0.12503461342E+02  0.46101029998E+01  0.29600269226E+02  0.00000000000E+00 0.  1.
</event>
<event>
 5    1  0.6835449E-004  0.9118800E+02  0.7818608E-02  0.1130116E+00
         25   -1    0    0    0    0  0.00000000000E+00  0.00000000000E+00  0.99999998245E-14  0.12500000000E+03  0.12500000000E+03 0.  0.
        -13    1    3    3    0    0  0.29073129180E+02 -0.10037839045E+02 -0.18333160392E+02  0.35806717065E+02  0.10566000000E+00 0.  1.
         23    2    1    0    0    0 -0.88605927795E+01  0.26832885090E+02  0.89899358119E+01  0.95346454301E+02  0.90617953934E+02 0.  0.
         13    1    3    3    0    0 -0.37933721959E+02  0.36870724135E+02  0.27323096204E+02  0.59539737236E+02  0.10566000000E+00 0. -1.
         22    1    1    0    0    0  0.88605927795E+01 -0.26832885090E+02 -0.89899358119E+01  0.29653545699E+02  0.00000000000E+00 0. -1.
</event>
<event>
 5    1  0.6835449E-004  0.9118800E+02  0.7818608E-02  0.1130116E+00
         25   -1    0    0    0    0  0.00000000000E+00  0.00000000000E+00  0.99999998245E-14  0.12500000000E+03  0.12500000000E+03 0.  0.
        -13    1    3    3    0    0 -0.15221358884E+02  0.42783957453E+02  0.30284860156E+01  0.45511972855E+02  0.10566000000E+00 0. -1.
         23    2    1    0    0    0 -0.21817100266E+02 -0.18422687946E+01 -0.19269732434E+02  0.95833196842E+02  0.91286906019E+02 0.  0.
         13    1    3    3    0    0 -0.65957413821E+01 -0.44626226247E+02 -0.22298218450E+02  0.50321223987E+02  0.10566000000E+00 0.  1.
         22    1    1    0    0    0  0.21817100266E+02  0.18422687946E+01  0.19269732434E+02  0.29166803158E+02  0.00000000000E+00 0. -1.
</event>
<event>
 5    1  0.6835449E-004  0.9118800E+02  0.7818608E-02  0.1130116E+00
         25   -1    0    0    0    0  0.00000000000E+00  0.00000000000E+00  0.99999998245E-14  0.12500000000E+03  0.12500000000E+03 0.  0.
        -13    1    3    3    0    0  0.35914871338E+02  0.48654255386E+02  0.41340163175E+01  0.60615309991E+02  0.10566000000E+00 0. -1.
         23    2    1    0    0    0  0.89520012112E+01  0.26268662265E+02 -0.49306882194E+01  0.96813254370E+02  0.92619185877E+02 0.  0.
         13    1    3    3    0    0 -0.26962870127E+02 -0.22385593120E+02 -0.90647045369E+01  0.36197944378E+02  0.10566000000E+00 0.  1.
         22    1    1    0    0    0 -0.89520012112E+01 -0.26268662265E+02  0.49306882194E+01  0.28186745630E+02  0.00000000000E+00 0. -1.
</event>
<event>
 5    1  0.6835449E-004  0.9118800E+02  0.7818608E-02  0.1130116E+00
         25   -1    0    0    0    0  0.00000000000E+00  0.00000000000E+00  0.99999998245E-14  0.12500000000E+03  0.12500000000E+03 0.  0.
        -13    1    3    3    0    0  0.30951766826E+02  0.15195789879E+02  0.32542258858E+02  0.47412378924E+02  0.10566000000E+00 0. -1.
         23    2    1    0    0    0  0.23187551704E+02 -0.14891161570E+02 -0.58753819269E+01  0.96823247885E+02  0.92632672267E+02 0.  0.
         13    1    3    3    0    0 -0.77642151212E+01 -0.30086951449E+02 -0.38417640785E+02  0.49410868961E+02  0.10566000000E+00 0.  1.
         22    1    1    0    0    0 -0.23187551704E+02  0.14891161570E+02  0.58753819269E+01  0.28176752115E+02  0.00000000000E+00 0.  1.
</event>
<event>
 5    1  0.6835449E-004  0.9118800E+02  0.7818608E-02  0.1130116E+00
         25   -1    0    0    0    0  0.00000000000E+00  0.00000000000E+00  0.99999998245E-14  0.12500000000E+03  0.12500000000E+03 0.  0.
        -13    1    3    3    0    0 -0.27444420297E+02 -0.61987392622E+01  0.52952340073E+02  0.59963172507E+02  0.10566000000E+00 0.  1.
         23    2    1    0    0    0 -0.89631318554E+01  0.92167804334E+01  0.25292556338E+02  0.96627474904E+02  0.92368115310E+02 0.  0.
         13    1    3    3    0    0  0.18481288442E+02  0.15415519696E+02 -0.27659783735E+02  0.36664302397E+02  0.10566000000E+00 0. -1.
         22    1    1    0    0    0  0.89631318554E+01 -0.92167804334E+01 -0.25292556338E+02  0.28372525096E+02  0.00000000000E+00 0.  1.
</event>
<event>
 5    1  0.6835449E-004  0.9118800E+02  0.7818608E-02  0.1130116E+00
         25   -1    0    0    0    0  0.00000000000E+00  0.00000000000E+00  0.99999998245E-14  0.12500000000E+03  0.12500000000E+03 0.  0.
        -13    1    3    3    0    0  0.26956545356E+02 -0.41374678269E+02 -0.38079758891E+02  0.62358628438E+02  0.10566000000E+00 0. -1.
         23    2    1    0    0    0  0.92643437941E+01 -0.18739927932E+02 -0.14050285942E+02  0.99812235115E+02  0.96581876037E+02 0.  0.
         13    1    3    3    0    0 -0.17692201562E+02  0.22634750336E+02  0.24029472950E+02  0.37453606678E+02  0.10566000000E+00 0.  1.
         22    1    1    0    0    0 -0.92643437941E+01  0.18739927932E+02  0.14050285942E+02  0.25187764885E+02  0.00000000000E+00 0. -1.
</event>
<event>
 5    1  0.6835449E-004  0.9118800E+02  0.7818608E-02  0.1130116E+00
         25   -1    0    0    0    0  0.00000000000E+00  0.00000000000E+00  0.99999998245E-14  0.12500000000E+03  0.12500000000E+03 0.  0.
        -13    1    3    3    0    0 -0.14992835405E+02 -0.24087982919E+02 -0.26577459466E+02  0.38876581001E+02  0.10566000000E+00 0. -1.
         23    2    1    0    0    0  0.27538858889E+02  0.64618951039E+01 -0.22331189079E+01  0.96625158022E+02  0.92364979865E+02 0.  0.
         13    1    3    3    0    0  0.42531694294E+02  0.30549878023E+02  0.24344340558E+02  0.57748577021E+02  0.10566000000E+00 0.  1.
         22    1    1    0    0    0 -0.27538858889E+02 -0.64618951039E+01  0.22331189079E+01  0.28374841978E+02  0.00000000000E+00 0.  1.
</event>
<event>
 5    1  0.6835449E-004  0.9118800E+02  0.7818608E-02  0.1130116E+00
         25   -1    0    0    0    0  0.00000000000E+00  0.00000000000E+00  0.99999998245E-14  0.12500000000E+03  0.12500000000E+03 0.  0.
        -13    1    3    3    0    0 -0.24916014052E+01 -0.46189314331E+02 -0.34914925198E+02  0.57954499407E+02  0.10566000000E+00 0. -1.
         23    2    1    0    0    0 -0.15426233716E+02 -0.23682472801E+02 -0.73969707033E+01  0.95784535256E+02  0.91220248925E+02 0.  0.
         13    1    3    3    0    0 -0.12934632311E+02  0.22506841530E+02  0.27517954494E+02  0.37830035848E+02  0.10566000000E+00 0.  1.
         22    1    1    0    0    0  0.15426233716E+02  0.23682472801E+02  0.73969707033E+01  0.29215464744E+02  0.00000000000E+00 0. -1.
</event>
<event>
 5    1  0.6835449E-004  0.9118800E+02  0.7818608E-02  0.1130116E+00
         25   -1    0    0    0    0  0.00000000000E+00  0.00000000000E+00  0.99999998245E-14  0.12500000000E+03  0.12500000000E+03 0.  0.
        -13    1    3    3    0    0 -0.10610177887E+02 -0.14643653073E+02 -0.41186145772E+02  0.44981354111E+02  0.10566000000E+00 0.  1.
         23    2    1    0    0    0  0.37363720797E+01  0.25598166064E+02 -0.14778519854E+02  0.95206859326E+02  0.90425189142E+02 0.  0.
         13    1    3    3    0    0  0.14346549967E+02  0.40241819137E+02  0.26407625918E+02  0.50225505215E+02  0.10566000000E+00 0. -1.
         22    1    1    0    0    0 -0.37363720797E+01 -0.25598166064E+02  0.14778519854E+02  0.29793140674E+02  0.00000000000E+00 0. -1.
</event>
<event>
 5    1  0.6835449E-004  0.9118800E+02  0.7818608E-02  0.1130116E+00
         25   -1    0    0    0    0  0.00000000000E+00  0.00000000000E+00  0.99999998245E-14  0.12500000000E+03  0.12500000000E+03 0.  0.
        -13    1    3    3    0    0  0.54999716732E+00  0.23823654697E+02  0.55709444552E+02  0.60592263502E+02  0.10566000000E+00 0. -1.
         23    2    1    0    0    0  0.11053624343E+02  0.10024714475E+02  0.23832073225E+02  0.96881585649E+02  0.92711360750E+02 0.  0.
         13    1    3    3    0    0  0.10503627176E+02 -0.13798940222E+02 -0.31877371327E+02  0.36289322146E+02  0.10566000000E+00 0.  1.
         22    1    1    0    0    0 -0.11053624343E+02 -0.10024714475E+02 -0.23832073225E+02  0.28118414351E+02  0.00000000000E+00 0. -1.
</event>
<event>
 5    1  0.6835449E-004  0.9118800E+02  0.7818608E-02  0.1130116E+00
         25   -1    0    0    0    0  0.00000000000E+00  0.00000000000E+00  0.99999998245E-14  0.12500000000E+03  0.12500000000E+03 0.  0.
        -13    1    3    3    0    0 -0.39262003372E+02  0.46152558673E+02 -0.57768481118E+01  0.60868273501E+02  0.10566000000E+00 0.  1.
         23    2    1    0    0    0 -0.25404839830E+02  0.14569091088E+02 -0.43985347136E+01  0.95385621574E+02  0.90671965863E+02 0.  0.
         13    1    3    3    0    0  0.13857163542E+02 -0.31583467585E+02  0.13783133982E+01  0.34517348073E+02  0.10566000000E+00 0. -1.
         22    1    1    0    0    0  0.25404839830E+02 -0.14569091088E+02  0.43985347136E+01  0.29614378426E+02  0.00000000000E+00 0.  1.
</event>
<event>
 5    1  0.6835449E-004  0.9118800E+02  0.7818608E-02  0.1130116E+00
         25   -1    0    0    0    0  0.00000000000E+00  0.00000000000E+00  0.99999998245E-14  0.12500000000E+03  0.12500000000E+03 0.  0.
        -13    1    3    3    0    0  0.10263882590E+02 -0.24216722580E+02 -0.15432085852E+02  0.30495202510E+02  0.10566000000E+00 0. -1.
         23    2    1    0    0    0  0.16233276266E+02  0.15822193071E+02  0.27405461002E+02  0.89434281328E+02  0.82058334933E+02 0.  0.
         13    1    3    3    0    0  0.59693936755E+01  0.40038915651E+02  0.42837546854E+02  0.58939078818E+02  0.10566000000E+00 0.  1.
         22    1    1    0    0    0 -0.16233276266E+02 -0.15822193071E+02 -0.27405461002E+02  0.35565718672E+02  0.00000000000E+00 0.  1.
</event>
<event>
 5    1  0.6835449E-004  0.9118800E+02  0.7818608E-02  0.1130116E+00
         25   -1    0    0    0    0  0.00000000000E+00  0.00000000000E+00  0.99999998245E-14  0.12500000000E+03  0.12500000000E+03 0.  0.
        -13    1    3    3    0    0  0.45356297995E+02  0.10498767272E+02  0.24567584161E+02  0.52640243518E+02  0.10566000000E+00 0. -1.
         23    2    1    0    0    0  0.16483702799E+02 -0.20087950903E+02  0.10107900687E+02  0.97117964821E+02  0.93029517924E+02 0.  0.
         13    1    3    3    0    0 -0.28872595196E+02 -0.30586718175E+02 -0.14459683475E+02  0.44477721303E+02  0.10566000000E+00 0.  1.
         22    1    1    0    0    0 -0.16483702799E+02  0.20087950903E+02 -0.10107900687E+02  0.27882035179E+02  0.00000000000E+00 0. -1.
</event>
<event>
 5    1  0.6835449E-004  0.9118800E+02  0.7818608E-02  0.1130116E+00
         25   -1    0    0    0    0  0.00000000000E+00  0.00000000000E+00  0.99999998245E-14  0.12500000000E+03  0.12500000000E+03 0.  0.
        -13    1    3    3    0    0 -0.11154602805E+02 -0.33056094683E+02  0.18909845377E+02  0.39682791934E+02  0.10566000000E+00 0.  1.
         23    2    1    0    0    0  0.11522546008E+02 -0.73462563736E+01 -0.25669604194E+02  0.95919677981E+02  0.91405248730E+02 0.  0.
         13    1    3    3    0    0  0.22677148813E+02  0.25709838310E+02 -0.44579449571E+02  0.56236886047E+02  0.10566000000E+00 0. -1.
         22    1    1    0    0    0 -0.11522546008E+02  0.73462563736E+01  0.25669604194E+02  0.29080322019E+02  0.00000000000E+00 0. -1.
</event>
<event>
 5    1  0.6835449E-004  0.9118800E+02  0.7818608E-02  0.1130116E+00
         25   -1    0    0    0    0  0.00000000000E+00  0.00000000000E+00  0.99999998245E-14  0.12500000000E+03  0.12500000000E+03 0.  0.
        -13    1    3    3    0    0  0.17010526046E+02  0.47905863685E+02 -0.22223318212E+01  0.50884965309E+02  0.10566000000E+00 0. -1.
         23    2    1    0    0    0  0.17140279190E+02  0.13133968218E+02  0.22702756446E+02  0.93667820981E+02  0.88272052458E+02 0.  0.
         13    1    3    3    0    0  0.12975314428E+00 -0.34771895467E+02  0.24925088267E+02  0.42782855671E+02  0.10566000000E+00 0.  1.
         22    1    1    0    0    0 -0.17140279190E+02 -0.13133968218E+02 -0.22702756446E+02  0.31332179019E+02  0.00000000000E+00 0. -1.
</event>
<event>
 5    1  0.6835449E-004  0.9118800E+02  0.7818608E-02  0.1130116E+00
         25   -1    0    0    0    0  0.00000000000E+00  0.00000000000E+00  0.99999998245E-14  0.12500000000E+03  0.12500000000E+03 0.  0.
        -13    1    3    3    0    0 -0.59826191158E+01 -0.17826093786E+02  0.31624231915E+02  0.36792180682E+02  0.10566000000E+00 0.  1.
         23    2    1    0    0    0  0.30499866295E+02  0.57563183935E+01 -0.49375895430E+01  0.93571400986E+02  0.88135408586E+02 0.  0.
         13    1    3    3    0    0  0.36482485411E+02  0.23582412179E+02 -0.36561821458E+02  0.56779220304E+02  0.10566000000E+00 0. -1.
         22    1    1    0    0    0 -0.30499866295E+02 -0.57563183935E+01  0.49375895430E+01  0.31428599014E+02  0.00000000000E+00 0. -1.
</event>
<event>
 5    1  0.6835449E-004  0.9118800E+02  0.7818608E-02  0.1130116E+00
         25   -1    0    0    0    0  0.00000000000E+00  0.00000000000E+00  0.99999998245E-14  0.12500000000E+03  0.12500000000E+03 0.  0.
        -13    1    3    3    0    0  0.15208673655E+02 -0.19232600067E+02  0.27456259178E+02  0.36811058010E+02  0.10566000000E+00 0. -1.
         23    2    1    0    0    0 -0.27062722684E+02 -0.30127254108E+01 -0.10423123286E+02  0.95843371723E+02  0.91300837513E+02 0.  0.
         13    1    3    3    0    0 -0.42271396339E+02  0.16219874657E+02 -0.37879382464E+02  0.59032313713E+02  0.10566000000E+00 0.  1.
         22    1    1    0    0    0  0.27062722684E+02  0.30127254108E+01  0.10423123286E+02  0.29156628277E+02  0.00000000000E+00 0.  1.
</event>
<event>
 5    1  0.6835449E-004  0.9118800E+02  0.7818608E-02  0.1130116E+00
         25   -1    0    0    0    0  0.00000000000E+00  0.00000000000E+00  0.99999998245E-14  0.12500000000E+03  0.12500000000E+03 0.  0.
        -13    1    3    3    0    0  0.24640849625E+02  0.19422905912E+02 -0.47770431066E+02  0.57152830136E+02  0.10566000000E+00 0.  1.
         23    2    1    0    0    0  0.20526068873E+00 -0.26843880596E+01 -0.30546878396E+02  0.94334712606E+02  0.89211423884E+02 0.  0.
         13    1    3    3    0    0 -0.24435588936E+02 -0.22107293971E+02  0.17223552670E+02  0.37181882470E+02  0.10566000000E+00 0. -1.
         22    1    1    0    0    0 -0.20526068873E+00  0.26843880596E+01  0.30546878396E+02  0.30665287394E+02  0.00000000000E+00 0.  1.
</event>
<event>
 5    1  0.6835449E-004  0.9118800E+02  0.7818608E-02  0.1130116E+00
         25   -1    0    0    0    0  0.00000000000E+00  0.00000000000E+00  0.99999998245E-14  0.12500000000E+03  0.12500000000E+03 0.  0.
        -13    1    3    3    0    0 -0.24239098063E+02 -0.33055617379E+02  0.39591881003E+02  0.56988910506E+02  0.10566000000E+00 0.  1.
         23    2    1    0    0    0 -0.95061250558E+01  0.13134810585E+01  0.26837834913E+02  0.96498052191E+02  0.92192803666E+02 0.  0.
         13    1    3    3    0    0  0.14732973007E+02  0.34369098437E+02 -0.12754046090E+02  0.39509141685E+02  0.10566000000E+00 0. -1.
         22    1    1    0    0    0  0.95061250558E+01 -0.13134810585E+01 -0.26837834913E+02  0.28501947809E+02  0.00000000000E+00 0.  1.
</event>
<event>
 5    1  0.6835449E-004  0.9118800E+02  0.7818608E-02  0.1130116E+00
         25   -1    0    0    0    0  0.00000000000E+00  0.00000000000E+00  0.99999998245E-14  0.12500000000E+03  0.12500000000E+03 0.  0.
        -13    1    3    3    0    0  0.20117577883E+02 -0.50883726400E+02 -0.23604015440E+02  0.59590529962E+02  0.10566000000E+00 0. -1.
         23    2    1    0    0    0  0.17671985507E+02 -0.28165342151E+02 -0.26309225015E+02  0.82599989492E+02  0.70887215864E+02 0.  0.
         13    1    3    3    0    0 -0.24455923760E+01  0.22718384249E+02 -0.27052095751E+01  0.23009459530E+02  0.10566000000E+00 0.  1.
         22    1    1    0    0    0 -0.17671985507E+02  0.28165342151E+02  0.26309225015E+02  0.42400010508E+02  0.00000000000E+00 0. -1.
</event>
<event>
 5    1  0.6835449E-004  0.9118800E+02  0.7818608E-02  0.1130116E+00
         25   -1    0    0    0    0  0.00000000000E+00  0.00000000000E+00  0.99999998245E-14  0.12500000000E+03  0.12500000000E+03 0.  0.
        -13    1    3    3    0    0  0.22756491044E+01  0.95619359093E+01  0.57370065700E+02  0.58206054664E+02  0.10566000000E+00 0. -1.
         23    2    1    0    0    0 -0.92059360372E+01  0.16399445341E+02  0.21771187645E+02  0.96230646909E+02  0.91829525357E+02 0.  0.
         13    1    3    3    0    0 -0.11481585142E+02  0.68375094313E+01 -0.35598878055E+02  0.38024592245E+02  0.10566000000E+00 0.  1.
         22    1    1    0    0    0  0.92059360372E+01 -0.16399445341E+02 -0.21771187645E+02  0.28769353091E+02  0.00000000000E+00 0. -1.
</event>
<event>
 5    1  0.6835449E-004  0.9118800E+02  0.7818608E-02  0.1130116E+00
         25   -1    0    0    0    0  0.00000000000E+00  0.00000000000E+00  0.99999998245E-14  0.12500000000E+03  0.12500000000E+03 0.  0.
        -13    1    3    3    0    0  0.45230950141E+02 -0.15500649392E+02 -0.11939358032E+02  0.49281522059E+02  0.10566000000E+00 0.  1.
         23    2    1    0    0    0  0.27994091875E+00 -0.19834730600E+02 -0.21821578613E+02  0.95509727060E+02  0.90842896063E+02 0.  0.
         13    1    3    3    0    0 -0.44951009222E+02 -0.43340812077E+01 -0.98822205811E+01  0.46228205001E+02  0.10566000000E+00 0. -1.
         22    1    1    0    0    0 -0.27994091875E+00  0.19834730600E+02  0.21821578613E+02  0.29490272940E+02  0.00000000000E+00 0.  1.
</event>
<event>
 5    1  0.6835449E-004  0.9118800E+02  0.7818608E-02  0.1130116E+00
         25   -1    0    0    0    0  0.00000000000E+00  0.00000000000E+00  0.99999998245E-14  0.12500000000E+03  0.12500000000E+03 0.  0.
        -13    1    3    3    0    0 -0.23687688194E+02 -0.23723124879E+02  0.26364285424E+02  0.42649501004E+02  0.10566000000E+00 0.  1.
         23    2    1    0    0    0 -0.20127554717E+02 -0.83318882579E-01 -0.21127860157E+02  0.95819323590E+02  0.91267907270E+02 0.  0.
         13    1    3    3    0    0  0.35601334764E+01  0.23639805996E+02 -0.47492145581E+02  0.53169822586E+02  0.10566000000E+00 0. -1.
         22    1    1    0    0    0  0.20127554717E+02  0.83318882579E-01  0.21127860157E+02  0.29180676410E+02  0.00000000000E+00 0. -1.
</event>
<event>
 5    1  0.6835449E-004  0.9118800E+02  0.7818608E-02  0.1130116E+00
         25   -1    0    0    0    0  0.00000000000E+00  0.00000000000E+00  0.99999998245E-14  0.12500000000E+03  0.12500000000E+03 0.  0.
        -13    1    3    3    0    0 -0.22714731335E+02 -0.30095069027E+01  0.41278697189E+02  0.47211843399E+02  0.10566000000E+00 0. -1.
         23    2    1    0    0    0 -0.25630243726E+02  0.21530301470E+02  0.49301779156E+01  0.91165551148E+02  0.84654520180E+02 0.  0.
         13    1    3    3    0    0 -0.29155123912E+01  0.24539808373E+02 -0.36348519274E+02  0.43953707749E+02  0.10566000000E+00 0.  1.
         22    1    1    0    0    0  0.25630243726E+02 -0.21530301470E+02 -0.49301779156E+01  0.33834448852E+02  0.00000000000E+00 0. -1.
</event>
<event>
 5    1  0.6835449E-004  0.9118800E+02  0.7818608E-02  0.1130116E+00
         25   -1    0    0    0    0  0.00000000000E+00  0.00000000000E+00  0.99999998245E-14  0.12500000000E+03  0.12500000000E+03 0.  0.
        -13    1    3    3    0    0  0.38143243909E+02 -0.35800775680E+02 -0.97405385496E+00  0.52321721494E+02  0.10566000000E+00 0. -1.
         23    2    1    0    0    0 -0.72797587742E+01 -0.13633976667E+02 -0.13593832741E+02  0.10441669375E+03  0.10236783400E+03 0.  0.
         13    1    3    3    0    0 -0.45423002683E+02  0.22166799012E+02 -0.12619778886E+02  0.52094972256E+02  0.10566000000E+00 0.  1.
         22    1    1    0    0    0  0.72797587742E+01  0.13633976667E+02  0.13593832741E+02  0.20583306250E+02  0.00000000000E+00 0. -1.
</event>
<event>
 5    1  0.6835449E-004  0.9118800E+02  0.7818608E-02  0.1130116E+00
         25   -1    0    0    0    0  0.00000000000E+00  0.00000000000E+00  0.99999998245E-14  0.12500000000E+03  0.12500000000E+03 0.  0.
        -13    1    3    3    0    0 -0.55575377135E+02  0.40202439420E+01  0.87382712316E+01  0.56401714985E+02  0.10566000000E+00 0.  1.
         23    2    1    0    0    0 -0.18166454496E+02  0.75804032226E+01  0.21274513164E+02  0.96015737161E+02  0.91536518888E+02 0.  0.
         13    1    3    3    0    0  0.37408922639E+02  0.35601592806E+01  0.12536241933E+02  0.39614022176E+02  0.10566000000E+00 0. -1.
         22    1    1    0    0    0  0.18166454496E+02 -0.75804032226E+01 -0.21274513164E+02  0.28984262839E+02  0.00000000000E+00 0.  1.
</event>
<event>
 5    1  0.6835449E-004  0.9118800E+02  0.7818608E-02  0.1130116E+00
         25   -1    0    0    0    0  0.00000000000E+00  0.00000000000E+00  0.99999998245E-14  0.12500000000E+03  0.12500000000E+03 0.  0.
        -13    1    3    3    0    0 -0.23521124451E+02  0.49607959051E+02  0.21591782433E+02  0.58994992409E+02  0.10566000000E+00 0. -1.
         23    2    1    0    0    0 -0.11194322822E+02  0.27887762304E+02 -0.39182643471E+01  0.94695001315E+02  0.89714827809E+02 0.  0.
         13    1    3    3    0    0  0.12326801629E+02 -0.21720196747E+02 -0.25510046780E+02  0.35700008906E+02  0.10566000000E+00 0.  1.
         22    1    1    0    0    0  0.11194322822E+02 -0.27887762304E+02  0.39182643471E+01  0.30304998685E+02  0.00000000000E+00 0. -1.
</event>
<event>
 5    1  0.6835449E-004  0.9118800E+02  0.7818608E-02  0.1130116E+00
         25   -1    0    0    0    0  0.00000000000E+00  0.00000000000E+00  0.99999998245E-14  0.12500000000E+03  0.12500000000E+03 0.  0.
        -13    1    3    3    0    0 -0.33730638969E+02 -0.66313450901E+01 -0.87636193077E+01  0.35475948618E+02  0.10566000000E+00 0. -1.
         23    2    1    0    0    0 -0.19933548774E+02  0.24361164553E+02 -0.34678189818E+02  0.78166363005E+02  0.62582671335E+02 0.  0.
         13    1    3    3    0    0  0.13797090195E+02  0.30992509643E+02 -0.25914570510E+02  0.42690414387E+02  0.10566000000E+00 0.  1.
         22    1    1    0    0    0  0.19933548774E+02 -0.24361164553E+02  0.34678189818E+02  0.46833636995E+02  0.00000000000E+00 0.  1.
</event>
<event>
 5    1  0.6835449E-004  0.9118800E+02  0.7818608E-02  0.1130116E+00
         25   -1    0    0    0    0  0.00000000000E+00  0.00000000000E+00  0.99999998245E-14  0.12500000000E+03  0.12500000000E+03 0.  0.
        -13    1    3    3    0    0  0.10963261318E+02 -0.33565811415E+02  0.78275871850E+01  0.36168205372E+02  0.10566000000E+00 0.  1.
         23    2    1    0    0    0 -0.79725444209E+01  0.23354373454E+02  0.14258422594E+02  0.96499283538E+02  0.92194473178E+02 0.  0.
         13    1    3    3    0    0 -0.18935805739E+02  0.56920184870E+02  0.64308354086E+01  0.60331078166E+02  0.10566000000E+00 0. -1.
         22    1    1    0    0    0  0.79725444209E+01 -0.23354373454E+02 -0.14258422594E+02  0.28500716462E+02  0.00000000000E+00 0. -1.
</event>
<event>
 5    1  0.6835449E-004  0.9118800E+02  0.7818608E-02  0.1130116E+00
         25   -1    0    0    0    0  0.00000000000E+00  0.00000000000E+00  0.99999998245E-14  0.12500000000E+03  0.12500000000E+03 0.  0.
        -13    1    3    3    0    0 -0.37443515057E+02 -0.30288301753E+01  0.73527854013E+01  0.38278783278E+02  0.10566000000E+00 0. -1.
         23    2    1    0    0    0  0.91330827191E+01 -0.54581243536E+00 -0.27184876014E+02  0.96316754105E+02  0.91946661311E+02 0.  0.
         13    1    3    3    0    0  0.46576597776E+02  0.24830177400E+01 -0.34537661416E+02  0.58037970826E+02  0.10566000000E+00 0.  1.
         22    1    1    0    0    0 -0.91330827191E+01  0.54581243536E+00  0.27184876014E+02  0.28683245895E+02  0.00000000000E+00 0.  1.
</event>
<event>
 5    1  0.6835449E-004  0.9118800E+02  0.7818608E-02  0.1130116E+00
         25   -1    0    0    0    0  0.00000000000E+00  0.00000000000E+00  0.99999998245E-14  0.12500000000E+03  0.12500000000E+03 0.  0.
        -13    1    3    3    0    0  0.27822298880E+01 -0.71659606005E+01  0.36234490335E+02  0.37041075151E+02  0.10566000000E+00 0.  1.
         23    2    1    0    0    0  0.16728468447E+01 -0.17493005358E+02 -0.22366758646E+02  0.96555746707E+02  0.92270995859E+02 0.  0.
         13    1    3    3    0    0 -0.11093830432E+01 -0.10327044758E+02 -0.58601248982E+02  0.59514671556E+02  0.10566000000E+00 0. -1.
         22    1    1    0    0    0 -0.16728468447E+01  0.17493005358E+02  0.22366758646E+02  0.28444253293E+02  0.00000000000E+00 0. -1.
</event>
<event>
 5    1  0.6835449E-004  0.9118800E+02  0.7818608E-02  0.1130116E+00
         25   -1    0    0    0    0  0.00000000000E+00  0.00000000000E+00  0.99999998245E-14  0.12500000000E+03  0.12500000000E+03 0.  0.
        -13    1    3    3    0    0 -0.38036968873E+02 -0.88939354459E+01 -0.16496884874E+02  0.42403672758E+02  0.10566000000E+00 0.  1.
         23    2    1    0    0    0  0.86737366321E+01 -0.28113043612E+02  0.12671916657E+00  0.95579038322E+02  0.90938218481E+02 0.  0.
         13    1    3    3    0    0  0.46710705505E+02 -0.19219108166E+02  0.16623604040E+02  0.53175365564E+02  0.10566000000E+00 0. -1.
         22    1    1    0    0    0 -0.86737366321E+01  0.28113043612E+02 -0.12671916657E+00  0.29420961678E+02  0.00000000000E+00 0.  1.
</event>
<event>
 5    1  0.6835449E-004  0.9118800E+02  0.7818608E-02  0.1130116E+00
         25   -1    0    0    0    0  0.00000000000E+00  0.00000000000E+00  0.99999998245E-14  0.12500000000E+03  0.12500000000E+03 0.  0.
        -13    1    3    3    0    0  0.27949417948E+02  0.41286394575E+02  0.21125575410E+01  0.49902008016E+02  0.10566000000E+00 0.  1.
         23    2    1    0    0    0 -0.79907961236E+01  0.21705811722E+02  0.19861299742E+02  0.94512850040E+02  0.89460675775E+02 0.  0.
         13    1    3    3    0    0 -0.35940214071E+02 -0.19580582853E+02  0.17748742201E+02  0.44610842024E+02  0.10566000000E+00 0. -1.
         22    1    1    0    0    0  0.79907961236E+01 -0.21705811722E+02 -0.19861299742E+02  0.30487149960E+02  0.00000000000E+00 0.  1.
</event>
<event>
 5    1  0.6835449E-004  0.9118800E+02  0.7818608E-02  0.1130116E+00
         25   -1    0    0    0    0  0.00000000000E+00  0.00000000000E+00  0.99999998245E-14  0.12500000000E+03  0.12500000000E+03 0.  0.
        -13    1    3    3    0    0  0.37385793655E+02  0.12894859109E+02 -0.79739539082E+01  0.40343153863E+02  0.10566000000E+00 0.  1.
         23    2    1    0    0    0 -0.12390536910E+02 -0.14842411938E+02 -0.18443083704E+02  0.98279784179E+02  0.94577724886E+02 0.  0.
         13    1    3    3    0    0 -0.49776330565E+02 -0.27737271046E+02 -0.10469129796E+02  0.57936630316E+02  0.10566000000E+00 0. -1.
         22    1    1    0    0    0  0.12390536910E+02  0.14842411938E+02  0.18443083704E+02  0.26720215821E+02  0.00000000000E+00 0. -1.
</event>
<event>
 5    1  0.6835449E-004  0.9118800E+02  0.7818608E-02  0.1130116E+00
         25   -1    0    0    0    0  0.00000000000E+00  0.00000000000E+00  0.99999998245E-14  0.12500000000E+03  0.12500000000E+03 0.  0.
        -13    1    3    3    0    0 -0.43316331142E+02  0.20026807894E+02 -0.23989024669E+02  0.53412190056E+02  0.10566000000E+00 0.  1.
         23    2    1    0    0    0 -0.28190655525E+02  0.12528653860E+02  0.10989426662E+02  0.92251752339E+02  0.86243481405E+02 0.  0.
         13    1    3    3    0    0  0.15125675617E+02 -0.74981540332E+01  0.34978451331E+02  0.38839562283E+02  0.10566000000E+00 0. -1.
         22    1    1    0    0    0  0.28190655525E+02 -0.12528653860E+02 -0.10989426662E+02  0.32748247661E+02  0.00000000000E+00 0.  1.
</event>
<event>
 5    1  0.6835449E-004  0.9118800E+02  0.7818608E-02  0.1130116E+00
         25   -1    0    0    0    0  0.00000000000E+00  0.00000000000E+00  0.99999998245E-14  0.12500000000E+03  0.12500000000E+03 0.  0.
        -13    1    3    3    0    0 -0.37915084513E+02 -0.50991836628E+01  0.47615991370E+02  0.61080677025E+02  0.10566000000E+00 0.  1.
         23    2    1    0    0    0 -0.10501193888E+02 -0.93550666100E+01  0.22286550152E+02  0.98646961048E+02  0.95061770770E+02 0.  0.
         13    1    3    3    0    0  0.27413890625E+02 -0.42558829473E+01 -0.25329441218E+02  0.37566284023E+02  0.10566000000E+00 0. -1.
         22    1    1    0    0    0  0.10501193888E+02  0.93550666100E+01 -0.22286550152E+02  0.26353038952E+02  0.00000000000E+00 0.  1.
</event>
<event>
 5    1  0.6835449E-004  0.9118800E+02  0.7818608E-02  0.1130116E+00
         25   -1    0    0    0    0  0.00000000000E+00  0.00000000000E+00  0.99999998245E-14  0.12500000000E+03  0.12500000000E+03 0.  0.
        -13    1    3    3    0    0  0.12498250997E+02  0.21326494695E+02 -0.19807297258E+02  0.31675950540E+02  0.10566000000E+00 0. -1.
         23    2    1    0    0    0 -0.17956815289E+02 -0.24212965964E+02  0.89565983304E+01  0.93552653693E+02  0.88108815809E+02 0.  0.
         13    1    3    3    0    0 -0.30455066286E+02 -0.45539460659E+02  0.28763895588E+02  0.61876703153E+02  0.10566000000E+00 0.  1.
         22    1    1    0    0    0  0.17956815289E+02  0.24212965964E+02 -0.89565983304E+01  0.31447346307E+02  0.00000000000E+00 0.  1.
</event>
<event>
 5    1  0.6835449E-004  0.9118800E+02  0.7818608E-02  0.1130116E+00
         25   -1    0    0    0    0  0.00000000000E+00  0.00000000000E+00  0.99999998245E-14  0.12500000000E+03  0.12500000000E+03 0.  0.
        -13    1    3    3    0    0 -0.66918010846E+01 -0.24169982017E+02  0.55370689110E+02  0.60785628310E+02  0.10566000000E+00 0. -1.
         23    2    1    0    0    0 -0.11730713590E+02 -0.10188174731E+02  0.16820633190E+02  0.10210147938E+03  0.99500602234E+02 0.  0.
         13    1    3    3    0    0 -0.50389125050E+01  0.13981807286E+02 -0.38550055920E+02  0.41315851070E+02  0.10566000000E+00 0.  1.
         22    1    1    0    0    0  0.11730713590E+02  0.10188174731E+02 -0.16820633190E+02  0.22898520620E+02  0.00000000000E+00 0. -1.
</event>
<event>
 5    1  0.6835449E-004  0.9118800E+02  0.7818608E-02  0.1130116E+00
         25   -1    0    0    0    0  0.00000000000E+00  0.00000000000E+00  0.99999998245E-14  0.12500000000E+03  0.12500000000E+03 0.  0.
        -13    1    3    3    0    0 -0.29903022601E+02  0.23476511374E+02  0.29922905647E+02  0.48381078878E+02  0.10566000000E+00 0. -1.
         23    2    1    0    0    0  0.10269643616E+01  0.28254954050E+02 -0.60742844471E+01  0.96081251484E+02  0.91625939946E+02 0.  0.
         13    1    3    3    0    0  0.30929986962E+02  0.47784426765E+01 -0.35997190095E+02  0.47700172606E+02  0.10566000000E+00 0.  1.
         22    1    1    0    0    0 -0.10269643616E+01 -0.28254954050E+02  0.60742844471E+01  0.28918748516E+02  0.00000000000E+00 0.  1.
</event>
<event>
 5    1  0.6835449E-004  0.9118800E+02  0.7818608E-02  0.1130116E+00
         25   -1    0    0    0    0  0.00000000000E+00  0.00000000000E+00  0.99999998245E-14  0.12500000000E+03  0.12500000000E+03 0.  0.
        -13    1    3    3    0    0  0.53930069129E+02  0.26534499603E+02  0.13248624196E+02  0.61547292650E+02  0.10566000000E+00 0. -1.
         23    2    1    0    0    0  0.21107487384E+02  0.18822989313E+02  0.46972795423E+01  0.96331282110E+02  0.91966409778E+02 0.  0.
         13    1    3    3    0    0 -0.32822581744E+02 -0.77115102901E+01 -0.85513446541E+01  0.34783989460E+02  0.10566000000E+00 0.  1.
         22    1    1    0    0    0 -0.21107487384E+02 -0.18822989313E+02 -0.46972795423E+01  0.28668717890E+02  0.00000000000E+00 0. -1.
</event>
<event>
 5    1  0.6835449E-004  0.9118800E+02  0.7818608E-02  0.1130116E+00
         25   -1    0    0    0    0  0.00000000000E+00  0.00000000000E+00  0.99999998245E-14  0.12500000000E+03  0.12500000000E+03 0.  0.
        -13    1    3    3    0    0  0.36574675870E+02  0.28592535932E+02 -0.34945222753E+02  0.58106968457E+02  0.10566000000E+00 0. -1.
         23    2    1    0    0    0  0.21976248952E+02  0.34356679662E+02 -0.20883851575E+02  0.79180002052E+02  0.64575541136E+02 0.  0.
         13    1    3    3    0    0 -0.14598426918E+02  0.57641437298E+01  0.14061371178E+02  0.21073033595E+02  0.10566000000E+00 0.  1.
         22    1    1    0    0    0 -0.21976248952E+02 -0.34356679662E+02  0.20883851575E+02  0.45819997948E+02  0.00000000000E+00 0. -1.
</event>
<event>
 5    1  0.6835449E-004  0.9118800E+02  0.7818608E-02  0.1130116E+00
         25   -1    0    0    0    0  0.00000000000E+00  0.00000000000E+00  0.99999998245E-14  0.12500000000E+03  0.12500000000E+03 0.  0.
        -13    1    3    3    0    0 -0.50786288115E+02  0.32900803681E+02  0.11971449530E+01  0.60523997418E+02  0.10566000000E+00 0.  1.
         23    2    1    0    0    0 -0.15684011131E+02  0.10980574517E+02  0.10814127811E+02  0.10301121690E+03  0.10063699233E+03 0.  0.
         13    1    3    3    0    0  0.35102276984E+02 -0.21920229165E+02  0.96169828579E+01  0.42487219483E+02  0.10566000000E+00 0. -1.
         22    1    1    0    0    0  0.15684011131E+02 -0.10980574517E+02 -0.10814127811E+02  0.21988783099E+02  0.00000000000E+00 0.  1.
</event>
<event>
 5    1  0.6835449E-004  0.9118800E+02  0.7818608E-02  0.1130116E+00
         25   -1    0    0    0    0  0.00000000000E+00  0.00000000000E+00  0.99999998245E-14  0.12500000000E+03  0.12500000000E+03 0.  0.
        -13    1    3    3    0    0 -0.35694490252E+02  0.65140619368E+01  0.14265833785E+02  0.38987880359E+02  0.10566000000E+00 0.  1.
         23    2    1    0    0    0  0.17823175670E+02 -0.11842793233E+02  0.19812338756E+02  0.95837590815E+02  0.91292922528E+02 0.  0.
         13    1    3    3    0    0  0.53517665922E+02 -0.18356855170E+02  0.55465049703E+01  0.56849710456E+02  0.10566000000E+00 0. -1.
         22    1    1    0    0    0 -0.17823175670E+02  0.11842793233E+02 -0.19812338756E+02  0.29162409185E+02  0.00000000000E+00 0. -1.
</event>
<event>
 5    1  0.6835449E-004  0.9118800E+02  0.7818608E-02  0.1130116E+00
         25   -1    0    0    0    0  0.00000000000E+00  0.00000000000E+00  0.99999998245E-14  0.12500000000E+03  0.12500000000E+03 0.  0.
        -13    1    3    3    0    0 -0.31425791029E+02  0.44620040568E+02 -0.99958428388E+01  0.55483839090E+02  0.10566000000E+00 0. -1.
         23    2    1    0    0    0 -0.18372036780E+02  0.71232952696E+01 -0.20511770511E+02  0.96556972727E+02  0.92272656740E+02 0.  0.
         13    1    3    3    0    0  0.13053754249E+02 -0.37496745298E+02 -0.10515927672E+02  0.41073133637E+02  0.10566000000E+00 0.  1.
         22    1    1    0    0    0  0.18372036780E+02 -0.71232952696E+01  0.20511770511E+02  0.28443027273E+02  0.00000000000E+00 0. -1.
</event>
<event>
 5    1  0.6835449E-004  0.9118800E+02  0.7818608E-02  0.1130116E+00
         25   -1    0    0    0    0  0.00000000000E+00  0.00000000000E+00  0.99999998245E-14  0.12500000000E+03  0.12500000000E+03 0.  0.
        -13    1    3    3    0    0  0.26409996288E+02  0.47529914949E+02  0.26158249200E+02  0.60339422306E+02  0.10566000000E+00 0.  1.
         23    2    1    0    0    0  0.22148837730E+02  0.16079986759E+02  0.11169132795E+02  0.95438428419E+02  0.90744735961E+02 0.  0.
         13    1    3    3    0    0 -0.42611585577E+01 -0.31449928190E+02 -0.14989116405E+02  0.35099006112E+02  0.10566000000E+00 0. -1.
         22    1    1    0    0    0 -0.22148837730E+02 -0.16079986759E+02 -0.11169132795E+02  0.29561571581E+02  0.00000000000E+00 0.  1.
</event>
<event>
 5    1  0.6835449E-004  0.9118800E+02  0.7818608E-02  0.1130116E+00
         25   -1    0    0    0    0  0.00000000000E+00  0.00000000000E+00  0.99999998245E-14  0.12500000000E+03  0.12500000000E+03 0.  0.
        -13    1    3    3    0    0 -0.23130564223E+02  0.20203198894E+02 -0.15719492648E+02  0.34500809555E+02  0.10566000000E+00 0.  1.
         23    2    1    0    0    0 -0.17557273752E+02 -0.31853246257E+02 -0.22544539942E+01  0.88558681122E+02  0.80713507423E+02 0.  0.
         13    1    3    3    0    0  0.55732904703E+01 -0.52056445151E+02  0.13465038654E+02  0.54057871567E+02  0.10566000000E+00 0. -1.
         22    1    1    0    0    0  0.17557273752E+02  0.31853246257E+02  0.22544539942E+01  0.36441318878E+02  0.00000000000E+00 0. -1.
</event>
<event>
 5    1  0.6835449E-004  0.9118800E+02  0.7818608E-02  0.1130116E+00
         25   -1    0    0    0    0  0.00000000000E+00  0.00000000000E+00  0.99999998245E-14  0.12500000000E+03  0.12500000000E+03 0.  0.
        -13    1    3    3    0    0 -0.14441537787E+02  0.40742221137E+02  0.44648141631E+02  0.62144624160E+02  0.10566000000E+00 0.  1.
         23    2    1    0    0    0 -0.85748899897E+01  0.17722068057E+02  0.26225483597E+02  0.92207067462E+02  0.86178691482E+02 0.  0.
         13    1    3    3    0    0  0.58666477974E+01 -0.23020153080E+02 -0.18422658034E+02  0.30062443302E+02  0.10566000000E+00 0. -1.
         22    1    1    0    0    0  0.85748899897E+01 -0.17722068057E+02 -0.26225483597E+02  0.32792932538E+02  0.00000000000E+00 0.  1.
</event>
<event>
 5    1  0.6835449E-004  0.9118800E+02  0.7818608E-02  0.1130116E+00
         25   -1    0    0    0    0  0.00000000000E+00  0.00000000000E+00  0.99999998245E-14  0.12500000000E+03  0.12500000000E+03 0.  0.
        -13    1    3    3    0    0  0.31521263733E+02 -0.31510955144E+02  0.45524612545E+01  0.44802527037E+02  0.10566000000E+00 0. -1.
         23    2    1    0    0    0 -0.17158640926E+02 -0.25846410315E+02  0.29400358792E+01  0.93837527448E+02  0.88512043598E+02 0.  0.
         13    1    3    3    0    0 -0.48679904658E+02  0.56645448289E+01 -0.16124253753E+01  0.49035000411E+02  0.10566000000E+00 0.  1.
         22    1    1    0    0    0  0.17158640926E+02  0.25846410315E+02 -0.29400358792E+01  0.31162472552E+02  0.00000000000E+00 0.  1.
</event>
<event>
 5    1  0.6835449E-004  0.9118800E+02  0.7818608E-02  0.1130116E+00
         25   -1    0    0    0    0  0.00000000000E+00  0.00000000000E+00  0.99999998245E-14  0.12500000000E+03  0.12500000000E+03 0.  0.
        -13    1    3    3    0    0 -0.19262186361E+02 -0.21136954866E+02  0.49254631303E+02  0.56954653482E+02  0.10566000000E+00 0.  1.
         23    2    1    0    0    0 -0.24237893644E+02 -0.11282230981E+02  0.12211275987E+02  0.95608173152E+02  0.90978257227E+02 0.  0.
         13    1    3    3    0    0 -0.49757072827E+01  0.98547238846E+01 -0.37043355316E+02  0.38653519670E+02  0.10566000000E+00 0. -1.
         22    1    1    0    0    0  0.24237893644E+02  0.11282230981E+02 -0.12211275987E+02  0.29391826848E+02  0.00000000000E+00 0.  1.
</event>
<event>
 5    1  0.6835449E-004  0.9118800E+02  0.7818608E-02  0.1130116E+00
         25   -1    0    0    0    0  0.00000000000E+00  0.00000000000E+00  0.99999998245E-14  0.12500000000E+03  0.12500000000E+03 0.  0.
        -13    1    3    3    0    0  0.15474863489E+02 -0.53649540980E+02  0.23621025157E+02  0.60627622754E+02  0.10566000000E+00 0.  1.
         23    2    1    0    0    0  0.13525726180E+02 -0.19070493323E+02  0.17493996366E+02  0.95799505259E+02  0.91240760161E+02 0.  0.
         13    1    3    3    0    0 -0.19491373091E+01  0.34579047657E+02 -0.61270287909E+01  0.35171882505E+02  0.10566000000E+00 0. -1.
         22    1    1    0    0    0 -0.13525726180E+02  0.19070493323E+02 -0.17493996366E+02  0.29200494741E+02  0.00000000000E+00 0.  1.
</event>
<event>
 5    1  0.6835449E-004  0.9118800E+02  0.7818608E-02  0.1130116E+00
         25   -1    0    0    0    0  0.00000000000E+00  0.00000000000E+00  0.99999998245E-14  0.12500000000E+03  0.12500000000E+03 0.  0.
        -13    1    3    3    0    0 -0.22504488546E+02 -0.28961320794E+02 -0.55385805249E+01  0.37093087565E+02  0.10566000000E+00 0.  1.
         23    2    1    0    0    0  0.26026192961E+02 -0.10157188182E+02  0.15288981448E+02  0.93152172044E+02  0.87538808599E+02 0.  0.
         13    1    3    3    0    0  0.48530681507E+02  0.18804132612E+02  0.20827561973E+02  0.56059084479E+02  0.10566000000E+00 0. -1.
         22    1    1    0    0    0 -0.26026192961E+02  0.10157188182E+02 -0.15288981448E+02  0.31847827956E+02  0.00000000000E+00 0. -1.
</event>
<event>
 5    1  0.6835449E-004  0.9118800E+02  0.7818608E-02  0.1130116E+00
         25   -1    0    0    0    0  0.00000000000E+00  0.00000000000E+00  0.99999998245E-14  0.12500000000E+03  0.12500000000E+03 0.  0.
        -13    1    3    3    0    0 -0.55624658022E+01 -0.72918164683E+01 -0.39438200766E+02  0.40490671233E+02  0.10566000000E+00 0.  1.
         23    2    1    0    0    0  0.29276001249E+02  0.58936195536E+00  0.25391420098E+01  0.95608184153E+02  0.90978272341E+02 0.  0.
         13    1    3    3    0    0  0.34838467051E+02  0.78811784236E+01  0.41977342776E+02  0.55117512919E+02  0.10566000000E+00 0. -1.
         22    1    1    0    0    0 -0.29276001249E+02 -0.58936195536E+00 -0.25391420098E+01  0.29391815847E+02  0.00000000000E+00 0. -1.
</event>
<event>
 5    1  0.6835449E-004  0.9118800E+02  0.7818608E-02  0.1130116E+00
         25   -1    0    0    0    0  0.00000000000E+00  0.00000000000E+00  0.99999998245E-14  0.12500000000E+03  0.12500000000E+03 0.  0.
        -13    1    3    3    0    0 -0.99143983250E+01 -0.34979659927E+02 -0.33454453005E+01  0.36511300593E+02  0.10566000000E+00 0.  1.
         23    2    1    0    0    0 -0.76754107940E+01  0.21247534928E+02  0.17399110861E+02  0.96485113885E+02  0.92175259540E+02 0.  0.
         13    1    3    3    0    0  0.22389875310E+01  0.56227194855E+02  0.20744556161E+02  0.59973813292E+02  0.10566000000E+00 0. -1.
         22    1    1    0    0    0  0.76754107940E+01 -0.21247534928E+02 -0.17399110861E+02  0.28514886115E+02  0.00000000000E+00 0. -1.
</event>
<event>
 5    1  0.6835449E-004  0.9118800E+02  0.7818608E-02  0.1130116E+00
         25   -1    0    0    0    0  0.00000000000E+00  0.00000000000E+00  0.99999998245E-14  0.12500000000E+03  0.12500000000E+03 0.  0.
        -13    1    3    3    0    0 -0.31066387447E+02 -0.74722999710E+01  0.15339140453E+02  0.35443703105E+02  0.10566000000E+00 0.  1.
         23    2    1    0    0    0  0.20356532545E+02 -0.59980668761E+01 -0.18356356831E+02  0.96940758035E+02  0.92791106841E+02 0.  0.
         13    1    3    3    0    0  0.51422919993E+02  0.14742330949E+01 -0.33695497285E+02  0.61497054930E+02  0.10566000000E+00 0. -1.
         22    1    1    0    0    0 -0.20356532545E+02  0.59980668761E+01  0.18356356831E+02  0.28059241965E+02  0.00000000000E+00 0. -1.
</event>
<event>
 5    1  0.6835449E-004  0.9118800E+02  0.7818608E-02  0.1130116E+00
         25   -1    0    0    0    0  0.00000000000E+00  0.00000000000E+00  0.99999998245E-14  0.12500000000E+03  0.12500000000E+03 0.  0.
        -13    1    3    3    0    0  0.16161432258E+02 -0.49360451010E+02 -0.18105495987E+02  0.55004237705E+02  0.10566000000E+00 0. -1.
         23    2    1    0    0    0 -0.10076478511E+01 -0.27038096580E+02  0.11262451807E+02  0.95692716919E+02  0.91094342469E+02 0.  0.
         13    1    3    3    0    0 -0.17169080109E+02  0.22322354430E+02  0.29367947794E+02  0.40688479214E+02  0.10566000000E+00 0.  1.
         22    1    1    0    0    0  0.10076478511E+01  0.27038096580E+02 -0.11262451807E+02  0.29307283081E+02  0.00000000000E+00 0. -1.
</event>
<event>
 5    1  0.6835449E-004  0.9118800E+02  0.7818608E-02  0.1130116E+00
         25   -1    0    0    0    0  0.00000000000E+00  0.00000000000E+00  0.99999998245E-14  0.12500000000E+03  0.12500000000E+03 0.  0.
        -13    1    3    3    0    0 -0.32190505651E+02 -0.83199442947E+01  0.10216659977E+02  0.34782774936E+02  0.10566000000E+00 0.  1.
         23    2    1    0    0    0  0.24227570978E+02  0.14490424446E+02 -0.13936527554E+01  0.96735360180E+02  0.92513999184E+02 0.  0.
         13    1    3    3    0    0  0.56418076629E+02  0.22810368741E+02 -0.11610312732E+02  0.61952585244E+02  0.10566000000E+00 0. -1.
         22    1    1    0    0    0 -0.24227570978E+02 -0.14490424446E+02  0.13936527554E+01  0.28264639820E+02  0.00000000000E+00 0. -1.
</event>
<event>
 5    1  0.6835449E-004  0.9118800E+02  0.7818608E-02  0.1130116E+00
         25   -1    0    0    0    0  0.00000000000E+00  0.00000000000E+00  0.99999998245E-14  0.12500000000E+03  0.12500000000E+03 0.  0.
        -13    1    3    3    0    0  0.26854329772E+02 -0.32737602358E+02 -0.25862542789E+02  0.49616407763E+02  0.10566000000E+00 0.  1.
         23    2    1    0    0    0 -0.16122355827E+02 -0.20323150108E+02 -0.11730962557E+02  0.96529378822E+02  0.92235268231E+02 0.  0.
         13    1    3    3    0    0 -0.42976685599E+02  0.12414452250E+02  0.14131580232E+02  0.46912971060E+02  0.10566000000E+00 0. -1.
         22    1    1    0    0    0  0.16122355827E+02  0.20323150108E+02  0.11730962557E+02  0.28470621178E+02  0.00000000000E+00 0. -1.
</event>
<event>
 5    1  0.6835449E-004  0.9118800E+02  0.7818608E-02  0.1130116E+00
         25   -1    0    0    0    0  0.00000000000E+00  0.00000000000E+00  0.99999998245E-14  0.12500000000E+03  0.12500000000E+03 0.  0.
        -13    1    3    3    0    0 -0.10758036376E+02 -0.29520969563E+01 -0.50701974336E+02  0.51914849405E+02  0.10566000000E+00 0. -1.
         23    2    1    0    0    0 -0.26415267439E+02 -0.16912111633E+00 -0.81280904391E+01  0.97361968051E+02  0.93356799499E+02 0.  0.
         13    1    3    3    0    0 -0.15657231063E+02  0.27829758399E+01  0.42573883897E+02  0.45447118646E+02  0.10566000000E+00 0.  1.
         22    1    1    0    0    0  0.26415267439E+02  0.16912111633E+00  0.81280904391E+01  0.27638031949E+02  0.00000000000E+00 0. -1.
</event>
<event>
 5    1  0.6835449E-004  0.9118800E+02  0.7818608E-02  0.1130116E+00
         25   -1    0    0    0    0  0.00000000000E+00  0.00000000000E+00  0.99999998245E-14  0.12500000000E+03  0.12500000000E+03 0.  0.
        -13    1    3    3    0    0 -0.24761020446E+01 -0.43131811542E+02  0.38043074204E+01  0.43370129896E+02  0.10566000000E+00 0.  1.
         23    2    1    0    0    0 -0.51630185069E+01 -0.20691494452E+01 -0.28672729990E+02  0.95792747740E+02  0.91231501878E+02 0.  0.
         13    1    3    3    0    0 -0.26869164623E+01  0.41062662097E+02 -0.32477037410E+02  0.52422617843E+02  0.10566000000E+00 0. -1.
         22    1    1    0    0    0  0.51630185069E+01  0.20691494452E+01  0.28672729990E+02  0.29207252260E+02  0.00000000000E+00 0. -1.
</event>
<event>
 5    1  0.6835449E-004  0.9118800E+02  0.7818608E-02  0.1130116E+00
         25   -1    0    0    0    0  0.00000000000E+00  0.00000000000E+00  0.99999998245E-14  0.12500000000E+03  0.12500000000E+03 0.  0.
        -13    1    3    3    0    0 -0.15955869932E+02 -0.10804844286E+02 -0.41254391841E+02  0.45533179722E+02  0.10566000000E+00 0. -1.
         23    2    1    0    0    0 -0.16968720281E+02 -0.20445196823E+02  0.91788213950E+01  0.96889605067E+02  0.92722172465E+02 0.  0.
         13    1    3    3    0    0 -0.10128503484E+01 -0.96403525376E+01  0.50433213236E+02  0.51356425345E+02  0.10566000000E+00 0.  1.
         22    1    1    0    0    0  0.16968720281E+02  0.20445196823E+02 -0.91788213950E+01  0.28110394933E+02  0.00000000000E+00 0. -1.
</event>
<event>
 5    1  0.6835449E-004  0.9118800E+02  0.7818608E-02  0.1130116E+00
         25   -1    0    0    0    0  0.00000000000E+00  0.00000000000E+00  0.99999998245E-14  0.12500000000E+03  0.12500000000E+03 0.  0.
        -13    1    3    3    0    0  0.10609087192E+01 -0.57247294624E+02 -0.34822722175E+01  0.57363016421E+02  0.10566000000E+00 0.  1.
         23    2    1    0    0    0 -0.36253398664E+01 -0.21989880088E+02 -0.18562421499E+02  0.95995493327E+02  0.91508870235E+02 0.  0.
         13    1    3    3    0    0 -0.46862485856E+01  0.35257414535E+02 -0.15080149281E+02  0.38632476906E+02  0.10566000000E+00 0. -1.
         22    1    1    0    0    0  0.36253398664E+01  0.21989880088E+02  0.18562421499E+02  0.29004506673E+02  0.00000000000E+00 0.  1.
</event>
<event>
 5    1  0.6835449E-004  0.9118800E+02  0.7818608E-02  0.1130116E+00
         25   -1    0    0    0    0  0.00000000000E+00  0.00000000000E+00  0.99999998245E-14  0.12500000000E+03  0.12500000000E+03 0.  0.
        -13    1    3    3    0    0  0.23652801950E+02  0.25065356734E+02 -0.53917549210E+01  0.34882794232E+02  0.10566000000E+00 0. -1.
         23    2    1    0    0    0 -0.22416182206E+02 -0.49056234645E+01  0.19187021925E+02  0.95088594539E+02  0.90261556793E+02 0.  0.
         13    1    3    3    0    0 -0.46068984157E+02 -0.29970980198E+02  0.24578776846E+02  0.60205800307E+02  0.10566000000E+00 0.  1.
         22    1    1    0    0    0  0.22416182206E+02  0.49056234645E+01 -0.19187021925E+02  0.29911405461E+02  0.00000000000E+00 0.  1.
</event>
<event>
 5    1  0.6835449E-004  0.9118800E+02  0.7818608E-02  0.1130116E+00
         25   -1    0    0    0    0  0.00000000000E+00  0.00000000000E+00  0.99999998245E-14  0.12500000000E+03  0.12500000000E+03 0.  0.
        -13    1    3    3    0    0  0.33732882452E+02 -0.25646411605E+02 -0.69375661768E+01  0.42939338318E+02  0.10566000000E+00 0.  1.
         23    2    1    0    0    0 -0.17699567161E+02 -0.14208687298E+02  0.12486750556E+02  0.99094780220E+02  0.95648811048E+02 0.  0.
         13    1    3    3    0    0 -0.51432449613E+02  0.11437724307E+02  0.19424316733E+02  0.56155441901E+02  0.10566000000E+00 0. -1.
         22    1    1    0    0    0  0.17699567161E+02  0.14208687298E+02 -0.12486750556E+02  0.25905219780E+02  0.00000000000E+00 0. -1.
</event>
<event>
 5    1  0.6835449E-004  0.9118800E+02  0.7818608E-02  0.1130116E+00
         25   -1    0    0    0    0  0.00000000000E+00  0.00000000000E+00  0.99999998245E-14  0.12500000000E+03  0.12500000000E+03 0.  0.
        -13    1    3    3    0    0 -0.12815685544E+02  0.26418422035E+02  0.12840970592E+02  0.32048034395E+02  0.10566000000E+00 0. -1.
         23    2    1    0    0    0  0.13895272516E+02 -0.24885952558E+02  0.19783431337E+02  0.90304562425E+02  0.83373500624E+02 0.  0.
         13    1    3    3    0    0  0.26710958060E+02 -0.51304374594E+02  0.69424607446E+01  0.58256528030E+02  0.10566000000E+00 0.  1.
         22    1    1    0    0    0 -0.13895272516E+02  0.24885952558E+02 -0.19783431337E+02  0.34695437575E+02  0.00000000000E+00 0.  1.
</event>
<event>
 5    1  0.6835449E-004  0.9118800E+02  0.7818608E-02  0.1130116E+00
         25   -1    0    0    0    0  0.00000000000E+00  0.00000000000E+00  0.99999998245E-14  0.12500000000E+03  0.12500000000E+03 0.  0.
        -13    1    3    3    0    0 -0.26492120662E+02  0.21069772395E+02 -0.71279747430E+01  0.34591717996E+02  0.10566000000E+00 0.  1.
         23    2    1    0    0    0  0.13606214746E+02 -0.19183565298E+02 -0.21430539194E+02  0.93181667747E+02  0.87580916509E+02 0.  0.
         13    1    3    3    0    0  0.40098335408E+02 -0.40253337693E+02 -0.14302564451E+02  0.58589949751E+02  0.10566000000E+00 0. -1.
         22    1    1    0    0    0 -0.13606214746E+02  0.19183565298E+02  0.21430539194E+02  0.31818332253E+02  0.00000000000E+00 0. -1.
</event>
<event>
 5    1  0.6835449E-004  0.9118800E+02  0.7818608E-02  0.1130116E+00
         25   -1    0    0    0    0  0.00000000000E+00  0.00000000000E+00  0.99999998245E-14  0.12500000000E+03  0.12500000000E+03 0.  0.
        -13    1    3    3    0    0 -0.31306809764E+02 -0.20341082696E+02  0.58158489569E+01  0.37785066441E+02  0.10566000000E+00 0.  1.
         23    2    1    0    0    0  0.22898030923E+02 -0.36366059691E+00  0.16810899654E+02  0.96591226420E+02  0.92319047899E+02 0.  0.
         13    1    3    3    0    0  0.54204840687E+02  0.19977422099E+02  0.10995050697E+02  0.58806159979E+02  0.10566000000E+00 0. -1.
         22    1    1    0    0    0 -0.22898030923E+02  0.36366059691E+00 -0.16810899654E+02  0.28408773580E+02  0.00000000000E+00 0. -1.
</event>
<event>
 5    1  0.6835449E-004  0.9118800E+02  0.7818608E-02  0.1130116E+00
         25   -1    0    0    0    0  0.00000000000E+00  0.00000000000E+00  0.99999998245E-14  0.12500000000E+03  0.12500000000E+03 0.  0.
        -13    1    3    3    0    0  0.28270046237E+02  0.20216058221E+01 -0.20147324834E+02  0.34773672028E+02  0.10566000000E+00 0. -1.
         23    2    1    0    0    0 -0.22267636949E+02  0.17659745343E+02  0.90188530843E+01  0.95182991904E+02  0.90392189795E+02 0.  0.
         13    1    3    3    0    0 -0.50537683186E+02  0.15638139520E+02  0.29166177918E+02  0.60409319876E+02  0.10566000000E+00 0.  1.
         22    1    1    0    0    0  0.22267636949E+02 -0.17659745343E+02 -0.90188530843E+01  0.29817008096E+02  0.00000000000E+00 0.  1.
</event>
<event>
 5    1  0.6835449E-004  0.9118800E+02  0.7818608E-02  0.1130116E+00
         25   -1    0    0    0    0  0.00000000000E+00  0.00000000000E+00  0.99999998245E-14  0.12500000000E+03  0.12500000000E+03 0.  0.
        -13    1    3    3    0    0 -0.11082928195E+02  0.49834432220E+02 -0.55341232442E+01  0.51351140359E+02  0.10566000000E+00 0. -1.
         23    2    1    0    0    0  0.32708449086E+01  0.28725987334E+02  0.21829565794E+02  0.88772790371E+02  0.81044417407E+02 0.  0.
         13    1    3    3    0    0  0.14353773103E+02 -0.21108444886E+02  0.27363689038E+02  0.37421650012E+02  0.10566000000E+00 0.  1.
         22    1    1    0    0    0 -0.32708449086E+01 -0.28725987334E+02 -0.21829565794E+02  0.36227209629E+02  0.00000000000E+00 0. -1.
</event>
<event>
 5    1  0.6835449E-004  0.9118800E+02  0.7818608E-02  0.1130116E+00
         25   -1    0    0    0    0  0.00000000000E+00  0.00000000000E+00  0.99999998245E-14  0.12500000000E+03  0.12500000000E+03 0.  0.
        -13    1    3    3    0    0 -0.36084236698E+02  0.44851501683E+02  0.20117341186E+02  0.60979077737E+02  0.10566000000E+00 0. -1.
         23    2    1    0    0    0 -0.11014787991E+02  0.26537910517E+02  0.15456948904E+02  0.92373269877E+02  0.86419427615E+02 0.  0.
         13    1    3    3    0    0  0.25069448706E+02 -0.18313591166E+02 -0.46603922817E+01  0.31394192140E+02  0.10566000000E+00 0.  1.
         22    1    1    0    0    0  0.11014787991E+02 -0.26537910517E+02 -0.15456948904E+02  0.32626730123E+02  0.00000000000E+00 0. -1.
</event>
<event>
 5    1  0.6835449E-004  0.9118800E+02  0.7818608E-02  0.1130116E+00
         25   -1    0    0    0    0  0.00000000000E+00  0.00000000000E+00  0.99999998245E-14  0.12500000000E+03  0.12500000000E+03 0.  0.
        -13    1    3    3    0    0 -0.16904919800E+02  0.45113617094E+02  0.14532627977E+02  0.50321200311E+02  0.10566000000E+00 0. -1.
         23    2    1    0    0    0 -0.19655016500E+02 -0.52357363949E+01  0.13177837711E+02  0.10076391088E+03  0.97805816389E+02 0.  0.
         13    1    3    3    0    0 -0.27500966999E+01 -0.50349353489E+02 -0.13547902663E+01  0.50442710567E+02  0.10566000000E+00 0.  1.
         22    1    1    0    0    0  0.19655016500E+02  0.52357363949E+01 -0.13177837711E+02  0.24236089122E+02  0.00000000000E+00 0. -1.
</event>
<event>
 5    1  0.6835449E-004  0.9118800E+02  0.7818608E-02  0.1130116E+00
         25   -1    0    0    0    0  0.00000000000E+00  0.00000000000E+00  0.99999998245E-14  0.12500000000E+03  0.12500000000E+03 0.  0.
        -13    1    3    3    0    0  0.34554821901E+02  0.28158916551E+02  0.31575039714E+02  0.54625585534E+02  0.10566000000E+00 0.  1.
         23    2    1    0    0    0 -0.38949619106E+01  0.23382586836E+02  0.16087269043E+02  0.96351853102E+02  0.91994365455E+02 0.  0.
         13    1    3    3    0    0 -0.38449783812E+02 -0.47763297148E+01 -0.15487770671E+02  0.41726267567E+02  0.10566000000E+00 0. -1.
         22    1    1    0    0    0  0.38949619106E+01 -0.23382586836E+02 -0.16087269043E+02  0.28648146898E+02  0.00000000000E+00 0.  1.
</event>
<event>
 5    1  0.6835449E-004  0.9118800E+02  0.7818608E-02  0.1130116E+00
         25   -1    0    0    0    0  0.00000000000E+00  0.00000000000E+00  0.99999998245E-14  0.12500000000E+03  0.12500000000E+03 0.  0.
        -13    1    3    3    0    0 -0.13177342654E+02 -0.22365239830E+02  0.37625885463E+02  0.45711757054E+02  0.10566000000E+00 0. -1.
         23    2    1    0    0    0 -0.22410291357E+02  0.16977519858E+02  0.81617638225E+01  0.95724212599E+02  0.91137550712E+02 0.  0.
         13    1    3    3    0    0 -0.92329487028E+01  0.39342759688E+02 -0.29464121640E+02  0.50012455545E+02  0.10566000000E+00 0.  1.
         22    1    1    0    0    0  0.22410291357E+02 -0.16977519858E+02 -0.81617638225E+01  0.29275787401E+02  0.00000000000E+00 0.  1.
</event>
<event>
 5    1  0.6835449E-004  0.9118800E+02  0.7818608E-02  0.1130116E+00
         25   -1    0    0    0    0  0.00000000000E+00  0.00000000000E+00  0.99999998245E-14  0.12500000000E+03  0.12500000000E+03 0.  0.
        -13    1    3    3    0    0  0.42003484477E+02 -0.72034210603E+01  0.38684106515E+02  0.57555653450E+02  0.10566000000E+00 0. -1.
         23    2    1    0    0    0  0.14982982810E+02 -0.20220778298E+02  0.15762349620E+02  0.95304523671E+02  0.90560095615E+02 0.  0.
         13    1    3    3    0    0 -0.27020501667E+02 -0.13017357238E+02 -0.22921756895E+02  0.37748870221E+02  0.10566000000E+00 0.  1.
         22    1    1    0    0    0 -0.14982982810E+02  0.20220778298E+02 -0.15762349620E+02  0.29695476329E+02  0.00000000000E+00 0. -1.
</event>
<event>
 5    1  0.6835449E-004  0.9118800E+02  0.7818608E-02  0.1130116E+00
         25   -1    0    0    0    0  0.00000000000E+00  0.00000000000E+00  0.99999998245E-14  0.12500000000E+03  0.12500000000E+03 0.  0.
        -13    1    3    3    0    0  0.34996728644E+02  0.19544556923E+01  0.15399751956E+02  0.38285172550E+02  0.10566000000E+00 0. -1.
         23    2    1    0    0    0 -0.57989508623E+01 -0.22256539567E+02 -0.17570958725E+02  0.96056607401E+02  0.91592313270E+02 0.  0.
         13    1    3    3    0    0 -0.40795679507E+02 -0.24210995260E+02 -0.32970710681E+02  0.57771434851E+02  0.10566000000E+00 0.  1.
         22    1    1    0    0    0  0.57989508623E+01  0.22256539567E+02  0.17570958725E+02  0.28943392599E+02  0.00000000000E+00 0.  1.
</event>
<event>
 5    1  0.6835449E-004  0.9118800E+02  0.7818608E-02  0.1130116E+00
         25   -1    0    0    0    0  0.00000000000E+00  0.00000000000E+00  0.99999998245E-14  0.12500000000E+03  0.12500000000E+03 0.  0.
        -13    1    3    3    0    0 -0.31431220751E+02 -0.15689429717E+01 -0.11000274037E+02  0.33337672577E+02  0.10566000000E+00 0.  1.
         23    2    1    0    0    0  0.26639833962E+02  0.32967400999E+01  0.11489443648E+02  0.95801428731E+02  0.91243395283E+02 0.  0.
         13    1    3    3    0    0  0.58071054713E+02  0.48656830717E+01  0.22489717685E+02  0.62463756154E+02  0.10566000000E+00 0. -1.
         22    1    1    0    0    0 -0.26639833962E+02 -0.32967400999E+01 -0.11489443648E+02  0.29198571269E+02  0.00000000000E+00 0. -1.
</event>
<event>
 5    1  0.6835449E-004  0.9118800E+02  0.7818608E-02  0.1130116E+00
         25   -1    0    0    0    0  0.00000000000E+00  0.00000000000E+00  0.99999998245E-14  0.12500000000E+03  0.12500000000E+03 0.  0.
        -13    1    3    3    0    0 -0.26582200041E+01 -0.60590248757E+01 -0.38486558358E+02  0.39051302851E+02  0.10566000000E+00 0. -1.
         23    2    1    0    0    0  0.38903674287E+01  0.27159312321E+02  0.78710934454E+01  0.96456746567E+02  0.92136782242E+02 0.  0.
         13    1    3    3    0    0  0.65485874328E+01  0.33218337197E+02  0.46357651804E+02  0.57405443717E+02  0.10566000000E+00 0.  1.
         22    1    1    0    0    0 -0.38903674287E+01 -0.27159312321E+02 -0.78710934454E+01  0.28543253433E+02  0.00000000000E+00 0.  1.
</event>
<event>
 5    1  0.6835449E-004  0.9118800E+02  0.7818608E-02  0.1130116E+00
         25   -1    0    0    0    0  0.00000000000E+00  0.00000000000E+00  0.99999998245E-14  0.12500000000E+03  0.12500000000E+03 0.  0.
        -13    1    3    3    0    0  0.26887321910E+02  0.28839453226E+02 -0.12590934625E+02  0.41390638321E+02  0.10566000000E+00 0.  1.
         23    2    1    0    0    0 -0.22467335811E+02  0.79910902194E+01 -0.17831981354E+02  0.95223864247E+02  0.90448692980E+02 0.  0.
         13    1    3    3    0    0 -0.49354657721E+02 -0.20848363006E+02 -0.52410467290E+01  0.53833225926E+02  0.10566000000E+00 0. -1.
         22    1    1    0    0    0  0.22467335811E+02 -0.79910902194E+01  0.17831981354E+02  0.29776135753E+02  0.00000000000E+00 0. -1.
</event>
<event>
 5    1  0.6835449E-004  0.9118800E+02  0.7818608E-02  0.1130116E+00
         25   -1    0    0    0    0  0.00000000000E+00  0.00000000000E+00  0.99999998245E-14  0.12500000000E+03  0.12500000000E+03 0.  0.
        -13    1    3    3    0    0  0.38321994928E+02  0.20546722476E+02  0.40719480079E+01  0.43673046887E+02  0.10566000000E+00 0. -1.
         23    2    1    0    0    0 -0.77129128910E+01  0.17922568454E+02 -0.21145280764E+02  0.96227958296E+02  0.91825865495E+02 0.  0.
         13    1    3    3    0    0 -0.46034907819E+02 -0.26241540219E+01 -0.25217228772E+02  0.52554911409E+02  0.10566000000E+00 0.  1.
         22    1    1    0    0    0  0.77129128910E+01 -0.17922568454E+02  0.21145280764E+02  0.28772041704E+02  0.00000000000E+00 0. -1.
</event>
<event>
 5    1  0.6835449E-004  0.9118800E+02  0.7818608E-02  0.1130116E+00
         25   -1    0    0    0    0  0.00000000000E+00  0.00000000000E+00  0.99999998245E-14  0.12500000000E+03  0.12500000000E+03 0.  0.
        -13    1    3    3    0    0 -0.33946425929E+02 -0.12951240285E+02 -0.34694235065E+02  0.50237392141E+02  0.10566000000E+00 0. -1.
         23    2    1    0    0    0  0.59591499715E+01 -0.23633165775E+02 -0.17558604325E+02  0.94960982393E+02  0.90084657952E+02 0.  0.
         13    1    3    3    0    0  0.39905575901E+02 -0.10681925490E+02  0.17135630741E+02  0.44723590252E+02  0.10566000000E+00 0.  1.
         22    1    1    0    0    0 -0.59591499715E+01  0.23633165775E+02  0.17558604325E+02  0.30039017607E+02  0.00000000000E+00 0. -1.
</event>
<event>
 5    1  0.6835449E-004  0.9118800E+02  0.7818608E-02  0.1130116E+00
         25   -1    0    0    0    0  0.00000000000E+00  0.00000000000E+00  0.99999998245E-14  0.12500000000E+03  0.12500000000E+03 0.  0.
        -13    1    3    3    0    0 -0.23391037887E+02  0.21920450057E+02 -0.13661683173E+02  0.34846800934E+02  0.10566000000E+00 0. -1.
         23    2    1    0    0    0  0.27618856985E+02 -0.59803475996E+00  0.10273457905E+02  0.95526234647E+02  0.90865607696E+02 0.  0.
         13    1    3    3    0    0  0.51009894872E+02 -0.22518484817E+02  0.23935141078E+02  0.60679433714E+02  0.10566000000E+00 0.  1.
         22    1    1    0    0    0 -0.27618856985E+02  0.59803475996E+00 -0.10273457905E+02  0.29473765353E+02  0.00000000000E+00 0.  1.
</event>
<event>
 5    1  0.6835449E-004  0.9118800E+02  0.7818608E-02  0.1130116E+00
         25   -1    0    0    0    0  0.00000000000E+00  0.00000000000E+00  0.99999998245E-14  0.12500000000E+03  0.12500000000E+03 0.  0.
        -13    1    3    3    0    0 -0.30699555964E+02  0.40811216268E+01 -0.50223634156E+02  0.59004600515E+02  0.10566000000E+00 0.  1.
         23    2    1    0    0    0 -0.20104653052E+02 -0.10720585829E+02 -0.18205482941E+02  0.95835507137E+02  0.91290069472E+02 0.  0.
         13    1    3    3    0    0  0.10594902912E+02 -0.14801707456E+02  0.32018151214E+02  0.36830906622E+02  0.10566000000E+00 0. -1.
         22    1    1    0    0    0  0.20104653052E+02  0.10720585829E+02  0.18205482941E+02  0.29164492863E+02  0.00000000000E+00 0.  1.
</event>
<event>
 5    1  0.6835449E-004  0.9118800E+02  0.7818608E-02  0.1130116E+00
         25   -1    0    0    0    0  0.00000000000E+00  0.00000000000E+00  0.99999998245E-14  0.12500000000E+03  0.12500000000E+03 0.  0.
        -13    1    3    3    0    0  0.42043392156E+01 -0.31573453790E+02 -0.23219554905E+02  0.39417234131E+02  0.10566000000E+00 0. -1.
         23    2    1    0    0    0  0.31598848698E+02  0.58348962374E+01  0.30740754064E+01  0.92720235553E+02  0.86919841740E+02 0.  0.
         13    1    3    3    0    0  0.27394509483E+02  0.37408350028E+02  0.26293630312E+02  0.53303001422E+02  0.10566000000E+00 0.  1.
         22    1    1    0    0    0 -0.31598848698E+02 -0.58348962374E+01 -0.30740754064E+01  0.32279764447E+02  0.00000000000E+00 0.  1.
</event>
<event>
 5    1  0.6835449E-004  0.9118800E+02  0.7818608E-02  0.1130116E+00
         25   -1    0    0    0    0  0.00000000000E+00  0.00000000000E+00  0.99999998245E-14  0.12500000000E+03  0.12500000000E+03 0.  0.
        -13    1    3    3    0    0 -0.51139436812E+02 -0.94631598735E+01 -0.22400661016E+02  0.56626797280E+02  0.10566000000E+00 0.  1.
         23    2    1    0    0    0 -0.28500124808E+02  0.69392868171E+01  0.43811620150E+01  0.95341857843E+02  0.90611613277E+02 0.  0.
         13    1    3    3    0    0  0.22639312004E+02  0.16402446691E+02  0.26781823031E+02  0.38715060562E+02  0.10566000000E+00 0. -1.
         22    1    1    0    0    0  0.28500124808E+02 -0.69392868171E+01 -0.43811620150E+01  0.29658142157E+02  0.00000000000E+00 0.  1.
</event>
<event>
 5    1  0.6835449E-004  0.9118800E+02  0.7818608E-02  0.1130116E+00
         25   -1    0    0    0    0  0.00000000000E+00  0.00000000000E+00  0.99999998245E-14  0.12500000000E+03  0.12500000000E+03 0.  0.
        -13    1    3    3    0    0  0.30786822976E+02  0.11695772012E+02 -0.27968492962E+02  0.43207259975E+02  0.10566000000E+00 0.  1.
         23    2    1    0    0    0 -0.19356932358E+02 -0.40640525820E+01 -0.20869873231E+02  0.96246583465E+02  0.91851215922E+02 0.  0.
         13    1    3    3    0    0 -0.50143755334E+02 -0.15759824594E+02  0.70986197308E+01  0.53039323491E+02  0.10566000000E+00 0. -1.
         22    1    1    0    0    0  0.19356932358E+02  0.40640525820E+01  0.20869873231E+02  0.28753416535E+02  0.00000000000E+00 0. -1.
</event>
<event>
 5    1  0.6835449E-004  0.9118800E+02  0.7818608E-02  0.1130116E+00
         25   -1    0    0    0    0  0.00000000000E+00  0.00000000000E+00  0.99999998245E-14  0.12500000000E+03  0.12500000000E+03 0.  0.
        -13    1    3    3    0    0 -0.18959346505E+02 -0.22235110562E+02  0.42457417872E+01  0.29527858862E+02  0.10566000000E+00 0.  1.
         23    2    1    0    0    0 -0.22187828008E+02  0.85404599973E+01 -0.36956599580E+02  0.81056520151E+02  0.68111159422E+02 0.  0.
         13    1    3    3    0    0 -0.32284815033E+01  0.30775570560E+02 -0.41202341368E+02  0.51528661290E+02  0.10566000000E+00 0. -1.
         22    1    1    0    0    0  0.22187828008E+02 -0.85404599973E+01  0.36956599580E+02  0.43943479849E+02  0.00000000000E+00 0. -1.
</event>
<event>
 5    1  0.6835449E-004  0.9118800E+02  0.7818608E-02  0.1130116E+00
         25   -1    0    0    0    0  0.00000000000E+00  0.00000000000E+00  0.99999998245E-14  0.12500000000E+03  0.12500000000E+03 0.  0.
        -13    1    3    3    0    0 -0.13339258742E+02  0.23060942628E+02 -0.45902727799E+02  0.53073670329E+02  0.10566000000E+00 0.  1.
         23    2    1    0    0    0 -0.13866202451E+02 -0.10973842299E+02 -0.28890813967E+02  0.91127062175E+02  0.84597668666E+02 0.  0.
         13    1    3    3    0    0 -0.52694370887E+00 -0.34034784927E+02  0.17011913833E+02  0.38053391846E+02  0.10566000000E+00 0. -1.
         22    1    1    0    0    0  0.13866202451E+02  0.10973842299E+02  0.28890813967E+02  0.33872937825E+02  0.00000000000E+00 0.  1.
</event>
<event>
 5    1  0.6835449E-004  0.9118800E+02  0.7818608E-02  0.1130116E+00
         25   -1    0    0    0    0  0.00000000000E+00  0.00000000000E+00  0.99999998245E-14  0.12500000000E+03  0.12500000000E+03 0.  0.
        -13    1    3    3    0    0  0.39071089449E+02  0.40472245728E+02 -0.72266151790E+01  0.56716733297E+02  0.10566000000E+00 0. -1.
         23    2    1    0    0    0  0.77852640810E+01  0.22545636661E+02 -0.18846632946E+02  0.94600795361E+02  0.89583474148E+02 0.  0.
         13    1    3    3    0    0 -0.31285825368E+02 -0.17926609066E+02 -0.11620017767E+02  0.37884062064E+02  0.10566000000E+00 0.  1.
         22    1    1    0    0    0 -0.77852640810E+01 -0.22545636661E+02  0.18846632946E+02  0.30399204639E+02  0.00000000000E+00 0. -1.
</event>
<event>
 5    1  0.6835449E-004  0.9118800E+02  0.7818608E-02  0.1130116E+00
         25   -1    0    0    0    0  0.00000000000E+00  0.00000000000E+00  0.99999998245E-14  0.12500000000E+03  0.12500000000E+03 0.  0.
        -13    1    3    3    0    0 -0.29353067534E+02 -0.28457749707E+02 -0.22185490761E+02  0.46515086331E+02  0.10566000000E+00 0. -1.
         23    2    1    0    0    0 -0.26070479383E+02  0.51417121356E+01  0.13120986804E+02  0.95364423514E+02  0.90642737593E+02 0.  0.
         13    1    3    3    0    0  0.32825881512E+01  0.33599461842E+02  0.35306477565E+02  0.48849337182E+02  0.10566000000E+00 0.  1.
         22    1    1    0    0    0  0.26070479383E+02 -0.51417121356E+01 -0.13120986804E+02  0.29635576486E+02  0.00000000000E+00 0.  1.
</event>
<event>
 5    1  0.6835449E-004  0.9118800E+02  0.7818608E-02  0.1130116E+00
         25   -1    0    0    0    0  0.00000000000E+00  0.00000000000E+00  0.99999998245E-14  0.12500000000E+03  0.12500000000E+03 0.  0.
        -13    1    3    3    0    0  0.46697414003E+01 -0.44963255448E+02 -0.10059529973E+02  0.46310972054E+02  0.10566000000E+00 0.  1.
         23    2    1    0    0    0  0.26443792197E+02 -0.39050418226E+01  0.93575958388E+01  0.96678840115E+02  0.92437600730E+02 0.  0.
         13    1    3    3    0    0  0.21774050796E+02  0.41058213626E+02  0.19417125811E+02  0.50367868061E+02  0.10566000000E+00 0. -1.
         22    1    1    0    0    0 -0.26443792197E+02  0.39050418226E+01 -0.93575958388E+01  0.28321159885E+02  0.00000000000E+00 0.  1.
</event>
<event>
 5    1  0.6835449E-004  0.9118800E+02  0.7818608E-02  0.1130116E+00
         25   -1    0    0    0    0  0.00000000000E+00  0.00000000000E+00  0.99999998245E-14  0.12500000000E+03  0.12500000000E+03 0.  0.
        -13    1    3    3    0    0 -0.45774828846E+02  0.18021031785E+02  0.10957707599E+01  0.49206751773E+02  0.10566000000E+00 0. -1.
         23    2    1    0    0    0 -0.38873841682E+01  0.16511481749E+02 -0.22122489734E+02  0.97122673420E+02  0.93035844464E+02 0.  0.
         13    1    3    3    0    0  0.41887444678E+02 -0.15095500359E+01 -0.23218260493E+02  0.47915921647E+02  0.10566000000E+00 0.  1.
         22    1    1    0    0    0  0.38873841682E+01 -0.16511481749E+02  0.22122489734E+02  0.27877326580E+02  0.00000000000E+00 0. -1.
</event>
<event>
 5    1  0.6835449E-004  0.9118800E+02  0.7818608E-02  0.1130116E+00
         25   -1    0    0    0    0  0.00000000000E+00  0.00000000000E+00  0.99999998245E-14  0.12500000000E+03  0.12500000000E+03 0.  0.
        -13    1    3    3    0    0  0.30613960539E+02 -0.23471184900E+02 -0.37006719475E+02  0.53456707257E+02  0.10566000000E+00 0.  1.
         23    2    1    0    0    0  0.19245573663E+02 -0.22700771145E+02  0.30316240324E+01  0.95084989379E+02  0.90256563998E+02 0.  0.
         13    1    3    3    0    0 -0.11368386876E+02  0.77041375466E+00  0.40038343508E+02  0.41628282122E+02  0.10566000000E+00 0. -1.
         22    1    1    0    0    0 -0.19245573663E+02  0.22700771145E+02 -0.30316240324E+01  0.29915010621E+02  0.00000000000E+00 0. -1.
</event>
<event>
 5    1  0.6835449E-004  0.9118800E+02  0.7818608E-02  0.1130116E+00
         25   -1    0    0    0    0  0.00000000000E+00  0.00000000000E+00  0.99999998245E-14  0.12500000000E+03  0.12500000000E+03 0.  0.
        -13    1    3    3    0    0 -0.16090231908E+02  0.24042620776E+02  0.25985751945E+02  0.38887191269E+02  0.10566000000E+00 0.  1.
         23    2    1    0    0    0  0.20390849328E+02 -0.18540927901E+01 -0.15045046651E+02  0.99591776427E+02  0.96296127164E+02 0.  0.
         13    1    3    3    0    0  0.36481081237E+02 -0.25896713566E+02 -0.41030798596E+02  0.60704585158E+02  0.10566000000E+00 0. -1.
         22    1    1    0    0    0 -0.20390849328E+02  0.18540927901E+01  0.15045046651E+02  0.25408223573E+02  0.00000000000E+00 0. -1.
</event>
<event>
 5    1  0.6835449E-004  0.9118800E+02  0.7818608E-02  0.1130116E+00
         25   -1    0    0    0    0  0.00000000000E+00  0.00000000000E+00  0.99999998245E-14  0.12500000000E+03  0.12500000000E+03 0.  0.
        -13    1    3    3    0    0 -0.12457152762E+02  0.46325872263E+02  0.34730118263E+02  0.59223807497E+02  0.10566000000E+00 0. -1.
         23    2    1    0    0    0 -0.59048317660E+00  0.12807781677E+02  0.26262293330E+02  0.95775079250E+02  0.91207290348E+02 0.  0.
         13    1    3    3    0    0  0.11866669586E+02 -0.33518090587E+02 -0.84678249327E+01  0.36551271753E+02  0.10566000000E+00 0.  1.
         22    1    1    0    0    0  0.59048317660E+00 -0.12807781677E+02 -0.26262293330E+02  0.29224920750E+02  0.00000000000E+00 0. -1.
</event>
<event>
 5    1  0.6835449E-004  0.9118800E+02  0.7818608E-02  0.1130116E+00
         25   -1    0    0    0    0  0.00000000000E+00  0.00000000000E+00  0.99999998245E-14  0.12500000000E+03  0.12500000000E+03 0.  0.
        -13    1    3    3    0    0 -0.26407324598E+01 -0.13994878662E+01  0.45677291852E+02  0.45775082623E+02  0.10566000000E+00 0.  1.
         23    2    1    0    0    0  0.24242546123E+02  0.14659146858E+02  0.64921486650E+01  0.95935595251E+02  0.91427013584E+02 0.  0.
         13    1    3    3    0    0  0.26883278582E+02  0.16058634724E+02 -0.39185143187E+02  0.50160512628E+02  0.10566000000E+00 0. -1.
         22    1    1    0    0    0 -0.24242546123E+02 -0.14659146858E+02 -0.64921486650E+01  0.29064404749E+02  0.00000000000E+00 0. -1.
</event>
<event>
 5    1  0.6835449E-004  0.9118800E+02  0.7818608E-02  0.1130116E+00
         25   -1    0    0    0    0  0.00000000000E+00  0.00000000000E+00  0.99999998245E-14  0.12500000000E+03  0.12500000000E+03 0.  0.
        -13    1    3    3    0    0  0.84242867748E+01  0.11426762351E+02 -0.36553295151E+02  0.39213442286E+02  0.10566000000E+00 0.  1.
         23    2    1    0    0    0  0.23356588977E+01  0.28271352952E+02  0.14373816045E+02  0.93198564688E+02  0.87605029376E+02 0.  0.
         13    1    3    3    0    0 -0.60886278771E+01  0.16844590601E+02  0.50927111196E+02  0.53985122402E+02  0.10566000000E+00 0. -1.
         22    1    1    0    0    0 -0.23356588977E+01 -0.28271352952E+02 -0.14373816045E+02  0.31801435312E+02  0.00000000000E+00 0.  1.
</event>
<event>
 5    1  0.6835449E-004  0.9118800E+02  0.7818608E-02  0.1130116E+00
         25   -1    0    0    0    0  0.00000000000E+00  0.00000000000E+00  0.99999998245E-14  0.12500000000E+03  0.12500000000E+03 0.  0.
        -13    1    3    3    0    0 -0.12506582886E+02  0.39828284550E+02 -0.16272714007E+02  0.44805348462E+02  0.10566000000E+00 0.  1.
         23    2    1    0    0    0  0.25432573378E+02  0.65436004191E+01 -0.13794396644E+02  0.95336556608E+02  0.90604299854E+02 0.  0.
         13    1    3    3    0    0  0.37939156264E+02 -0.33284684131E+02  0.24783173626E+01  0.50531208146E+02  0.10566000000E+00 0. -1.
         22    1    1    0    0    0 -0.25432573378E+02 -0.65436004191E+01  0.13794396644E+02  0.29663443392E+02  0.00000000000E+00 0. -1.
</event>
<event>
 5    1  0.6835449E-004  0.9118800E+02  0.7818608E-02  0.1130116E+00
         25   -1    0    0    0    0  0.00000000000E+00  0.00000000000E+00  0.99999998245E-14  0.12500000000E+03  0.12500000000E+03 0.  0.
        -13    1    3    3    0    0  0.10101751926E+02 -0.49491608824E+02 -0.95524604103E+01  0.51407444985E+02  0.10566000000E+00 0.  1.
         23    2    1    0    0    0 -0.89390929948E+01 -0.23758499543E+02  0.18192572704E+02  0.93769511920E+02  0.88415937365E+02 0.  0.
         13    1    3    3    0    0 -0.19040844921E+02  0.25733109280E+02  0.27745033114E+02  0.42362066936E+02  0.10566000000E+00 0. -1.
         22    1    1    0    0    0  0.89390929948E+01  0.23758499543E+02 -0.18192572704E+02  0.31230488080E+02  0.00000000000E+00 0.  1.
</event>
<event>
 5    1  0.6835449E-004  0.9118800E+02  0.7818608E-02  0.1130116E+00
         25   -1    0    0    0    0  0.00000000000E+00  0.00000000000E+00  0.99999998245E-14  0.12500000000E+03  0.12500000000E+03 0.  0.
        -13    1    3    3    0    0 -0.13516413167E+02 -0.46234711408E+02 -0.15579264711E+01  0.48195230706E+02  0.10566000000E+00 0. -1.
         23    2    1    0    0    0  0.22357541367E+01 -0.10285831609E+02  0.26529402371E+02  0.96458694518E+02  0.92139424947E+02 0.  0.
         13    1    3    3    0    0  0.15752167303E+02  0.35948879799E+02  0.28087328842E+02  0.48263463812E+02  0.10566000000E+00 0.  1.
         22    1    1    0    0    0 -0.22357541367E+01  0.10285831609E+02 -0.26529402371E+02  0.28541305482E+02  0.00000000000E+00 0.  1.
</event>
<event>
 5    1  0.6835449E-004  0.9118800E+02  0.7818608E-02  0.1130116E+00
         25   -1    0    0    0    0  0.00000000000E+00  0.00000000000E+00  0.99999998245E-14  0.12500000000E+03  0.12500000000E+03 0.  0.
        -13    1    3    3    0    0 -0.12158248952E+02  0.18139362709E+02 -0.32793027187E+02  0.39398645829E+02  0.10566000000E+00 0.  1.
         23    2    1    0    0    0  0.13504607460E+02 -0.22450689602E+02  0.20361088760E+01  0.98721612956E+02  0.95159882509E+02 0.  0.
         13    1    3    3    0    0  0.25662856412E+02 -0.40590052311E+02  0.34829136063E+02  0.59322967127E+02  0.10566000000E+00 0. -1.
         22    1    1    0    0    0 -0.13504607460E+02  0.22450689602E+02 -0.20361088760E+01  0.26278387044E+02  0.00000000000E+00 0. -1.
</event>
<event>
 5    1  0.6835449E-004  0.9118800E+02  0.7818608E-02  0.1130116E+00
         25   -1    0    0    0    0  0.00000000000E+00  0.00000000000E+00  0.99999998245E-14  0.12500000000E+03  0.12500000000E+03 0.  0.
        -13    1    3    3    0    0  0.33004918635E+02 -0.49313741782E+02  0.19241732680E+02  0.62381289047E+02  0.10566000000E+00 0. -1.
         23    2    1    0    0    0  0.13916662282E+02 -0.24744871660E+02  0.74970148962E+01  0.95636972314E+02  0.91017817368E+02 0.  0.
         13    1    3    3    0    0 -0.19088256353E+02  0.24568870122E+02 -0.11744717784E+02  0.33255683267E+02  0.10566000000E+00 0.  1.
         22    1    1    0    0    0 -0.13916662282E+02  0.24744871660E+02 -0.74970148962E+01  0.29363027686E+02  0.00000000000E+00 0. -1.
</event>
<event>
 5    1  0.6835449E-004  0.9118800E+02  0.7818608E-02  0.1130116E+00
         25   -1    0    0    0    0  0.00000000000E+00  0.00000000000E+00  0.99999998245E-14  0.12500000000E+03  0.12500000000E+03 0.  0.
        -13    1    3    3    0    0  0.77425911775E+01  0.37853381054E+02  0.46769769062E+02  0.60665052852E+02  0.10566000000E+00 0.  1.
         23    2    1    0    0    0  0.39297204775E+01  0.11075070262E+02  0.30701198418E+02  0.92126553746E+02  0.86061829148E+02 0.  0.
         13    1    3    3    0    0 -0.38128707000E+01 -0.26778310792E+02 -0.16068570644E+02  0.31461500893E+02  0.10566000000E+00 0. -1.
         22    1    1    0    0    0 -0.39297204775E+01 -0.11075070262E+02 -0.30701198418E+02  0.32873446254E+02  0.00000000000E+00 0.  1.
</event>
<event>
 5    1  0.6835449E-004  0.9118800E+02  0.7818608E-02  0.1130116E+00
         25   -1    0    0    0    0  0.00000000000E+00  0.00000000000E+00  0.99999998245E-14  0.12500000000E+03  0.12500000000E+03 0.  0.
        -13    1    3    3    0    0 -0.40317487200E+02  0.40752664091E+02 -0.14890013954E+02  0.59228397616E+02  0.10566000000E+00 0.  1.
         23    2    1    0    0    0 -0.18157510703E+02  0.20663655791E+02  0.73802998226E+01  0.96519292652E+02  0.92221598137E+02 0.  0.
         13    1    3    3    0    0  0.22159976497E+02 -0.20089008299E+02  0.22270313776E+02  0.37290895035E+02  0.10566000000E+00 0. -1.
         22    1    1    0    0    0  0.18157510703E+02 -0.20663655791E+02 -0.73802998226E+01  0.28480707348E+02  0.00000000000E+00 0.  1.
</event>
<event>
 5    1  0.6835449E-004  0.9118800E+02  0.7818608E-02  0.1130116E+00
         25   -1    0    0    0    0  0.00000000000E+00  0.00000000000E+00  0.99999998245E-14  0.12500000000E+03  0.12500000000E+03 0.  0.
        -13    1    3    3    0    0  0.42764228201E+02  0.76025495292E+01  0.29735308757E+02  0.52638177437E+02  0.10566000000E+00 0. -1.
         23    2    1    0    0    0  0.12407623767E+02 -0.20264857137E+02  0.17047931832E+02  0.95755418587E+02  0.91180341339E+02 0.  0.
         13    1    3    3    0    0 -0.30356604435E+02 -0.27867406666E+02 -0.12687376925E+02  0.43117241150E+02  0.10566000000E+00 0.  1.
         22    1    1    0    0    0 -0.12407623767E+02  0.20264857137E+02 -0.17047931832E+02  0.29244581413E+02  0.00000000000E+00 0.  1.
</event>
<event>
 5    1  0.6835449E-004  0.9118800E+02  0.7818608E-02  0.1130116E+00
         25   -1    0    0    0    0  0.00000000000E+00  0.00000000000E+00  0.99999998245E-14  0.12500000000E+03  0.12500000000E+03 0.  0.
        -13    1    3    3    0    0  0.30268441629E+02 -0.42597804342E+02 -0.98440810689E+01  0.53175827116E+02  0.10566000000E+00 0.  1.
         23    2    1    0    0    0 -0.67178073702E+01 -0.29693689475E+02  0.30191366394E+01  0.94406547816E+02  0.89312020210E+02 0.  0.
         13    1    3    3    0    0 -0.36986248999E+02  0.12904114866E+02  0.12863217708E+02  0.41230720699E+02  0.10566000000E+00 0. -1.
         22    1    1    0    0    0  0.67178073702E+01  0.29693689475E+02 -0.30191366394E+01  0.30593452184E+02  0.00000000000E+00 0.  1.
</event>
<event>
 5    1  0.6835449E-004  0.9118800E+02  0.7818608E-02  0.1130116E+00
         25   -1    0    0    0    0  0.00000000000E+00  0.00000000000E+00  0.99999998245E-14  0.12500000000E+03  0.12500000000E+03 0.  0.
        -13    1    3    3    0    0 -0.25304856466E+02 -0.55299934571E+02  0.12977300028E+02  0.62183920786E+02  0.10566000000E+00 0.  1.
         23    2    1    0    0    0 -0.11211834674E+02 -0.28067609227E+02  0.21611352889E+01  0.94698738801E+02  0.89720035111E+02 0.  0.
         13    1    3    3    0    0  0.14093021793E+02  0.27232325343E+02 -0.10816164739E+02  0.32514818015E+02  0.10566000000E+00 0. -1.
         22    1    1    0    0    0  0.11211834674E+02  0.28067609227E+02 -0.21611352889E+01  0.30301261199E+02  0.00000000000E+00 0.  1.
</event>
<event>
 5    1  0.6835449E-004  0.9118800E+02  0.7818608E-02  0.1130116E+00
         25   -1    0    0    0    0  0.00000000000E+00  0.00000000000E+00  0.99999998245E-14  0.12500000000E+03  0.12500000000E+03 0.  0.
        -13    1    3    3    0    0 -0.13668317887E+02  0.38588550663E+02 -0.13101030424E+01  0.40958841416E+02  0.10566000000E+00 0.  1.
         23    2    1    0    0    0 -0.20343370339E+02 -0.10118969132E+02 -0.21135364077E+02  0.93968566457E+02  0.88696908708E+02 0.  0.
         13    1    3    3    0    0 -0.66750524521E+01 -0.48707519795E+02 -0.19825261035E+02  0.53009725041E+02  0.10566000000E+00 0. -1.
         22    1    1    0    0    0  0.20343370339E+02  0.10118969132E+02  0.21135364077E+02  0.31031433543E+02  0.00000000000E+00 0. -1.
</event>
<event>
 5    1  0.6835449E-004  0.9118800E+02  0.7818608E-02  0.1130116E+00
         25   -1    0    0    0    0  0.00000000000E+00  0.00000000000E+00  0.99999998245E-14  0.12500000000E+03  0.12500000000E+03 0.  0.
        -13    1    3    3    0    0 -0.27140789977E+02 -0.20849727413E+02  0.11987471461E+02  0.36263538849E+02  0.10566000000E+00 0. -1.
         23    2    1    0    0    0  0.27621758759E+02 -0.17702150946E+02  0.11784643156E+01  0.92171407536E+02  0.86126952134E+02 0.  0.
         13    1    3    3    0    0  0.54762548736E+02  0.31475764673E+01 -0.10809007146E+02  0.55907868687E+02  0.10566000000E+00 0.  1.
         22    1    1    0    0    0 -0.27621758759E+02  0.17702150946E+02 -0.11784643156E+01  0.32828592464E+02  0.00000000000E+00 0.  1.
</event>
<event>
 5    1  0.6835449E-004  0.9118800E+02  0.7818608E-02  0.1130116E+00
         25   -1    0    0    0    0  0.00000000000E+00  0.00000000000E+00  0.99999998245E-14  0.12500000000E+03  0.12500000000E+03 0.  0.
        -13    1    3    3    0    0 -0.19084636846E+02 -0.46500112485E+02  0.24923882812E+01  0.50326007074E+02  0.10566000000E+00 0. -1.
         23    2    1    0    0    0  0.24879578003E+01 -0.15204943803E+02 -0.23874281779E+02  0.96585891171E+02  0.92311823689E+02 0.  0.
         13    1    3    3    0    0  0.21572594647E+02  0.31295168682E+02 -0.26366670060E+02  0.46259884097E+02  0.10566000000E+00 0.  1.
         22    1    1    0    0    0 -0.24879578003E+01  0.15204943803E+02  0.23874281779E+02  0.28414108829E+02  0.00000000000E+00 0. -1.
</event>
<event>
 5    1  0.6835449E-004  0.9118800E+02  0.7818608E-02  0.1130116E+00
         25   -1    0    0    0    0  0.00000000000E+00  0.00000000000E+00  0.99999998245E-14  0.12500000000E+03  0.12500000000E+03 0.  0.
        -13    1    3    3    0    0  0.38902874839E+01 -0.26321490593E+02 -0.39486858935E+02  0.47614896790E+02  0.10566000000E+00 0. -1.
         23    2    1    0    0    0  0.92487940945E+01 -0.26141155533E+02  0.85752646567E+01  0.95975262814E+02  0.91481231427E+02 0.  0.
         13    1    3    3    0    0  0.53585066106E+01  0.18033505948E+00  0.48062123591E+02  0.48360366024E+02  0.10566000000E+00 0.  1.
         22    1    1    0    0    0 -0.92487940945E+01  0.26141155533E+02 -0.85752646567E+01  0.29024737186E+02  0.00000000000E+00 0.  1.
</event>
<event>
 5    1  0.6835449E-004  0.9118800E+02  0.7818608E-02  0.1130116E+00
         25   -1    0    0    0    0  0.00000000000E+00  0.00000000000E+00  0.99999998245E-14  0.12500000000E+03  0.12500000000E+03 0.  0.
        -13    1    3    3    0    0  0.17712642071E+01  0.30422530748E+02 -0.12552834630E+02  0.32958346064E+02  0.10566000000E+00 0. -1.
         23    2    1    0    0    0  0.45983126746E+01 -0.23815927114E+02  0.17555577052E+02  0.95057703004E+02  0.90218766069E+02 0.  0.
         13    1    3    3    0    0  0.28270484675E+01 -0.54238457862E+02  0.30108411683E+02  0.62099356940E+02  0.10566000000E+00 0.  1.
         22    1    1    0    0    0 -0.45983126746E+01  0.23815927114E+02 -0.17555577052E+02  0.29942296996E+02  0.00000000000E+00 0.  1.
</event>
<event>
 5    1  0.6835449E-004  0.9118800E+02  0.7818608E-02  0.1130116E+00
         25   -1    0    0    0    0  0.00000000000E+00  0.00000000000E+00  0.99999998245E-14  0.12500000000E+03  0.12500000000E+03 0.  0.
        -13    1    3    3    0    0 -0.38248235905E+02  0.15745263558E+02  0.39360499361E+02  0.57097293705E+02  0.10566000000E+00 0.  1.
         23    2    1    0    0    0 -0.11552391201E+02 -0.10493270742E+02  0.21126767063E+02  0.98733923782E+02  0.95176052374E+02 0.  0.
         13    1    3    3    0    0  0.26695844704E+02 -0.26238534300E+02 -0.18233732298E+02  0.41636630078E+02  0.10566000000E+00 0. -1.
         22    1    1    0    0    0  0.11552391201E+02  0.10493270742E+02 -0.21126767063E+02  0.26266076218E+02  0.00000000000E+00 0.  1.
</event>
<event>
 5    1  0.6835449E-004  0.9118800E+02  0.7818608E-02  0.1130116E+00
         25   -1    0    0    0    0  0.00000000000E+00  0.00000000000E+00  0.99999998245E-14  0.12500000000E+03  0.12500000000E+03 0.  0.
        -13    1    3    3    0    0  0.53415509578E+02 -0.13241637113E+01  0.13140432763E+02  0.55024105720E+02  0.10566000000E+00 0.  1.
         23    2    1    0    0    0  0.16873309816E+02 -0.10995484348E+02  0.23335599556E+02  0.94175343200E+02  0.88987840743E+02 0.  0.
         13    1    3    3    0    0 -0.36542199762E+02 -0.96713206367E+01  0.10195166793E+02  0.39151237480E+02  0.10566000000E+00 0. -1.
         22    1    1    0    0    0 -0.16873309816E+02  0.10995484348E+02 -0.23335599556E+02  0.30824656800E+02  0.00000000000E+00 0.  1.
</event>
<event>
 5    1  0.6835449E-004  0.9118800E+02  0.7818608E-02  0.1130116E+00
         25   -1    0    0    0    0  0.00000000000E+00  0.00000000000E+00  0.99999998245E-14  0.12500000000E+03  0.12500000000E+03 0.  0.
        -13    1    3    3    0    0 -0.10150718524E+01  0.96547787393E+00  0.42129744921E+02  0.42153162272E+02  0.10566000000E+00 0.  1.
         23    2    1    0    0    0 -0.14528015160E+02 -0.24263038246E+02 -0.39986754473E+01  0.96438703553E+02  0.92112300417E+02 0.  0.
         13    1    3    3    0    0 -0.13512943308E+02 -0.25228516120E+02 -0.46128420368E+02  0.54285541281E+02  0.10566000000E+00 0. -1.
         22    1    1    0    0    0  0.14528015160E+02  0.24263038246E+02  0.39986754473E+01  0.28561296447E+02  0.00000000000E+00 0. -1.
</event>
<event>
 5    1  0.6835449E-004  0.9118800E+02  0.7818608E-02  0.1130116E+00
         25   -1    0    0    0    0  0.00000000000E+00  0.00000000000E+00  0.99999998245E-14  0.12500000000E+03  0.12500000000E+03 0.  0.
        -13    1    3    3    0    0 -0.49551568766E+02  0.20441013770E+02  0.65303247419E+01  0.53998604763E+02  0.10566000000E+00 0. -1.
         23    2    1    0    0    0 -0.32390924585E+02 -0.95737742632E+01  0.12305657934E+02  0.89052004697E+02  0.81473929415E+02 0.  0.
         13    1    3    3    0    0  0.17160644181E+02 -0.30014788034E+02  0.57753331918E+01  0.35053399934E+02  0.10566000000E+00 0.  1.
         22    1    1    0    0    0  0.32390924585E+02  0.95737742632E+01 -0.12305657934E+02  0.35947995303E+02  0.00000000000E+00 0. -1.
</event>
<event>
 5    1  0.6835449E-004  0.9118800E+02  0.7818608E-02  0.1130116E+00
         25   -1    0    0    0    0  0.00000000000E+00  0.00000000000E+00  0.99999998245E-14  0.12500000000E+03  0.12500000000E+03 0.  0.
        -13    1    3    3    0    0  0.17208030131E+02 -0.10012324817E+02 -0.30664723578E+02  0.36560899679E+02  0.10566000000E+00 0. -1.
         23    2    1    0    0    0  0.14596503549E+02  0.24341865898E+02  0.14308491509E+02  0.93214511479E+02  0.87627780240E+02 0.  0.
         13    1    3    3    0    0 -0.26115265822E+01  0.34354190715E+02  0.44973215086E+02  0.56653611800E+02  0.10566000000E+00 0.  1.
         22    1    1    0    0    0 -0.14596503549E+02 -0.24341865898E+02 -0.14308491509E+02  0.31785488521E+02  0.00000000000E+00 0.  1.
</event>
<event>
 5    1  0.6835449E-004  0.9118800E+02  0.7818608E-02  0.1130116E+00
         25   -1    0    0    0    0  0.00000000000E+00  0.00000000000E+00  0.99999998245E-14  0.12500000000E+03  0.12500000000E+03 0.  0.
        -13    1    3    3    0    0  0.17612216451E+02  0.37821001939E+02  0.41914386135E+01  0.41930867839E+02  0.10566000000E+00 0.  1.
         23    2    1    0    0    0 -0.17498035636E+02 -0.28261907043E+01  0.20343035084E+02  0.98018382528E+02  0.94231606332E+02 0.  0.
         13    1    3    3    0    0 -0.35110252087E+02 -0.40647192644E+02  0.16151596471E+02  0.56087514689E+02  0.10566000000E+00 0. -1.
         22    1    1    0    0    0  0.17498035636E+02  0.28261907043E+01 -0.20343035084E+02  0.26981617472E+02  0.00000000000E+00 0. -1.
</event>
<event>
 5    1  0.6835449E-004  0.9118800E+02  0.7818608E-02  0.1130116E+00
         25   -1    0    0    0    0  0.00000000000E+00  0.00000000000E+00  0.99999998245E-14  0.12500000000E+03  0.12500000000E+03 0.  0.
        -13    1    3    3    0    0  0.52403537724E+01 -0.22260986758E+00  0.43545572310E+02  0.43860447953E+02  0.10566000000E+00 0.  1.
         23    2    1    0    0    0  0.21612104571E+02  0.22164671352E+02  0.17860651688E+01  0.93991198848E+02  0.88728798662E+02 0.  0.
         13    1    3    3    0    0  0.16371750799E+02  0.22387281219E+02 -0.41759507141E+02  0.50130750895E+02  0.10566000000E+00 0. -1.
         22    1    1    0    0    0 -0.21612104571E+02 -0.22164671352E+02 -0.17860651688E+01  0.31008801152E+02  0.00000000000E+00 0.  1.
</event>
<event>
 5    1  0.6835449E-004  0.9118800E+02  0.7818608E-02  0.1130116E+00
         25   -1    0    0    0    0  0.00000000000E+00  0.00000000000E+00  0.99999998245E-14  0.12500000000E+03  0.12500000000E+03 0.  0.
        -13    1    3    3    0    0 -0.22382053530E+02 -0.17467598019E+02  0.43894643353E+02  0.52276420879E+02  0.10566000000E+00 0. -1.
         23    2    1    0    0    0 -0.19190160401E+02  0.15512382578E+02  0.15982406701E+02  0.95600449095E+02  0.90967644104E+02 0.  0.
         13    1    3    3    0    0  0.31918931299E+01  0.32979980597E+02 -0.27912236652E+02  0.43324028216E+02  0.10566000000E+00 0.  1.
         22    1    1    0    0    0  0.19190160401E+02 -0.15512382578E+02 -0.15982406701E+02  0.29399550905E+02  0.00000000000E+00 0. -1.
</event>
<event>
 5    1  0.6835449E-004  0.9118800E+02  0.7818608E-02  0.1130116E+00
         25   -1    0    0    0    0  0.00000000000E+00  0.00000000000E+00  0.99999998245E-14  0.12500000000E+03  0.12500000000E+03 0.  0.
        -13    1    3    3    0    0 -0.36139365122E+02 -0.21098625573E+02 -0.41079383174E+01  0.42048686469E+02  0.10566000000E+00 0.  1.
         23    2    1    0    0    0  0.12274877941E+02 -0.27439947420E+02 -0.13953067802E+02  0.91859217813E+02  0.85672658726E+02 0.  0.
         13    1    3    3    0    0  0.48414243063E+02 -0.63413218476E+01 -0.98451294846E+01  0.49810531344E+02  0.10566000000E+00 0. -1.
         22    1    1    0    0    0 -0.12274877941E+02  0.27439947420E+02  0.13953067802E+02  0.33140782187E+02  0.00000000000E+00 0. -1.
</event>
<event>
 5    1  0.6835449E-004  0.9118800E+02  0.7818608E-02  0.1130116E+00
         25   -1    0    0    0    0  0.00000000000E+00  0.00000000000E+00  0.99999998245E-14  0.12500000000E+03  0.12500000000E+03 0.  0.
        -13    1    3    3    0    0  0.10060494564E+02  0.43787752683E+02  0.36904245820E+02  0.58142199473E+02  0.10566000000E+00 0.  1.
         23    2    1    0    0    0 -0.11762450448E+02  0.19444400168E+02  0.18752412292E+02  0.95536583612E+02  0.90879843217E+02 0.  0.
         13    1    3    3    0    0 -0.21822945013E+02 -0.24343352515E+02 -0.18151833528E+02  0.37394384140E+02  0.10566000000E+00 0. -1.
         22    1    1    0    0    0  0.11762450448E+02 -0.19444400168E+02 -0.18752412292E+02  0.29463416388E+02  0.00000000000E+00 0.  1.
</event>
<event>
 5    1  0.6835449E-004  0.9118800E+02  0.7818608E-02  0.1130116E+00
         25   -1    0    0    0    0  0.00000000000E+00  0.00000000000E+00  0.99999998245E-14  0.12500000000E+03  0.12500000000E+03 0.  0.
        -13    1    3    3    0    0  0.27639518350E+02 -0.28613748813E+02  0.25260287385E+01  0.39863286129E+02  0.10566000000E+00 0. -1.
         23    2    1    0    0    0 -0.21095490835E+02 -0.66949587188E+01  0.19051208343E+02  0.95797418861E+02  0.91237901748E+02 0.  0.
         13    1    3    3    0    0 -0.48735009186E+02  0.21918790094E+02  0.16525179605E+02  0.55934132732E+02  0.10566000000E+00 0.  1.
         22    1    1    0    0    0  0.21095490835E+02  0.66949587188E+01 -0.19051208343E+02  0.29202581139E+02  0.00000000000E+00 0.  1.
</event>
<event>
 5    1  0.6835449E-004  0.9118800E+02  0.7818608E-02  0.1130116E+00
         25   -1    0    0    0    0  0.00000000000E+00  0.00000000000E+00  0.99999998245E-14  0.12500000000E+03  0.12500000000E+03 0.  0.
        -13    1    3    3    0    0 -0.19160145519E+02  0.42018970847E+02 -0.11397533528E+02  0.47567005602E+02  0.10566000000E+00 0. -1.
         23    2    1    0    0    0 -0.28209347076E+02 -0.45939041721E+01 -0.86889676262E+01  0.95127447775E+02  0.90315347222E+02 0.  0.
         13    1    3    3    0    0 -0.90492015579E+01 -0.46612875020E+02  0.27085659019E+01  0.47560442173E+02  0.10566000000E+00 0.  1.
         22    1    1    0    0    0  0.28209347076E+02  0.45939041721E+01  0.86889676262E+01  0.29872552225E+02  0.00000000000E+00 0. -1.
</event>
<event>
 5    1  0.6835449E-004  0.9118800E+02  0.7818608E-02  0.1130116E+00
         25   -1    0    0    0    0  0.00000000000E+00  0.00000000000E+00  0.99999998245E-14  0.12500000000E+03  0.12500000000E+03 0.  0.
        -13    1    3    3    0    0  0.85178566782E+01 -0.24467213972E+02  0.25299664620E+02  0.36211636747E+02  0.10566000000E+00 0.  1.
         23    2    1    0    0    0  0.56167645696E+00  0.39270702169E+01 -0.27783157676E+02  0.96935053690E+02  0.92783422132E+02 0.  0.
         13    1    3    3    0    0 -0.79561802213E+01  0.28394284189E+02 -0.53082822296E+02  0.60723416943E+02  0.10566000000E+00 0. -1.
         22    1    1    0    0    0 -0.56167645696E+00 -0.39270702169E+01  0.27783157676E+02  0.28064946310E+02  0.00000000000E+00 0. -1.
</event>
<event>
 5    1  0.6835449E-004  0.9118800E+02  0.7818608E-02  0.1130116E+00
         25   -1    0    0    0    0  0.00000000000E+00  0.00000000000E+00  0.99999998245E-14  0.12500000000E+03  0.12500000000E+03 0.  0.
        -13    1    3    3    0    0  0.22520454427E+02 -0.40433572901E+01  0.46592543652E+02  0.51907570678E+02  0.10566000000E+00 0. -1.
         23    2    1    0    0    0  0.16896198272E+02 -0.23054128303E+02  0.79610837028E+01  0.95329253437E+02  0.90594223653E+02 0.  0.
         13    1    3    3    0    0 -0.56242561553E+01 -0.19010771013E+02 -0.38631459949E+02  0.43421682759E+02  0.10566000000E+00 0.  1.
         22    1    1    0    0    0 -0.16896198272E+02  0.23054128303E+02 -0.79610837028E+01  0.29670746563E+02  0.00000000000E+00 0.  1.
</event>
<event>
 5    1  0.6835449E-004  0.9118800E+02  0.7818608E-02  0.1130116E+00
         25   -1    0    0    0    0  0.00000000000E+00  0.00000000000E+00  0.99999998245E-14  0.12500000000E+03  0.12500000000E+03 0.  0.
        -13    1    3    3    0    0 -0.20102478798E+02  0.48119705192E+02  0.31696800028E+02  0.61027157706E+02  0.10566000000E+00 0. -1.
         23    2    1    0    0    0 -0.14146386283E+02  0.21150933020E+02  0.57704681113E+01  0.98908228985E+02  0.95404702432E+02 0.  0.
         13    1    3    3    0    0  0.59560925143E+01 -0.26968772172E+02 -0.25926331917E+02  0.37881071279E+02  0.10566000000E+00 0.  1.
         22    1    1    0    0    0  0.14146386283E+02 -0.21150933020E+02 -0.57704681113E+01  0.26091771015E+02  0.00000000000E+00 0. -1.
</event>
<event>
 5    1  0.6835449E-004  0.9118800E+02  0.7818608E-02  0.1130116E+00
         25   -1    0    0    0    0  0.00000000000E+00  0.00000000000E+00  0.99999998245E-14  0.12500000000E+03  0.12500000000E+03 0.  0.
        -13    1    3    3    0    0  0.65396590178E+01  0.37160053241E+02 -0.39964557659E+02  0.54961929823E+02  0.10566000000E+00 0.  1.
         23    2    1    0    0    0  0.31178922751E+01 -0.13669341424E+01 -0.29870465163E+02  0.94936160421E+02  0.90050208802E+02 0.  0.
         13    1    3    3    0    0 -0.34217667427E+01 -0.38526987384E+02  0.10094092496E+02  0.39974230598E+02  0.10566000000E+00 0. -1.
         22    1    1    0    0    0 -0.31178922751E+01  0.13669341424E+01  0.29870465163E+02  0.30063839579E+02  0.00000000000E+00 0.  1.
</event>
<event>
 5    1  0.6835449E-004  0.9118800E+02  0.7818608E-02  0.1130116E+00
         25   -1    0    0    0    0  0.00000000000E+00  0.00000000000E+00  0.99999998245E-14  0.12500000000E+03  0.12500000000E+03 0.  0.
        -13    1    3    3    0    0  0.35301599574E+02 -0.39844440165E+01  0.16952374633E+02  0.39363344577E+02  0.10566000000E+00 0.  1.
         23    2    1    0    0    0 -0.32951482803E+01  0.27390610536E+02 -0.96525678435E+01  0.95772006335E+02  0.91203078806E+02 0.  0.
         13    1    3    3    0    0 -0.38596747854E+02  0.31375054553E+02 -0.26604942476E+02  0.56408661758E+02  0.10566000000E+00 0. -1.
         22    1    1    0    0    0  0.32951482803E+01 -0.27390610536E+02  0.96525678435E+01  0.29227993665E+02  0.00000000000E+00 0.  1.
</event>
<event>
 5    1  0.6835449E-004  0.9118800E+02  0.7818608E-02  0.1130116E+00
         25   -1    0    0    0    0  0.00000000000E+00  0.00000000000E+00  0.99999998245E-14  0.12500000000E+03  0.12500000000E+03 0.  0.
        -13    1    3    3    0    0  0.18036464594E+02  0.11832453731E+02  0.25045070462E+02  0.33054314920E+02  0.10566000000E+00 0.  1.
         23    2    1    0    0    0 -0.13983846444E+02 -0.11533164533E+02 -0.23240620800E+02  0.95526481366E+02  0.90865947095E+02 0.  0.
         13    1    3    3    0    0 -0.32020311038E+02 -0.23365618264E+02 -0.48285691262E+02  0.62472166446E+02  0.10566000000E+00 0. -1.
         22    1    1    0    0    0  0.13983846444E+02  0.11533164533E+02  0.23240620800E+02  0.29473518634E+02  0.00000000000E+00 0. -1.
</event>
<event>
 5    1  0.6835449E-004  0.9118800E+02  0.7818608E-02  0.1130116E+00
         25   -1    0    0    0    0  0.00000000000E+00  0.00000000000E+00  0.99999998245E-14  0.12500000000E+03  0.12500000000E+03 0.  0.
        -13    1    3    3    0    0  0.26647033287E+02  0.27099227980E+02 -0.33252545274E+02  0.50499262087E+02  0.10566000000E+00 0.  1.
         23    2    1    0    0    0  0.16430939622E+02 -0.15627469620E+02 -0.12840348004E+02  0.98941064480E+02  0.95447714063E+02 0.  0.
         13    1    3    3    0    0 -0.10216093665E+02 -0.42726697601E+02  0.20412197270E+02  0.48441802393E+02  0.10566000000E+00 0. -1.
         22    1    1    0    0    0 -0.16430939622E+02  0.15627469620E+02  0.12840348004E+02  0.26058935520E+02  0.00000000000E+00 0.  1.
</event>
<event>
 5    1  0.6835449E-004  0.9118800E+02  0.7818608E-02  0.1130116E+00
         25   -1    0    0    0    0  0.00000000000E+00  0.00000000000E+00  0.99999998245E-14  0.12500000000E+03  0.12500000000E+03 0.  0.
        -13    1    3    3    0    0 -0.35686409816E+02  0.33357492114E+02 -0.22163596949E+02  0.53642131944E+02  0.10566000000E+00 0. -1.
         23    2    1    0    0    0 -0.56467556500E+01  0.73484845803E+01 -0.29526358926E+02  0.94053401699E+02  0.88816386015E+02 0.  0.
         13    1    3    3    0    0  0.30039654166E+02 -0.26009007534E+02 -0.73627619762E+01  0.40411269755E+02  0.10566000000E+00 0.  1.
         22    1    1    0    0    0  0.56467556500E+01 -0.73484845803E+01  0.29526358926E+02  0.30946598301E+02  0.00000000000E+00 0. -1.
</event>
<event>
 5    1  0.6835449E-004  0.9118800E+02  0.7818608E-02  0.1130116E+00
         25   -1    0    0    0    0  0.00000000000E+00  0.00000000000E+00  0.99999998245E-14  0.12500000000E+03  0.12500000000E+03 0.  0.
        -13    1    3    3    0    0  0.13696560711E+02 -0.30018045211E+02  0.27475471104E+02  0.42937064292E+02  0.10566000000E+00 0.  1.
         23    2    1    0    0    0  0.18992464861E+01  0.18468130319E+02  0.26243897806E+02  0.92853131618E+02  0.87110750798E+02 0.  0.
         13    1    3    3    0    0 -0.11797314225E+02  0.48486175530E+02 -0.12315732983E+01  0.49916067326E+02  0.10566000000E+00 0. -1.
         22    1    1    0    0    0 -0.18992464861E+01 -0.18468130319E+02 -0.26243897806E+02  0.32146868382E+02  0.00000000000E+00 0.  1.
</event>
<event>
 5    1  0.6835449E-004  0.9118800E+02  0.7818608E-02  0.1130116E+00
         25   -1    0    0    0    0  0.00000000000E+00  0.00000000000E+00  0.99999998245E-14  0.12500000000E+03  0.12500000000E+03 0.  0.
        -13    1    3    3    0    0  0.14140740764E+02  0.40939010732E+02  0.21807649549E+02  0.48492761233E+02  0.10566000000E+00 0.  1.
         23    2    1    0    0    0  0.47640860329E+01  0.24552014053E+02 -0.19089202325E+02  0.93537394336E+02  0.88087164695E+02 0.  0.
         13    1    3    3    0    0 -0.93766547314E+01 -0.16386996679E+02 -0.40896851874E+02  0.45044633103E+02  0.10566000000E+00 0. -1.
         22    1    1    0    0    0 -0.47640860329E+01 -0.24552014053E+02  0.19089202325E+02  0.31462605664E+02  0.00000000000E+00 0. -1.
</event>
<event>
 5    1  0.6835449E-004  0.9118800E+02  0.7818608E-02  0.1130116E+00
         25   -1    0    0    0    0  0.00000000000E+00  0.00000000000E+00  0.99999998245E-14  0.12500000000E+03  0.12500000000E+03 0.  0.
        -13    1    3    3    0    0  0.10503954919E+02  0.23165782568E+02 -0.31452456804E+02  0.40450645903E+02  0.10566000000E+00 0.  1.
         23    2    1    0    0    0 -0.99725639471E+01  0.26521727269E+02  0.16154910338E+02  0.92383513723E+02  0.86434243392E+02 0.  0.
         13    1    3    3    0    0 -0.20476518866E+02  0.33559447013E+01  0.47607367142E+02  0.51932867820E+02  0.10566000000E+00 0. -1.
         22    1    1    0    0    0  0.99725639471E+01 -0.26521727269E+02 -0.16154910338E+02  0.32616486277E+02  0.00000000000E+00 0.  1.
</event>
<event>
 5    1  0.6835449E-004  0.9118800E+02  0.7818608E-02  0.1130116E+00
         25   -1    0    0    0    0  0.00000000000E+00  0.00000000000E+00  0.99999998245E-14  0.12500000000E+03  0.12500000000E+03 0.  0.
        -13    1    3    3    0    0  0.40636886357E+02 -0.13320619556E+02  0.14343039709E+02  0.45105757840E+02  0.10566000000E+00 0.  1.
         23    2    1    0    0    0 -0.54231629781E+01 -0.19067608433E+02 -0.15105847811E+02  0.10007669713E+03  0.96923548644E+02 0.  0.
         13    1    3    3    0    0 -0.46060049335E+02 -0.57469888764E+01 -0.29448887520E+02  0.54970939287E+02  0.10566000000E+00 0. -1.
         22    1    1    0    0    0  0.54231629781E+01  0.19067608433E+02  0.15105847811E+02  0.24923302873E+02  0.00000000000E+00 0. -1.
</event>
<event>
 5    1  0.6835449E-004  0.9118800E+02  0.7818608E-02  0.1130116E+00
         25   -1    0    0    0    0  0.00000000000E+00  0.00000000000E+00  0.99999998245E-14  0.12500000000E+03  0.12500000000E+03 0.  0.
        -13    1    3    3    0    0 -0.28837465440E+02  0.24622777009E+02 -0.47496312392E+00  0.37922517251E+02  0.10566000000E+00 0.  1.
         23    2    1    0    0    0  0.53382161056E+01 -0.19700437431E+01 -0.32641934396E+02  0.91865825729E+02  0.85682299410E+02 0.  0.
         13    1    3    3    0    0  0.34175681546E+02 -0.26592820752E+02 -0.32166971272E+02  0.53943308478E+02  0.10566000000E+00 0. -1.
         22    1    1    0    0    0 -0.53382161056E+01  0.19700437431E+01  0.32641934396E+02  0.33134174271E+02  0.00000000000E+00 0. -1.
</event>
<event>
 5    1  0.6835449E-004  0.9118800E+02  0.7818608E-02  0.1130116E+00
         25   -1    0    0    0    0  0.00000000000E+00  0.00000000000E+00  0.99999998245E-14  0.12500000000E+03  0.12500000000E+03 0.  0.
        -13    1    3    3    0    0  0.18967732510E+02  0.20742947237E+02 -0.48755523051E+02  0.56277499311E+02  0.10566000000E+00 0. -1.
         23    2    1    0    0    0  0.34738488052E+01  0.20617291358E+02 -0.39031247124E+01  0.10373089774E+03  0.10152696408E+03 0.  0.
         13    1    3    3    0    0 -0.15493883705E+02 -0.12565587928E+00  0.44852398338E+02  0.47453398429E+02  0.10566000000E+00 0.  1.
         22    1    1    0    0    0 -0.34738488052E+01 -0.20617291358E+02  0.39031247124E+01  0.21269102261E+02  0.00000000000E+00 0. -1.
</event>
<event>
 5    1  0.6835449E-004  0.9118800E+02  0.7818608E-02  0.1130116E+00
         25   -1    0    0    0    0  0.00000000000E+00  0.00000000000E+00  0.99999998245E-14  0.12500000000E+03  0.12500000000E+03 0.  0.
        -13    1    3    3    0    0  0.13351419023E+02  0.41696335301E+02 -0.36056533100E+02  0.56717982252E+02  0.10566000000E+00 0.  1.
         23    2    1    0    0    0  0.22771519543E+02  0.99751523592E+01 -0.14300166288E+02  0.96320032728E+02  0.91951118438E+02 0.  0.
         13    1    3    3    0    0  0.94201005196E+01 -0.31721182942E+02  0.21756366812E+02  0.39602050476E+02  0.10566000000E+00 0. -1.
         22    1    1    0    0    0 -0.22771519543E+02 -0.99751523592E+01  0.14300166288E+02  0.28679967272E+02  0.00000000000E+00 0.  1.
</event>
<event>
 5    1  0.6835449E-004  0.9118800E+02  0.7818608E-02  0.1130116E+00
         25   -1    0    0    0    0  0.00000000000E+00  0.00000000000E+00  0.99999998245E-14  0.12500000000E+03  0.12500000000E+03 0.  0.
        -13    1    3    3    0    0  0.36304090091E+02  0.17587909771E+02 -0.13943582432E+02  0.42682035830E+02  0.10566000000E+00 0.  1.
         23    2    1    0    0    0 -0.54806050927E+00  0.17727244651E+02  0.23724294668E+02  0.95379099765E+02  0.90662974478E+02 0.  0.
         13    1    3    3    0    0 -0.36852150601E+02  0.13933488024E+00  0.37667877101E+02  0.52697063935E+02  0.10566000000E+00 0. -1.
         22    1    1    0    0    0  0.54806050927E+00 -0.17727244651E+02 -0.23724294668E+02  0.29620900235E+02  0.00000000000E+00 0. -1.
</event>
<event>
 5    1  0.6835449E-004  0.9118800E+02  0.7818608E-02  0.1130116E+00
         25   -1    0    0    0    0  0.00000000000E+00  0.00000000000E+00  0.99999998245E-14  0.12500000000E+03  0.12500000000E+03 0.  0.
        -13    1    3    3    0    0 -0.25413690259E+01  0.59867563856E+02  0.17248793223E+02  0.62354757560E+02  0.10566000000E+00 0. -1.
         23    2    1    0    0    0 -0.26069123828E+01  0.26659087240E+02  0.10420591663E+02  0.96258189771E+02  0.91867009545E+02 0.  0.
         13    1    3    3    0    0 -0.65543356872E-01 -0.33208476616E+02 -0.68282015603E+01  0.33903432211E+02  0.10566000000E+00 0.  1.
         22    1    1    0    0    0  0.26069123828E+01 -0.26659087240E+02 -0.10420591663E+02  0.28741810229E+02  0.00000000000E+00 0. -1.
</event>
<event>
 5    1  0.6835449E-004  0.9118800E+02  0.7818608E-02  0.1130116E+00
         25   -1    0    0    0    0  0.00000000000E+00  0.00000000000E+00  0.99999998245E-14  0.12500000000E+03  0.12500000000E+03 0.  0.
        -13    1    3    3    0    0 -0.11375482692E+02 -0.30552080216E+02 -0.42569642749E+02  0.53619183692E+02  0.10566000000E+00 0. -1.
         23    2    1    0    0    0 -0.12254965579E+01 -0.29846314102E+02 -0.24283441112E+01  0.95029995622E+02  0.90180368737E+02 0.  0.
         13    1    3    3    0    0  0.10149986134E+02  0.70576611333E+00  0.40141298638E+02  0.41410811930E+02  0.10566000000E+00 0.  1.
         22    1    1    0    0    0  0.12254965579E+01  0.29846314102E+02  0.24283441112E+01  0.29970004378E+02  0.00000000000E+00 0. -1.
</event>
<event>
 5    1  0.6835449E-004  0.9118800E+02  0.7818608E-02  0.1130116E+00
         25   -1    0    0    0    0  0.00000000000E+00  0.00000000000E+00  0.99999998245E-14  0.12500000000E+03  0.12500000000E+03 0.  0.
        -13    1    3    3    0    0  0.26908547485E+02 -0.15483962095E+02 -0.19208103771E+02  0.36507333844E+02  0.10566000000E+00 0. -1.
         23    2    1    0    0    0 -0.19271829734E+02  0.19696023881E+02 -0.11768524709E+02  0.95036105863E+02  0.90188837811E+02 0.  0.
         13    1    3    3    0    0 -0.46180377219E+02  0.35179985976E+02  0.74395790620E+01  0.58528772019E+02  0.10566000000E+00 0.  1.
         22    1    1    0    0    0  0.19271829734E+02 -0.19696023881E+02  0.11768524709E+02  0.29963894137E+02  0.00000000000E+00 0.  1.
</event>
<event>
 5    1  0.6835449E-004  0.9118800E+02  0.7818608E-02  0.1130116E+00
         25   -1    0    0    0    0  0.00000000000E+00  0.00000000000E+00  0.99999998245E-14  0.12500000000E+03  0.12500000000E+03 0.  0.
        -13    1    3    3    0    0 -0.15301746221E+02 -0.21443323381E+02  0.55235907393E+02  0.61196210541E+02  0.10566000000E+00 0. -1.
         23    2    1    0    0    0 -0.80391777417E+01 -0.14209735521E+01  0.28358870442E+02  0.95489441256E+02  0.90814978468E+02 0.  0.
         13    1    3    3    0    0  0.72625684789E+01  0.20022349829E+02 -0.26877036951E+02  0.34293230715E+02  0.10566000000E+00 0.  1.
         22    1    1    0    0    0  0.80391777417E+01  0.14209735521E+01 -0.28358870442E+02  0.29510558744E+02  0.00000000000E+00 0. -1.
</event>
<event>
 5    1  0.6835449E-004  0.9118800E+02  0.7818608E-02  0.1130116E+00
         25   -1    0    0    0    0  0.00000000000E+00  0.00000000000E+00  0.99999998245E-14  0.12500000000E+03  0.12500000000E+03 0.  0.
        -13    1    3    3    0    0  0.54420401568E+02  0.20734279052E+02 -0.35149620911E+01  0.58342579281E+02  0.10566000000E+00 0.  1.
         23    2    1    0    0    0  0.16702147599E+02  0.21558113467E+02  0.56100790445E+01  0.97157820172E+02  0.93083054543E+02 0.  0.
         13    1    3    3    0    0 -0.37718253970E+02  0.82383441507E+00  0.91250411357E+01  0.38815240891E+02  0.10566000000E+00 0. -1.
         22    1    1    0    0    0 -0.16702147599E+02 -0.21558113467E+02 -0.56100790445E+01  0.27842179828E+02  0.00000000000E+00 0.  1.
</event>
<event>
 5    1  0.6835449E-004  0.9118800E+02  0.7818608E-02  0.1130116E+00
         25   -1    0    0    0    0  0.00000000000E+00  0.00000000000E+00  0.99999998245E-14  0.12500000000E+03  0.12500000000E+03 0.  0.
        -13    1    3    3    0    0  0.26293106702E+02 -0.27721569020E+02  0.73783702604E+01  0.38913549834E+02  0.10566000000E+00 0. -1.
         23    2    1    0    0    0  0.10180939563E+02  0.26170690762E+02 -0.49182973402E+01  0.96491295469E+02  0.92183642080E+02 0.  0.
         13    1    3    3    0    0 -0.16112167139E+02  0.53892259781E+02 -0.12296667601E+02  0.57577745635E+02  0.10566000000E+00 0.  1.
         22    1    1    0    0    0 -0.10180939563E+02 -0.26170690762E+02  0.49182973402E+01  0.28508704531E+02  0.00000000000E+00 0.  1.
</event>
<event>
 5    1  0.6835449E-004  0.9118800E+02  0.7818608E-02  0.1130116E+00
         25   -1    0    0    0    0  0.00000000000E+00  0.00000000000E+00  0.99999998245E-14  0.12500000000E+03  0.12500000000E+03 0.  0.
        -13    1    3    3    0    0  0.27624019439E+02  0.14090242107E+02 -0.38656049745E+02  0.49557267060E+02  0.10566000000E+00 0.  1.
         23    2    1    0    0    0  0.30333495206E+02 -0.98910804822E+00  0.35360876626E+01  0.94445079249E+02  0.89365932056E+02 0.  0.
         13    1    3    3    0    0  0.27094757675E+01 -0.15079350155E+02  0.42192137407E+02  0.44887812189E+02  0.10566000000E+00 0. -1.
         22    1    1    0    0    0 -0.30333495206E+02  0.98910804822E+00 -0.35360876626E+01  0.30554920751E+02  0.00000000000E+00 0. -1.
</event>
<event>
 5    1  0.6835449E-004  0.9118800E+02  0.7818608E-02  0.1130116E+00
         25   -1    0    0    0    0  0.00000000000E+00  0.00000000000E+00  0.99999998245E-14  0.12500000000E+03  0.12500000000E+03 0.  0.
        -13    1    3    3    0    0  0.29740971126E+02  0.48615332401E+02  0.33809641772E+01  0.57091312744E+02  0.10566000000E+00 0. -1.
         23    2    1    0    0    0 -0.21007222435E+01  0.26990767574E+02  0.99861355879E+01  0.96144541727E+02  0.91712242540E+02 0.  0.
         13    1    3    3    0    0 -0.31841693370E+02 -0.21624564827E+02  0.66051714107E+01  0.39053228983E+02  0.10566000000E+00 0.  1.
         22    1    1    0    0    0  0.21007222435E+01 -0.26990767574E+02 -0.99861355879E+01  0.28855458273E+02  0.00000000000E+00 0. -1.
</event>
<event>
 5    1  0.6835449E-004  0.9118800E+02  0.7818608E-02  0.1130116E+00
         25   -1    0    0    0    0  0.00000000000E+00  0.00000000000E+00  0.99999998245E-14  0.12500000000E+03  0.12500000000E+03 0.  0.
        -13    1    3    3    0    0 -0.45452894658E+02 -0.17929093495E+02  0.32101408594E+02  0.58463062048E+02  0.10566000000E+00 0.  1.
         23    2    1    0    0    0 -0.29709481348E+02 -0.11236356447E+02  0.18915671178E+01  0.93180398898E+02  0.87579105524E+02 0.  0.
         13    1    3    3    0    0  0.15743413310E+02  0.66927370474E+01 -0.30209841476E+02  0.34717336849E+02  0.10566000000E+00 0. -1.
         22    1    1    0    0    0  0.29709481348E+02  0.11236356447E+02 -0.18915671178E+01  0.31819601102E+02  0.00000000000E+00 0.  1.
</event>
<event>
 5    1  0.6835449E-004  0.9118800E+02  0.7818608E-02  0.1130116E+00
         25   -1    0    0    0    0  0.00000000000E+00  0.00000000000E+00  0.99999998245E-14  0.12500000000E+03  0.12500000000E+03 0.  0.
        -13    1    3    3    0    0 -0.14289467779E+02  0.71437519622E-02  0.39594141086E+02  0.42093896384E+02  0.10566000000E+00 0.  1.
         23    2    1    0    0    0 -0.27204277341E+02  0.54124663994E+01 -0.11426838736E+02  0.95000997656E+02  0.90140165375E+02 0.  0.
         13    1    3    3    0    0 -0.12914809562E+02  0.54053226474E+01 -0.51020979822E+02  0.52907101271E+02  0.10566000000E+00 0. -1.
         22    1    1    0    0    0  0.27204277341E+02 -0.54124663994E+01  0.11426838736E+02  0.29999002344E+02  0.00000000000E+00 0. -1.
</event>
<event>
 5    1  0.6835449E-004  0.9118800E+02  0.7818608E-02  0.1130116E+00
         25   -1    0    0    0    0  0.00000000000E+00  0.00000000000E+00  0.99999998245E-14  0.12500000000E+03  0.12500000000E+03 0.  0.
        -13    1    3    3    0    0  0.51059152443E+02 -0.33808615923E+02  0.20657780929E+01  0.61272654275E+02  0.10566000000E+00 0. -1.
         23    2    1    0    0    0  0.26403498137E+02 -0.12154411182E+02 -0.65598126196E+01  0.95202255678E+02  0.90418825029E+02 0.  0.
         13    1    3    3    0    0 -0.24655654305E+02  0.21654204741E+02 -0.86255907125E+01  0.33929601403E+02  0.10566000000E+00 0.  1.
         22    1    1    0    0    0 -0.26403498137E+02  0.12154411182E+02  0.65598126196E+01  0.29797744322E+02  0.00000000000E+00 0. -1.
</event>
<event>
 5    1  0.6835449E-004  0.9118800E+02  0.7818608E-02  0.1130116E+00
         25   -1    0    0    0    0  0.00000000000E+00  0.00000000000E+00  0.99999998245E-14  0.12500000000E+03  0.12500000000E+03 0.  0.
        -13    1    3    3    0    0 -0.25981362050E+02  0.31317007488E+02  0.23440127760E+01  0.40758946159E+02  0.10566000000E+00 0.  1.
         23    2    1    0    0    0  0.82931326308E+01  0.46021380714E+01 -0.29096902014E+02  0.94396316717E+02  0.89297699743E+02 0.  0.
         13    1    3    3    0    0  0.34274494681E+02 -0.26714869417E+02 -0.31440914790E+02  0.53637370559E+02  0.10566000000E+00 0. -1.
         22    1    1    0    0    0 -0.82931326308E+01 -0.46021380714E+01  0.29096902014E+02  0.30603683283E+02  0.00000000000E+00 0. -1.
</event>
<event>
 5    1  0.6835449E-004  0.9118800E+02  0.7818608E-02  0.1130116E+00
         25   -1    0    0    0    0  0.00000000000E+00  0.00000000000E+00  0.99999998245E-14  0.12500000000E+03  0.12500000000E+03 0.  0.
        -13    1    3    3    0    0 -0.26958927145E+02 -0.26393364000E+02  0.12642130377E+02  0.39789798197E+02  0.10566000000E+00 0.  1.
         23    2    1    0    0    0  0.10291639781E+02  0.18856277154E+02  0.15563478331E+02  0.98472676440E+02  0.94832321020E+02 0.  0.
         13    1    3    3    0    0  0.37250566926E+02  0.45249641155E+02  0.29213479540E+01  0.58682878243E+02  0.10566000000E+00 0. -1.
         22    1    1    0    0    0 -0.10291639781E+02 -0.18856277154E+02 -0.15563478331E+02  0.26527323560E+02  0.00000000000E+00 0. -1.
</event>
<event>
 5    1  0.6835449E-004  0.9118800E+02  0.7818608E-02  0.1130116E+00
         25   -1    0    0    0    0  0.00000000000E+00  0.00000000000E+00  0.99999998245E-14  0.12500000000E+03  0.12500000000E+03 0.  0.
        -13    1    3    3    0    0 -0.19223024017E+02 -0.48036371653E+02  0.16651870189E+02  0.54353597846E+02  0.10566000000E+00 0.  1.
         23    2    1    0    0    0 -0.44316741921E+01 -0.10525873613E+02  0.26744421748E+02  0.95919115452E+02  0.91404479448E+02 0.  0.
         13    1    3    3    0    0  0.14791349825E+02  0.37510498040E+02  0.10092551558E+02  0.41565517606E+02  0.10566000000E+00 0. -1.
         22    1    1    0    0    0  0.44316741921E+01  0.10525873613E+02 -0.26744421748E+02  0.29080884548E+02  0.00000000000E+00 0.  1.
</event>
<event>
 5    1  0.6835449E-004  0.9118800E+02  0.7818608E-02  0.1130116E+00
         25   -1    0    0    0    0  0.00000000000E+00  0.00000000000E+00  0.99999998245E-14  0.12500000000E+03  0.12500000000E+03 0.  0.
        -13    1    3    3    0    0  0.30591558626E+02 -0.29082934066E+02 -0.40324586038E+02  0.58375884715E+02  0.10566000000E+00 0.  1.
         23    2    1    0    0    0  0.20237617730E+01 -0.23592503262E+02 -0.21423489018E+02  0.93067763881E+02  0.87418195876E+02 0.  0.
         13    1    3    3    0    0 -0.28567796853E+02  0.54904308047E+01  0.18901097020E+02  0.34691879166E+02  0.10566000000E+00 0. -1.
         22    1    1    0    0    0 -0.20237617730E+01  0.23592503262E+02  0.21423489018E+02  0.31932236119E+02  0.00000000000E+00 0. -1.
</event>
<event>
 5    1  0.6835449E-004  0.9118800E+02  0.7818608E-02  0.1130116E+00
         25   -1    0    0    0    0  0.00000000000E+00  0.00000000000E+00  0.99999998245E-14  0.12500000000E+03  0.12500000000E+03 0.  0.
        -13    1    3    3    0    0 -0.38737039167E+02 -0.17906428297E+02  0.18448642642E+02  0.46492601101E+02  0.10566000000E+00 0.  1.
         23    2    1    0    0    0 -0.17483486693E+02  0.16363343484E+02 -0.13110736381E+02  0.97699400640E+02  0.93807516544E+02 0.  0.
         13    1    3    3    0    0  0.21253552474E+02  0.34269771781E+02 -0.31559379023E+02  0.51206799539E+02  0.10566000000E+00 0. -1.
         22    1    1    0    0    0  0.17483486693E+02 -0.16363343484E+02  0.13110736381E+02  0.27300599360E+02  0.00000000000E+00 0. -1.
</event>
<event>
 5    1  0.6835449E-004  0.9118800E+02  0.7818608E-02  0.1130116E+00
         25   -1    0    0    0    0  0.00000000000E+00  0.00000000000E+00  0.99999998245E-14  0.12500000000E+03  0.12500000000E+03 0.  0.
        -13    1    3    3    0    0 -0.30768765661E+02 -0.15562872886E+02 -0.48525191280E+02  0.59528357155E+02  0.10566000000E+00 0.  1.
         23    2    1    0    0    0 -0.52310906587E+01  0.49404499508E+00 -0.29148428141E+02  0.95381774985E+02  0.90666662817E+02 0.  0.
         13    1    3    3    0    0  0.25537675002E+02  0.16056917881E+02  0.19376763139E+02  0.35853417831E+02  0.10566000000E+00 0. -1.
         22    1    1    0    0    0  0.52310906587E+01 -0.49404499508E+00  0.29148428141E+02  0.29618225015E+02  0.00000000000E+00 0.  1.
</event>
<event>
 5    1  0.6835449E-004  0.9118800E+02  0.7818608E-02  0.1130116E+00
         25   -1    0    0    0    0  0.00000000000E+00  0.00000000000E+00  0.99999998245E-14  0.12500000000E+03  0.12500000000E+03 0.  0.
        -13    1    3    3    0    0  0.29983197261E+02 -0.83021826554E+01  0.15650466981E+02  0.34826234875E+02  0.10566000000E+00 0.  1.
         23    2    1    0    0    0 -0.14186477752E+02  0.49367643355E+01 -0.24694587835E+02  0.96095840067E+02  0.91645840150E+02 0.  0.
         13    1    3    3    0    0 -0.44169675013E+02  0.13238946991E+02 -0.40345054816E+02  0.61269605191E+02  0.10566000000E+00 0. -1.
         22    1    1    0    0    0  0.14186477752E+02 -0.49367643355E+01  0.24694587835E+02  0.28904159933E+02  0.00000000000E+00 0. -1.
</event>
<event>
 5    1  0.6835449E-004  0.9118800E+02  0.7818608E-02  0.1130116E+00
         25   -1    0    0    0    0  0.00000000000E+00  0.00000000000E+00  0.99999998245E-14  0.12500000000E+03  0.12500000000E+03 0.  0.
        -13    1    3    3    0    0 -0.15742118995E+02  0.28753740754E+02  0.17471183200E+02  0.37146269319E+02  0.10566000000E+00 0. -1.
         23    2    1    0    0    0  0.26636300998E+02 -0.30282476541E+01  0.22012538390E+02  0.90312615246E+02  0.83385573162E+02 0.  0.
         13    1    3    3    0    0  0.42378419993E+02 -0.31781988408E+02  0.45413551896E+01  0.53166345928E+02  0.10566000000E+00 0.  1.
         22    1    1    0    0    0 -0.26636300998E+02  0.30282476541E+01 -0.22012538390E+02  0.34687384754E+02  0.00000000000E+00 0.  1.
</event>
<event>
 5    1  0.6835449E-004  0.9118800E+02  0.7818608E-02  0.1130116E+00
         25   -1    0    0    0    0  0.00000000000E+00  0.00000000000E+00  0.99999998245E-14  0.12500000000E+03  0.12500000000E+03 0.  0.
        -13    1    3    3    0    0  0.20902407436E+02 -0.34591305980E+02 -0.17759903264E+02  0.44146284260E+02  0.10566000000E+00 0.  1.
         23    2    1    0    0    0 -0.11100429295E+02  0.48461486638E+01 -0.26667886332E+02  0.95710396916E+02  0.91118599797E+02 0.  0.
         13    1    3    3    0    0 -0.32002836731E+02  0.39437454644E+02 -0.89079830682E+01  0.51564112656E+02  0.10566000000E+00 0. -1.
         22    1    1    0    0    0  0.11100429295E+02 -0.48461486638E+01  0.26667886332E+02  0.29289603084E+02  0.00000000000E+00 0. -1.
</event>
<event>
 5    1  0.6835449E-004  0.9118800E+02  0.7818608E-02  0.1130116E+00
         25   -1    0    0    0    0  0.00000000000E+00  0.00000000000E+00  0.99999998245E-14  0.12500000000E+03  0.12500000000E+03 0.  0.
        -13    1    3    3    0    0  0.26865971713E+02  0.28450846964E+02 -0.21894689493E+02  0.44839934446E+02  0.10566000000E+00 0. -1.
         23    2    1    0    0    0 -0.18528425428E+02  0.23297821031E+02 -0.64591399713E+00  0.95225712124E+02  0.90451246708E+02 0.  0.
         13    1    3    3    0    0 -0.45394397141E+02 -0.51530259338E+01  0.21248775496E+02  0.50385777678E+02  0.10566000000E+00 0.  1.
         22    1    1    0    0    0  0.18528425428E+02 -0.23297821031E+02  0.64591399713E+00  0.29774287876E+02  0.00000000000E+00 0.  1.
</event>
<event>
 5    1  0.6835449E-004  0.9118800E+02  0.7818608E-02  0.1130116E+00
         25   -1    0    0    0    0  0.00000000000E+00  0.00000000000E+00  0.99999998245E-14  0.12500000000E+03  0.12500000000E+03 0.  0.
        -13    1    3    3    0    0 -0.43490866365E+02 -0.41162346889E+02 -0.10080459394E+02  0.60724139221E+02  0.10566000000E+00 0. -1.
         23    2    1    0    0    0 -0.22879805548E+02 -0.16977726784E+02  0.52895262995E+01  0.96022287925E+02  0.91545464012E+02 0.  0.
         13    1    3    3    0    0  0.20611060817E+02  0.24184620105E+02  0.15369985693E+02  0.35298148703E+02  0.10566000000E+00 0.  1.
         22    1    1    0    0    0  0.22879805548E+02  0.16977726784E+02 -0.52895262995E+01  0.28977712075E+02  0.00000000000E+00 0. -1.
</event>
<event>
 5    1  0.6835449E-004  0.9118800E+02  0.7818608E-02  0.1130116E+00
         25   -1    0    0    0    0  0.00000000000E+00  0.00000000000E+00  0.99999998245E-14  0.12500000000E+03  0.12500000000E+03 0.  0.
        -13    1    3    3    0    0 -0.16810433546E+02  0.30443370084E+02  0.15675835773E+02  0.38146198360E+02  0.10566000000E+00 0.  1.
         23    2    1    0    0    0 -0.13674375921E+02 -0.14544544478E+02 -0.20816015229E+02  0.96158383871E+02  0.91731106870E+02 0.  0.
         13    1    3    3    0    0  0.31360576244E+01 -0.44987914563E+02 -0.36491851003E+02  0.58012185511E+02  0.10566000000E+00 0. -1.
         22    1    1    0    0    0  0.13674375921E+02  0.14544544478E+02  0.20816015229E+02  0.28841616129E+02  0.00000000000E+00 0. -1.
</event>
<event>
 5    1  0.6835449E-004  0.9118800E+02  0.7818608E-02  0.1130116E+00
         25   -1    0    0    0    0  0.00000000000E+00  0.00000000000E+00  0.99999998245E-14  0.12500000000E+03  0.12500000000E+03 0.  0.
        -13    1    3    3    0    0 -0.39703377482E+02 -0.29772578565E+02  0.18455604913E+01  0.49660667287E+02  0.10566000000E+00 0. -1.
         23    2    1    0    0    0 -0.11479726557E+02 -0.32190043758E+01 -0.25338838631E+02  0.96996377839E+02  0.92866002712E+02 0.  0.
         13    1    3    3    0    0  0.28223650925E+02  0.26553574189E+02 -0.27184399122E+02  0.47335710552E+02  0.10566000000E+00 0.  1.
         22    1    1    0    0    0  0.11479726557E+02  0.32190043758E+01  0.25338838631E+02  0.28003622161E+02  0.00000000000E+00 0. -1.
</event>
<event>
 5    1  0.6835449E-004  0.9118800E+02  0.7818608E-02  0.1130116E+00
         25   -1    0    0    0    0  0.00000000000E+00  0.00000000000E+00  0.99999998245E-14  0.12500000000E+03  0.12500000000E+03 0.  0.
        -13    1    3    3    0    0  0.40333412578E+02 -0.19240753892E+02  0.40818167857E+02  0.60523753781E+02  0.10566000000E+00 0.  1.
         23    2    1    0    0    0  0.25911510824E+02 -0.46020940678E+01  0.11611954232E+02  0.96235036171E+02  0.91835499905E+02 0.  0.
         13    1    3    3    0    0 -0.14421901754E+02  0.14638659824E+02 -0.29206213624E+02  0.35711282390E+02  0.10566000000E+00 0. -1.
         22    1    1    0    0    0 -0.25911510824E+02  0.46020940678E+01 -0.11611954232E+02  0.28764963829E+02  0.00000000000E+00 0.  1.
</event>
<event>
 5    1  0.6835449E-004  0.9118800E+02  0.7818608E-02  0.1130116E+00
         25   -1    0    0    0    0  0.00000000000E+00  0.00000000000E+00  0.99999998245E-14  0.12500000000E+03  0.12500000000E+03 0.  0.
        -13    1    3    3    0    0  0.34756332664E+02 -0.78110658444E+01  0.80426654361E+01  0.36520008779E+02  0.10566000000E+00 0. -1.
         23    2    1    0    0    0 -0.23583036303E+02 -0.12013856290E+02  0.13544354318E+02  0.95268839947E+02  0.90510828008E+02 0.  0.
         13    1    3    3    0    0 -0.58339368967E+02 -0.42027904456E+01  0.55016888817E+01  0.58748831168E+02  0.10566000000E+00 0.  1.
         22    1    1    0    0    0  0.23583036303E+02  0.12013856290E+02 -0.13544354318E+02  0.29731160053E+02  0.00000000000E+00 0.  1.
</event>
<event>
 5    1  0.6835449E-004  0.9118800E+02  0.7818608E-02  0.1130116E+00
         25   -1    0    0    0    0  0.00000000000E+00  0.00000000000E+00  0.99999998245E-14  0.12500000000E+03  0.12500000000E+03 0.  0.
        -13    1    3    3    0    0 -0.12956223833E+02 -0.11303339324E+02 -0.26953099700E+02  0.31970454538E+02  0.10566000000E+00 0. -1.
         23    2    1    0    0    0  0.69780929736E+01  0.15880451281E+02  0.25402775609E+02  0.94239903721E+02  0.89078481859E+02 0.  0.
         13    1    3    3    0    0  0.19934316807E+02  0.27183790606E+02  0.52355875309E+02  0.62269449183E+02  0.10566000000E+00 0.  1.
         22    1    1    0    0    0 -0.69780929736E+01 -0.15880451281E+02 -0.25402775609E+02  0.30760096279E+02  0.00000000000E+00 0.  1.
</event>
<event>
 5    1  0.6835449E-004  0.9118800E+02  0.7818608E-02  0.1130116E+00
         25   -1    0    0    0    0  0.00000000000E+00  0.00000000000E+00  0.99999998245E-14  0.12500000000E+03  0.12500000000E+03 0.  0.
        -13    1    3    3    0    0  0.17937056341E+02 -0.15868056981E+02 -0.32501828138E+02  0.40372183726E+02  0.10566000000E+00 0. -1.
         23    2    1    0    0    0  0.28120887683E+02  0.14346450871E+02  0.84945048827E+01  0.92308080664E+02  0.86325084222E+02 0.  0.
         13    1    3    3    0    0  0.10183831342E+02  0.30214507852E+02  0.40996333020E+02  0.51935896937E+02  0.10566000000E+00 0.  1.
         22    1    1    0    0    0 -0.28120887683E+02 -0.14346450871E+02 -0.84945048827E+01  0.32691919336E+02  0.00000000000E+00 0.  1.
</event>
<event>
 5    1  0.6835449E-004  0.9118800E+02  0.7818608E-02  0.1130116E+00
         25   -1    0    0    0    0  0.00000000000E+00  0.00000000000E+00  0.99999998245E-14  0.12500000000E+03  0.12500000000E+03 0.  0.
        -13    1    3    3    0    0  0.46079098370E+02  0.16388000014E+02 -0.14683360288E+02  0.51063314468E+02  0.10566000000E+00 0.  1.
         23    2    1    0    0    0  0.15639854784E+02  0.33550633584E+02 -0.32051720936E+01  0.87844607395E+02  0.79599948798E+02 0.  0.
         13    1    3    3    0    0 -0.30439243586E+02  0.17162633570E+02  0.11478188195E+02  0.36781292927E+02  0.10566000000E+00 0. -1.
         22    1    1    0    0    0 -0.15639854784E+02 -0.33550633584E+02  0.32051720936E+01  0.37155392605E+02  0.00000000000E+00 0.  1.
</event>
<event>
 5    1  0.6835449E-004  0.9118800E+02  0.7818608E-02  0.1130116E+00
         25   -1    0    0    0    0  0.00000000000E+00  0.00000000000E+00  0.99999998245E-14  0.12500000000E+03  0.12500000000E+03 0.  0.
        -13    1    3    3    0    0  0.41399172112E+02 -0.17883827616E+02  0.41329669209E+02  0.61170871031E+02  0.10566000000E+00 0. -1.
         23    2    1    0    0    0  0.22529199284E+02 -0.13296516011E+02  0.12312089870E+02  0.96087204989E+02  0.91634061610E+02 0.  0.
         13    1    3    3    0    0 -0.18869972827E+02  0.45873116055E+01 -0.29017579339E+02  0.34916333957E+02  0.10566000000E+00 0.  1.
         22    1    1    0    0    0 -0.22529199284E+02  0.13296516011E+02 -0.12312089870E+02  0.28912795011E+02  0.00000000000E+00 0. -1.
</event>
<event>
 5    1  0.6835449E-004  0.9118800E+02  0.7818608E-02  0.1130116E+00
         25   -1    0    0    0    0  0.00000000000E+00  0.00000000000E+00  0.99999998245E-14  0.12500000000E+03  0.12500000000E+03 0.  0.
        -13    1    3    3    0    0 -0.46355617248E+02 -0.26051280707E+02  0.12461673126E+02  0.54615171317E+02  0.10566000000E+00 0.  1.
         23    2    1    0    0    0 -0.28562345999E+02  0.58966353570E+01 -0.54426586468E+01  0.95331827649E+02  0.90597775426E+02 0.  0.
         13    1    3    3    0    0  0.17793271248E+02  0.31947916064E+02 -0.17904331773E+02  0.40716656332E+02  0.10566000000E+00 0. -1.
         22    1    1    0    0    0  0.28562345999E+02 -0.58966353570E+01  0.54426586468E+01  0.29668172351E+02  0.00000000000E+00 0.  1.
</event>
<event>
 5    1  0.6835449E-004  0.9118800E+02  0.7818608E-02  0.1130116E+00
         25   -1    0    0    0    0  0.00000000000E+00  0.00000000000E+00  0.99999998245E-14  0.12500000000E+03  0.12500000000E+03 0.  0.
        -13    1    3    3    0    0  0.16596700342E+02  0.38299318787E+02  0.19173915798E+02  0.45934066800E+02  0.10566000000E+00 0. -1.
         23    2    1    0    0    0  0.23616241321E+01 -0.10655153697E+02  0.25457172754E+02  0.97302035933E+02  0.93276518928E+02 0.  0.
         13    1    3    3    0    0 -0.14235076210E+02 -0.48954472483E+02  0.62832569557E+01  0.51367969133E+02  0.10566000000E+00 0.  1.
         22    1    1    0    0    0 -0.23616241321E+01  0.10655153697E+02 -0.25457172754E+02  0.27697964067E+02  0.00000000000E+00 0.  1.
</event>
<event>
 5    1  0.6835449E-004  0.9118800E+02  0.7818608E-02  0.1130116E+00
         25   -1    0    0    0    0  0.00000000000E+00  0.00000000000E+00  0.99999998245E-14  0.12500000000E+03  0.12500000000E+03 0.  0.
        -13    1    3    3    0    0  0.18977507378E+02 -0.49003273826E+02 -0.92747011763E+01  0.53361951594E+02  0.10566000000E+00 0. -1.
         23    2    1    0    0    0  0.94228684249E+01 -0.10035211457E+02 -0.25003725337E+02  0.96457361736E+02  0.92137616824E+02 0.  0.
         13    1    3    3    0    0 -0.95546389527E+01  0.38968062369E+02 -0.15729024160E+02  0.43095410143E+02  0.10566000000E+00 0.  1.
         22    1    1    0    0    0 -0.94228684249E+01  0.10035211457E+02  0.25003725337E+02  0.28542638264E+02  0.00000000000E+00 0. -1.
</event>
<event>
 5    1  0.6835449E-004  0.9118800E+02  0.7818608E-02  0.1130116E+00
         25   -1    0    0    0    0  0.00000000000E+00  0.00000000000E+00  0.99999998245E-14  0.12500000000E+03  0.12500000000E+03 0.  0.
        -13    1    3    3    0    0  0.30560692696E+01 -0.39542589057E+02  0.25746583370E+00  0.39661484609E+02  0.10566000000E+00 0. -1.
         23    2    1    0    0    0  0.29777281445E+02  0.78442712512E+01 -0.22814512755E+01  0.94122433683E+02  0.88913488408E+02 0.  0.
         13    1    3    3    0    0  0.26721212175E+02  0.47386860308E+02 -0.25389171092E+01  0.54460949074E+02  0.10566000000E+00 0.  1.
         22    1    1    0    0    0 -0.29777281445E+02 -0.78442712512E+01  0.22814512755E+01  0.30877566317E+02  0.00000000000E+00 0.  1.
</event>
<event>
 5    1  0.6835449E-004  0.9118800E+02  0.7818608E-02  0.1130116E+00
         25   -1    0    0    0    0  0.00000000000E+00  0.00000000000E+00  0.99999998245E-14  0.12500000000E+03  0.12500000000E+03 0.  0.
        -13    1    3    3    0    0  0.93418870399E+01 -0.49663240013E+02  0.20535380996E+02  0.54547422476E+02  0.10566000000E+00 0. -1.
         23    2    1    0    0    0  0.21637998763E+02 -0.70463610685E+01  0.10037462304E+02  0.10012823198E+03  0.96989989152E+02 0.  0.
         13    1    3    3    0    0  0.12296111723E+02  0.42616878944E+02 -0.10497918692E+02  0.45580809507E+02  0.10566000000E+00 0.  1.
         22    1    1    0    0    0 -0.21637998763E+02  0.70463610685E+01 -0.10037462304E+02  0.24871768017E+02  0.00000000000E+00 0. -1.
</event>
<event>
 5    1  0.6835449E-004  0.9118800E+02  0.7818608E-02  0.1130116E+00
         25   -1    0    0    0    0  0.00000000000E+00  0.00000000000E+00  0.99999998245E-14  0.12500000000E+03  0.12500000000E+03 0.  0.
        -13    1    3    3    0    0  0.57763645757E+02  0.63782617613E+01 -0.70069554170E+00  0.58119042770E+02  0.10566000000E+00 0. -1.
         23    2    1    0    0    0  0.24434336740E+02 -0.67017884607E+01  0.13083010218E+02  0.96484812172E+02  0.92174850383E+02 0.  0.
         13    1    3    3    0    0 -0.33329309017E+02 -0.13080050222E+02  0.13783705759E+02  0.38365769402E+02  0.10566000000E+00 0.  1.
         22    1    1    0    0    0 -0.24434336740E+02  0.67017884607E+01 -0.13083010218E+02  0.28515187828E+02  0.00000000000E+00 0. -1.
</event>
<event>
 5    1  0.6835449E-004  0.9118800E+02  0.7818608E-02  0.1130116E+00
         25   -1    0    0    0    0  0.00000000000E+00  0.00000000000E+00  0.99999998245E-14  0.12500000000E+03  0.12500000000E+03 0.  0.
        -13    1    3    3    0    0  0.21978202964E+02 -0.60561416312E+01 -0.33467173412E+02  0.40494210910E+02  0.10566000000E+00 0.  1.
         23    2    1    0    0    0 -0.16610335913E+02  0.23271950813E+02 -0.76856289409E+01  0.95393314167E+02  0.90682570220E+02 0.  0.
         13    1    3    3    0    0 -0.38588538878E+02  0.29328092444E+02  0.25781544471E+02  0.54899103257E+02  0.10566000000E+00 0. -1.
         22    1    1    0    0    0  0.16610335913E+02 -0.23271950813E+02  0.76856289409E+01  0.29606685833E+02  0.00000000000E+00 0. -1.
</event>
<event>
 5    1  0.6835449E-004  0.9118800E+02  0.7818608E-02  0.1130116E+00
         25   -1    0    0    0    0  0.00000000000E+00  0.00000000000E+00  0.99999998245E-14  0.12500000000E+03  0.12500000000E+03 0.  0.
        -13    1    3    3    0    0 -0.20926399870E+02 -0.19035637098E+02  0.54282873798E+01  0.28805332131E+02  0.10566000000E+00 0.  1.
         23    2    1    0    0    0  0.14164647904E+02  0.30482148457E+02  0.10701578646E+02  0.89725045566E+02  0.82500069040E+02 0.  0.
         13    1    3    3    0    0  0.35091047775E+02  0.49517785555E+02  0.52732912662E+01  0.60919713435E+02  0.10566000000E+00 0. -1.
         22    1    1    0    0    0 -0.14164647904E+02 -0.30482148457E+02 -0.10701578646E+02  0.35274954434E+02  0.00000000000E+00 0. -1.
</event>
<event>
 5    1  0.6835449E-004  0.9118800E+02  0.7818608E-02  0.1130116E+00
         25   -1    0    0    0    0  0.00000000000E+00  0.00000000000E+00  0.99999998245E-14  0.12500000000E+03  0.12500000000E+03 0.  0.
        -13    1    3    3    0    0  0.99335782748E+01  0.36705752604E+01 -0.36432351587E+02  0.37940433660E+02  0.10566000000E+00 0. -1.
         23    2    1    0    0    0  0.21959034326E+02 -0.56590439200E+01  0.18994636018E+02  0.95419260251E+02  0.90718328152E+02 0.  0.
         13    1    3    3    0    0  0.12025456052E+02 -0.93296191804E+01  0.55426987605E+02  0.57478826591E+02  0.10566000000E+00 0.  1.
         22    1    1    0    0    0 -0.21959034326E+02  0.56590439200E+01 -0.18994636018E+02  0.29580739749E+02  0.00000000000E+00 0.  1.
</event>
<event>
 5    1  0.6835449E-004  0.9118800E+02  0.7818608E-02  0.1130116E+00
         25   -1    0    0    0    0  0.00000000000E+00  0.00000000000E+00  0.99999998245E-14  0.12500000000E+03  0.12500000000E+03 0.  0.
        -13    1    3    3    0    0  0.87542161257E+01 -0.36417443601E+02 -0.43598233392E+02  0.57477679297E+02  0.10566000000E+00 0. -1.
         23    2    1    0    0    0 -0.13251072739E+02 -0.20296826233E+02 -0.19151499524E+02  0.94107735306E+02  0.88892822132E+02 0.  0.
         13    1    3    3    0    0 -0.22005288865E+02  0.16120617368E+02  0.24446733868E+02  0.36630056009E+02  0.10566000000E+00 0.  1.
         22    1    1    0    0    0  0.13251072739E+02  0.20296826233E+02  0.19151499524E+02  0.30892264694E+02  0.00000000000E+00 0. -1.
</event>
<event>
 5    1  0.6835449E-004  0.9118800E+02  0.7818608E-02  0.1130116E+00
         25   -1    0    0    0    0  0.00000000000E+00  0.00000000000E+00  0.99999998245E-14  0.12500000000E+03  0.12500000000E+03 0.  0.
        -13    1    3    3    0    0  0.19381674177E+02 -0.70979640048E+01 -0.54892978227E+02  0.58645380122E+02  0.10566000000E+00 0. -1.
         23    2    1    0    0    0  0.40256497639E+01 -0.17921214902E+02 -0.24439680092E+02  0.94427565315E+02  0.89341431199E+02 0.  0.
         13    1    3    3    0    0 -0.15356024414E+02 -0.10823250898E+02  0.30453298136E+02  0.35782185193E+02  0.10566000000E+00 0.  1.
         22    1    1    0    0    0 -0.40256497639E+01  0.17921214902E+02  0.24439680092E+02  0.30572434685E+02  0.00000000000E+00 0. -1.
</event>
<event>
 5    1  0.6835449E-004  0.9118800E+02  0.7818608E-02  0.1130116E+00
         25   -1    0    0    0    0  0.00000000000E+00  0.00000000000E+00  0.99999998245E-14  0.12500000000E+03  0.12500000000E+03 0.  0.
        -13    1    3    3    0    0  0.82557577415E+01 -0.11040832936E+02  0.58075872726E+02  0.59689828989E+02  0.10566000000E+00 0.  1.
         23    2    1    0    0    0  0.12867598346E+02 -0.14074180891E+02  0.23347600176E+02  0.94854219384E+02  0.89936393335E+02 0.  0.
         13    1    3    3    0    0  0.46118406042E+01 -0.30333479550E+01 -0.34728272550E+02  0.35164390396E+02  0.10566000000E+00 0. -1.
         22    1    1    0    0    0 -0.12867598346E+02  0.14074180891E+02 -0.23347600176E+02  0.30145780616E+02  0.00000000000E+00 0.  1.
</event>
<event>
 5    1  0.6835449E-004  0.9118800E+02  0.7818608E-02  0.1130116E+00
         25   -1    0    0    0    0  0.00000000000E+00  0.00000000000E+00  0.99999998245E-14  0.12500000000E+03  0.12500000000E+03 0.  0.
        -13    1    3    3    0    0 -0.80559094101E+01 -0.33432621700E+02 -0.18998431521E+02  0.39288540752E+02  0.10566000000E+00 0. -1.
         23    2    1    0    0    0  0.29278239291E+02  0.51797661826E+01 -0.44334458513E+01  0.94938384677E+02  0.90053296271E+02 0.  0.
         13    1    3    3    0    0  0.37334148701E+02  0.38612387883E+02  0.14564985669E+02  0.55649843925E+02  0.10566000000E+00 0.  1.
         22    1    1    0    0    0 -0.29278239291E+02 -0.51797661826E+01  0.44334458513E+01  0.30061615323E+02  0.00000000000E+00 0.  1.
</event>
<event>
 5    1  0.6835449E-004  0.9118800E+02  0.7818608E-02  0.1130116E+00
         25   -1    0    0    0    0  0.00000000000E+00  0.00000000000E+00  0.99999998245E-14  0.12500000000E+03  0.12500000000E+03 0.  0.
        -13    1    3    3    0    0  0.11443217781E+02 -0.47456330941E+02 -0.16231929751E+01  0.48843592200E+02  0.10566000000E+00 0. -1.
         23    2    1    0    0    0  0.17748895251E+02 -0.84182840433E+01  0.22473542328E+02  0.95151199461E+02  0.90348214510E+02 0.  0.
         13    1    3    3    0    0  0.63056774704E+01  0.39038046897E+02  0.24096735303E+02  0.46307607261E+02  0.10566000000E+00 0.  1.
         22    1    1    0    0    0 -0.17748895251E+02  0.84182840433E+01 -0.22473542328E+02  0.29848800539E+02  0.00000000000E+00 0.  1.
</event>
<event>
 5    1  0.6835449E-004  0.9118800E+02  0.7818608E-02  0.1130116E+00
         25   -1    0    0    0    0  0.00000000000E+00  0.00000000000E+00  0.99999998245E-14  0.12500000000E+03  0.12500000000E+03 0.  0.
        -13    1    3    3    0    0 -0.27077952399E+02 -0.19240051400E+02  0.51198210505E+02  0.61030017262E+02  0.10566000000E+00 0.  1.
         23    2    1    0    0    0 -0.41173476058E+01 -0.69841191469E+01  0.27846419131E+02  0.95997353052E+02  0.91511410562E+02 0.  0.
         13    1    3    3    0    0  0.22960604793E+02  0.12255932253E+02 -0.23351791374E+02  0.34967335790E+02  0.10566000000E+00 0. -1.
         22    1    1    0    0    0  0.41173476058E+01  0.69841191469E+01 -0.27846419131E+02  0.29002646948E+02  0.00000000000E+00 0.  1.
</event>
<event>
 5    1  0.6835449E-004  0.9118800E+02  0.7818608E-02  0.1130116E+00
         25   -1    0    0    0    0  0.00000000000E+00  0.00000000000E+00  0.99999998245E-14  0.12500000000E+03  0.12500000000E+03 0.  0.
        -13    1    3    3    0    0 -0.11528000234E+02 -0.43412472791E+02  0.26290683745E+02  0.52045641500E+02  0.10566000000E+00 0. -1.
         23    2    1    0    0    0  0.17568312490E+02 -0.23571762066E+02  0.67476303064E+00  0.95593727271E+02  0.90958407075E+02 0.  0.
         13    1    3    3    0    0  0.29096312725E+02  0.19840710725E+02 -0.25615920715E+02  0.43548085771E+02  0.10566000000E+00 0.  1.
         22    1    1    0    0    0 -0.17568312490E+02  0.23571762066E+02 -0.67476303064E+00  0.29406272729E+02  0.00000000000E+00 0. -1.
</event>
<event>
 5    1  0.6835449E-004  0.9118800E+02  0.7818608E-02  0.1130116E+00
         25   -1    0    0    0    0  0.00000000000E+00  0.00000000000E+00  0.99999998245E-14  0.12500000000E+03  0.12500000000E+03 0.  0.
        -13    1    3    3    0    0  0.37210263578E+02  0.29468518204E+02  0.34668799205E+02  0.58778687320E+02  0.10566000000E+00 0. -1.
         23    2    1    0    0    0  0.15548320581E+02  0.13232146191E+01  0.24900796094E+02  0.95613764856E+02  0.90985939650E+02 0.  0.
         13    1    3    3    0    0 -0.21661942996E+02 -0.28145303585E+02 -0.97680031116E+01  0.36835077536E+02  0.10566000000E+00 0.  1.
         22    1    1    0    0    0 -0.15548320581E+02 -0.13232146191E+01 -0.24900796094E+02  0.29386235144E+02  0.00000000000E+00 0. -1.
</event>
<event>
 5    1  0.6835449E-004  0.9118800E+02  0.7818608E-02  0.1130116E+00
         25   -1    0    0    0    0  0.00000000000E+00  0.00000000000E+00  0.99999998245E-14  0.12500000000E+03  0.12500000000E+03 0.  0.
        -13    1    3    3    0    0 -0.47347139285E+02  0.13773176960E+02  0.25647957900E+02  0.55581300008E+02  0.10566000000E+00 0. -1.
         23    2    1    0    0    0 -0.24764305576E+02  0.96625662840E+01 -0.88193931287E+01  0.96992541833E+02  0.92860839206E+02 0.  0.
         13    1    3    3    0    0  0.22582833710E+02 -0.41106106758E+01 -0.34467351029E+02  0.41411241825E+02  0.10566000000E+00 0.  1.
         22    1    1    0    0    0  0.24764305576E+02 -0.96625662840E+01  0.88193931287E+01  0.28007458167E+02  0.00000000000E+00 0. -1.
</event>
<event>
 5    1  0.6835449E-004  0.9118800E+02  0.7818608E-02  0.1130116E+00
         25   -1    0    0    0    0  0.00000000000E+00  0.00000000000E+00  0.99999998245E-14  0.12500000000E+03  0.12500000000E+03 0.  0.
        -13    1    3    3    0    0 -0.11609300732E+02  0.24276034279E+02  0.24265876914E+02  0.36234591901E+02  0.10566000000E+00 0.  1.
         23    2    1    0    0    0  0.13011041247E+02 -0.26090136177E+02  0.56761457918E+01  0.95298130848E+02  0.90551271178E+02 0.  0.
         13    1    3    3    0    0  0.24620341980E+02 -0.50366170456E+02 -0.18589731123E+02  0.59063538946E+02  0.10566000000E+00 0. -1.
         22    1    1    0    0    0 -0.13011041247E+02  0.26090136177E+02 -0.56761457918E+01  0.29701869152E+02  0.00000000000E+00 0. -1.
</event>
<event>
 5    1  0.6835449E-004  0.9118800E+02  0.7818608E-02  0.1130116E+00
         25   -1    0    0    0    0  0.00000000000E+00  0.00000000000E+00  0.99999998245E-14  0.12500000000E+03  0.12500000000E+03 0.  0.
        -13    1    3    3    0    0 -0.27325153808E+02 -0.79186209316E+00  0.27241097169E+02  0.38592481330E+02  0.10566000000E+00 0. -1.
         23    2    1    0    0    0  0.64226508813E+00 -0.22584412718E+02 -0.18029167140E+02  0.96094653263E+02  0.91644221398E+02 0.  0.
         13    1    3    3    0    0  0.27967418896E+02 -0.21792550624E+02 -0.45270264309E+02  0.57502171933E+02  0.10566000000E+00 0.  1.
         22    1    1    0    0    0 -0.64226508813E+00  0.22584412718E+02  0.18029167140E+02  0.28905346737E+02  0.00000000000E+00 0.  1.
</event>
<event>
 5    1  0.6835449E-004  0.9118800E+02  0.7818608E-02  0.1130116E+00
         25   -1    0    0    0    0  0.00000000000E+00  0.00000000000E+00  0.99999998245E-14  0.12500000000E+03  0.12500000000E+03 0.  0.
        -13    1    3    3    0    0  0.45260363132E+01  0.28771336960E+02 -0.36383921715E+02  0.46605533562E+02  0.10566000000E+00 0.  1.
         23    2    1    0    0    0  0.25777283770E+02  0.13428759813E+02  0.49169270695E+01  0.95521599086E+02  0.90859230524E+02 0.  0.
         13    1    3    3    0    0  0.21251247457E+02 -0.15342577148E+02  0.41300848784E+02  0.48916065524E+02  0.10566000000E+00 0. -1.
         22    1    1    0    0    0 -0.25777283770E+02 -0.13428759813E+02 -0.49169270695E+01  0.29478400914E+02  0.00000000000E+00 0. -1.
</event>
<event>
 5    1  0.6835449E-004  0.9118800E+02  0.7818608E-02  0.1130116E+00
         25   -1    0    0    0    0  0.00000000000E+00  0.00000000000E+00  0.99999998245E-14  0.12500000000E+03  0.12500000000E+03 0.  0.
        -13    1    3    3    0    0 -0.20253172120E+02  0.16249317757E+02 -0.33528012473E+02  0.42407193882E+02  0.10566000000E+00 0. -1.
         23    2    1    0    0    0  0.62479263937E+01  0.27406622160E+02  0.10500118071E+02  0.94993134087E+02  0.90129260075E+02 0.  0.
         13    1    3    3    0    0  0.26501098514E+02  0.11157304403E+02  0.44028130544E+02  0.52585940205E+02  0.10566000000E+00 0.  1.
         22    1    1    0    0    0 -0.62479263937E+01 -0.27406622160E+02 -0.10500118071E+02  0.30006865913E+02  0.00000000000E+00 0.  1.
</event>
<event>
 5    1  0.6835449E-004  0.9118800E+02  0.7818608E-02  0.1130116E+00
         25   -1    0    0    0    0  0.00000000000E+00  0.00000000000E+00  0.99999998245E-14  0.12500000000E+03  0.12500000000E+03 0.  0.
        -13    1    3    3    0    0  0.55242005148E+01 -0.17441523560E+02 -0.14868695210E+02  0.23575682317E+02  0.10566000000E+00 0.  1.
         23    2    1    0    0    0  0.14170763719E+02  0.23724597832E+02 -0.42789101730E+02  0.74063035882E+02  0.53765778804E+02 0.  0.
         13    1    3    3    0    0  0.86465632041E+01  0.41166121392E+02 -0.27920406520E+02  0.50487353565E+02  0.10566000000E+00 0. -1.
         22    1    1    0    0    0 -0.14170763719E+02 -0.23724597832E+02  0.42789101730E+02  0.50936964118E+02  0.00000000000E+00 0. -1.
</event>
<event>
 5    1  0.6835449E-004  0.9118800E+02  0.7818608E-02  0.1130116E+00
         25   -1    0    0    0    0  0.00000000000E+00  0.00000000000E+00  0.99999998245E-14  0.12500000000E+03  0.12500000000E+03 0.  0.
        -13    1    3    3    0    0  0.22516163508E+02 -0.38966103729E+02  0.18593408170E+01  0.45042237636E+02  0.10566000000E+00 0.  1.
         23    2    1    0    0    0  0.23285448346E+02  0.85112927753E+01  0.17066296773E+02  0.94901616407E+02  0.90002244981E+02 0.  0.
         13    1    3    3    0    0  0.76928483835E+00  0.47477396504E+02  0.15206955956E+02  0.49859378771E+02  0.10566000000E+00 0. -1.
         22    1    1    0    0    0 -0.23285448346E+02 -0.85112927753E+01 -0.17066296773E+02  0.30098383593E+02  0.00000000000E+00 0. -1.
</event>
<event>
 5    1  0.6835449E-004  0.9118800E+02  0.7818608E-02  0.1130116E+00
         25   -1    0    0    0    0  0.00000000000E+00  0.00000000000E+00  0.99999998245E-14  0.12500000000E+03  0.12500000000E+03 0.  0.
        -13    1    3    3    0    0  0.56261152145E+02  0.10749021536E+02 -0.15560455705E+02  0.59354845215E+02  0.10566000000E+00 0.  1.
         23    2    1    0    0    0  0.27586020472E+02  0.11173042081E+02  0.52360641529E+01  0.94780109817E+02  0.89833331533E+02 0.  0.
         13    1    3    3    0    0 -0.28675131673E+02  0.42402054527E+00  0.20796519858E+02  0.35425264602E+02  0.10566000000E+00 0. -1.
         22    1    1    0    0    0 -0.27586020472E+02 -0.11173042081E+02 -0.52360641529E+01  0.30219890183E+02  0.00000000000E+00 0.  1.
</event>
<event>
 5    1  0.6835449E-004  0.9118800E+02  0.7818608E-02  0.1130116E+00
         25   -1    0    0    0    0  0.00000000000E+00  0.00000000000E+00  0.99999998245E-14  0.12500000000E+03  0.12500000000E+03 0.  0.
        -13    1    3    3    0    0 -0.32388452406E+02 -0.10896855113E+01 -0.19339241950E+00  0.32407527342E+02  0.10566000000E+00 0.  1.
         23    2    1    0    0    0  0.23336261101E+02 -0.43587521021E+01 -0.22283651014E+02  0.92440194955E+02  0.86516176168E+02 0.  0.
         13    1    3    3    0    0  0.55724713507E+02 -0.32690665908E+01 -0.22090258595E+02  0.60032667612E+02  0.10566000000E+00 0. -1.
         22    1    1    0    0    0 -0.23336261101E+02  0.43587521021E+01  0.22283651014E+02  0.32559805045E+02  0.00000000000E+00 0. -1.
</event>
<event>
 5    1  0.6835449E-004  0.9118800E+02  0.7818608E-02  0.1130116E+00
         25   -1    0    0    0    0  0.00000000000E+00  0.00000000000E+00  0.99999998245E-14  0.12500000000E+03  0.12500000000E+03 0.  0.
        -13    1    3    3    0    0 -0.15867807335E+01 -0.42893320637E+02  0.35181524360E+02  0.55498699523E+02  0.10566000000E+00 0.  1.
         23    2    1    0    0    0  0.19396565472E+02 -0.13571737974E+02  0.16809205976E+02  0.95966084844E+02  0.91468689785E+02 0.  0.
         13    1    3    3    0    0  0.20983346206E+02  0.29321582664E+02 -0.18372318384E+02  0.40467385321E+02  0.10566000000E+00 0. -1.
         22    1    1    0    0    0 -0.19396565472E+02  0.13571737974E+02 -0.16809205976E+02  0.29033915156E+02  0.00000000000E+00 0. -1.
</event>
<event>
 5    1  0.6835449E-004  0.9118800E+02  0.7818608E-02  0.1130116E+00
         25   -1    0    0    0    0  0.00000000000E+00  0.00000000000E+00  0.99999998245E-14  0.12500000000E+03  0.12500000000E+03 0.  0.
        -13    1    3    3    0    0  0.12580918953E+02  0.21494555314E+02 -0.50355433519E+02  0.56178076496E+02  0.10566000000E+00 0.  1.
         23    2    1    0    0    0 -0.13116300053E+02  0.25053583628E+01 -0.23735018734E+02  0.97766468060E+02  0.93896842413E+02 0.  0.
         13    1    3    3    0    0 -0.25697219006E+02 -0.18989196952E+02  0.26620414786E+02  0.41588391564E+02  0.10566000000E+00 0. -1.
         22    1    1    0    0    0  0.13116300053E+02 -0.25053583628E+01  0.23735018734E+02  0.27233531940E+02  0.00000000000E+00 0.  1.
</event>
<event>
 5    1  0.6835449E-004  0.9118800E+02  0.7818608E-02  0.1130116E+00
         25   -1    0    0    0    0  0.00000000000E+00  0.00000000000E+00  0.99999998245E-14  0.12500000000E+03  0.12500000000E+03 0.  0.
        -13    1    3    3    0    0  0.90134913437E+01 -0.46010606486E+02 -0.45441319345E+01  0.47104980995E+02  0.10566000000E+00 0.  1.
         23    2    1    0    0    0 -0.21536614346E+00 -0.28340808991E+01 -0.27832776592E+02  0.97022475987E+02  0.92901124841E+02 0.  0.
         13    1    3    3    0    0 -0.92288574872E+01  0.43176525587E+02 -0.23288644657E+02  0.49917494992E+02  0.10566000000E+00 0. -1.
         22    1    1    0    0    0  0.21536614346E+00  0.28340808991E+01  0.27832776592E+02  0.27977524013E+02  0.00000000000E+00 0. -1.
</event>
<event>
 5    1  0.6835449E-004  0.9118800E+02  0.7818608E-02  0.1130116E+00
         25   -1    0    0    0    0  0.00000000000E+00  0.00000000000E+00  0.99999998245E-14  0.12500000000E+03  0.12500000000E+03 0.  0.
        -13    1    3    3    0    0  0.68004237886E+01  0.92999509236E+01  0.53905127162E+02  0.55122670012E+02  0.10566000000E+00 0. -1.
         23    2    1    0    0    0 -0.11718682442E+02 -0.11509106609E+02  0.23108982023E+02  0.96648419740E+02  0.92396455208E+02 0.  0.
         13    1    3    3    0    0 -0.18519106230E+02 -0.20809057532E+02 -0.30796145139E+02  0.41525749727E+02  0.10566000000E+00 0.  1.
         22    1    1    0    0    0  0.11718682442E+02  0.11509106609E+02 -0.23108982023E+02  0.28351580260E+02  0.00000000000E+00 0. -1.
</event>
<event>
 5    1  0.6835449E-004  0.9118800E+02  0.7818608E-02  0.1130116E+00
         25   -1    0    0    0    0  0.00000000000E+00  0.00000000000E+00  0.99999998245E-14  0.12500000000E+03  0.12500000000E+03 0.  0.
        -13    1    3    3    0    0  0.66332405055E+01  0.18353789890E+02  0.49201101754E+02  0.52930341589E+02  0.10566000000E+00 0. -1.
         23    2    1    0    0    0 -0.14384871192E+02  0.23221566116E+02  0.13779242146E+02  0.94405340888E+02  0.89310330992E+02 0.  0.
         13    1    3    3    0    0 -0.21018111697E+02  0.48677762259E+01 -0.35421859608E+02  0.41474999299E+02  0.10566000000E+00 0.  1.
         22    1    1    0    0    0  0.14384871192E+02 -0.23221566116E+02 -0.13779242146E+02  0.30594659112E+02  0.00000000000E+00 0. -1.
</event>
<event>
 5    1  0.6835449E-004  0.9118800E+02  0.7818608E-02  0.1130116E+00
         25   -1    0    0    0    0  0.00000000000E+00  0.00000000000E+00  0.99999998245E-14  0.12500000000E+03  0.12500000000E+03 0.  0.
        -13    1    3    3    0    0  0.28188989344E+02 -0.26591855577E+02 -0.21830868598E+02  0.44478577889E+02  0.10566000000E+00 0.  1.
         23    2    1    0    0    0  0.69591942208E+01 -0.17417231646E+02  0.23239125235E+02  0.95136187716E+02  0.90327442835E+02 0.  0.
         13    1    3    3    0    0 -0.21229795124E+02  0.91746239307E+01  0.45069993833E+02  0.50657609827E+02  0.10566000000E+00 0. -1.
         22    1    1    0    0    0 -0.69591942208E+01  0.17417231646E+02 -0.23239125235E+02  0.29863812284E+02  0.00000000000E+00 0. -1.
</event>
<event>
 5    1  0.6835449E-004  0.9118800E+02  0.7818608E-02  0.1130116E+00
         25   -1    0    0    0    0  0.00000000000E+00  0.00000000000E+00  0.99999998245E-14  0.12500000000E+03  0.12500000000E+03 0.  0.
        -13    1    3    3    0    0  0.10388808527E+02 -0.33045462915E+02 -0.16180539678E+02  0.38232852237E+02  0.10566000000E+00 0.  1.
         23    2    1    0    0    0 -0.13738614299E+02  0.20728771413E+02 -0.12184346146E+02  0.97307225163E+02  0.93283472764E+02 0.  0.
         13    1    3    3    0    0 -0.24127422826E+02  0.53774234328E+02  0.39961935315E+01  0.59074372926E+02  0.10566000000E+00 0. -1.
         22    1    1    0    0    0  0.13738614299E+02 -0.20728771413E+02  0.12184346146E+02  0.27692774837E+02  0.00000000000E+00 0. -1.
</event>
<event>
 5    1  0.6835449E-004  0.9118800E+02  0.7818608E-02  0.1130116E+00
         25   -1    0    0    0    0  0.00000000000E+00  0.00000000000E+00  0.99999998245E-14  0.12500000000E+03  0.12500000000E+03 0.  0.
        -13    1    3    3    0    0 -0.51147452168E+02  0.13333827852E+02 -0.69686451592E+01  0.53314407133E+02  0.10566000000E+00 0. -1.
         23    2    1    0    0    0 -0.17289063971E+02 -0.48444526280E+01 -0.23731914722E+02  0.95241232710E+02  0.90472692994E+02 0.  0.
         13    1    3    3    0    0  0.33858388198E+02 -0.18178280480E+02 -0.16763269563E+02  0.41926825578E+02  0.10566000000E+00 0.  1.
         22    1    1    0    0    0  0.17289063971E+02  0.48444526280E+01  0.23731914722E+02  0.29758767290E+02  0.00000000000E+00 0.  1.
</event>
<event>
 5    1  0.6835449E-004  0.9118800E+02  0.7818608E-02  0.1130116E+00
         25   -1    0    0    0    0  0.00000000000E+00  0.00000000000E+00  0.99999998245E-14  0.12500000000E+03  0.12500000000E+03 0.  0.
        -13    1    3    3    0    0  0.24257984056E+02 -0.93036300723E+01  0.29612017672E+02  0.39394036066E+02  0.10566000000E+00 0. -1.
         23    2    1    0    0    0  0.87618300676E+01  0.24336179092E+02 -0.13164824696E+02  0.95977045495E+02  0.91483667251E+02 0.  0.
         13    1    3    3    0    0 -0.15496153988E+02  0.33639809164E+02 -0.42776842367E+02  0.56583009429E+02  0.10566000000E+00 0.  1.
         22    1    1    0    0    0 -0.87618300676E+01 -0.24336179092E+02  0.13164824696E+02  0.29022954505E+02  0.00000000000E+00 0.  1.
</event>
<event>
 5    1  0.6835449E-004  0.9118800E+02  0.7818608E-02  0.1130116E+00
         25   -1    0    0    0    0  0.00000000000E+00  0.00000000000E+00  0.99999998245E-14  0.12500000000E+03  0.12500000000E+03 0.  0.
        -13    1    3    3    0    0 -0.11524389997E+02 -0.34613694020E+02 -0.36205728623E-01  0.36481938729E+02  0.10566000000E+00 0. -1.
         23    2    1    0    0    0  0.29099918194E+01  0.18182231685E+02 -0.22741741557E+02  0.95738277384E+02  0.91156839271E+02 0.  0.
         13    1    3    3    0    0  0.14434381816E+02  0.52795925705E+02 -0.22705535829E+02  0.59256338655E+02  0.10566000000E+00 0.  1.
         22    1    1    0    0    0 -0.29099918194E+01 -0.18182231685E+02  0.22741741557E+02  0.29261722616E+02  0.00000000000E+00 0.  1.
</event>
<event>
 5    1  0.6835449E-004  0.9118800E+02  0.7818608E-02  0.1130116E+00
         25   -1    0    0    0    0  0.00000000000E+00  0.00000000000E+00  0.99999998245E-14  0.12500000000E+03  0.12500000000E+03 0.  0.
        -13    1    3    3    0    0  0.51448669380E+02  0.79978575690E+01 -0.21616747311E+02  0.56375759285E+02  0.10566000000E+00 0. -1.
         23    2    1    0    0    0  0.25561039444E+02 -0.13727161634E+02 -0.98926343831E+00  0.95969320605E+02  0.91473111630E+02 0.  0.
         13    1    3    3    0    0 -0.25887629936E+02 -0.21725019203E+02  0.20627483873E+02  0.39593561320E+02  0.10566000000E+00 0.  1.
         22    1    1    0    0    0 -0.25561039444E+02  0.13727161634E+02  0.98926343831E+00  0.29030679395E+02  0.00000000000E+00 0. -1.
</event>
<event>
 5    1  0.6835449E-004  0.9118800E+02  0.7818608E-02  0.1130116E+00
         25   -1    0    0    0    0  0.00000000000E+00  0.00000000000E+00  0.99999998245E-14  0.12500000000E+03  0.12500000000E+03 0.  0.
        -13    1    3    3    0    0 -0.11133158518E+02 -0.87153246665E+01  0.13738232455E+02  0.19714317073E+02  0.10566000000E+00 0. -1.
         23    2    1    0    0    0  0.24770903558E+02  0.38013415417E+02  0.38839627162E+01  0.79462075353E+02  0.65119266260E+02 0.  0.
         13    1    3    3    0    0  0.35904062076E+02  0.46728740083E+02 -0.98542697392E+01  0.59747758280E+02  0.10566000000E+00 0.  1.
         22    1    1    0    0    0 -0.24770903558E+02 -0.38013415417E+02 -0.38839627162E+01  0.45537924647E+02  0.00000000000E+00 0.  1.
</event>
<event>
 5    1  0.6835449E-004  0.9118800E+02  0.7818608E-02  0.1130116E+00
         25   -1    0    0    0    0  0.00000000000E+00  0.00000000000E+00  0.99999998245E-14  0.12500000000E+03  0.12500000000E+03 0.  0.
        -13    1    3    3    0    0 -0.11469641212E+01 -0.77862785449E+01 -0.31674190450E+02  0.32637511623E+02  0.10566000000E+00 0.  1.
         23    2    1    0    0    0 -0.17204831910E+01  0.11419647338E+02  0.27670960328E+02  0.95015829956E+02  0.90160731414E+02 0.  0.
         13    1    3    3    0    0 -0.57351906979E+00  0.19205925883E+02  0.59345150778E+02  0.62378318333E+02  0.10566000000E+00 0. -1.
         22    1    1    0    0    0  0.17204831910E+01 -0.11419647338E+02 -0.27670960328E+02  0.29984170044E+02  0.00000000000E+00 0. -1.
</event>
<event>
 5    1  0.6835449E-004  0.9118800E+02  0.7818608E-02  0.1130116E+00
         25   -1    0    0    0    0  0.00000000000E+00  0.00000000000E+00  0.99999998245E-14  0.12500000000E+03  0.12500000000E+03 0.  0.
        -13    1    3    3    0    0 -0.39283878954E+02 -0.41913482612E+02  0.99209251960E+01  0.58295789652E+02  0.10566000000E+00 0.  1.
         23    2    1    0    0    0 -0.13319371596E+02 -0.17834459315E+02  0.19959518170E+02  0.95102575957E+02  0.90280917083E+02 0.  0.
         13    1    3    3    0    0  0.25964507357E+02  0.24079023297E+02  0.10038592974E+02  0.36806786306E+02  0.10566000000E+00 0. -1.
         22    1    1    0    0    0  0.13319371596E+02  0.17834459315E+02 -0.19959518170E+02  0.29897424043E+02  0.00000000000E+00 0.  1.
</event>
<event>
 5    1  0.6835449E-004  0.9118800E+02  0.7818608E-02  0.1130116E+00
         25   -1    0    0    0    0  0.00000000000E+00  0.00000000000E+00  0.99999998245E-14  0.12500000000E+03  0.12500000000E+03 0.  0.
        -13    1    3    3    0    0 -0.27769145531E+02 -0.25264002006E+02  0.39139097824E+02  0.54233526378E+02  0.10566000000E+00 0. -1.
         23    2    1    0    0    0 -0.29536134768E+02 -0.70976659471E+01  0.33108451918E+01  0.94443138008E+02  0.89363216717E+02 0.  0.
         13    1    3    3    0    0 -0.17669892363E+01  0.18166336059E+02 -0.35828252632E+02  0.40209611630E+02  0.10566000000E+00 0.  1.
         22    1    1    0    0    0  0.29536134768E+02  0.70976659471E+01 -0.33108451918E+01  0.30556861992E+02  0.00000000000E+00 0. -1.
</event>
<event>
 5    1  0.6835449E-004  0.9118800E+02  0.7818608E-02  0.1130116E+00
         25   -1    0    0    0    0  0.00000000000E+00  0.00000000000E+00  0.99999998245E-14  0.12500000000E+03  0.12500000000E+03 0.  0.
        -13    1    3    3    0    0 -0.34033225262E+02  0.94663036901E+01  0.13357133063E+02  0.37766327528E+02  0.10566000000E+00 0. -1.
         23    2    1    0    0    0  0.41640647771E+01 -0.74497821460E+01 -0.27503638976E+02  0.96202624314E+02  0.91791372571E+02 0.  0.
         13    1    3    3    0    0  0.38197290039E+02 -0.16916085836E+02 -0.40860772039E+02  0.58436296786E+02  0.10566000000E+00 0.  1.
         22    1    1    0    0    0 -0.41640647771E+01  0.74497821460E+01  0.27503638976E+02  0.28797375686E+02  0.00000000000E+00 0.  1.
</event>
<event>
 5    1  0.6835449E-004  0.9118800E+02  0.7818608E-02  0.1130116E+00
         25   -1    0    0    0    0  0.00000000000E+00  0.00000000000E+00  0.99999998245E-14  0.12500000000E+03  0.12500000000E+03 0.  0.
        -13    1    3    3    0    0  0.22729037632E+02 -0.26026808011E+02 -0.25811650480E+02  0.43130689207E+02  0.10566000000E+00 0. -1.
         23    2    1    0    0    0 -0.25122570871E+02 -0.79088538212E+01 -0.11495241068E+02  0.96262670563E+02  0.91873106189E+02 0.  0.
         13    1    3    3    0    0 -0.47851608504E+02  0.18117954189E+02  0.14316409411E+02  0.53131981356E+02  0.10566000000E+00 0.  1.
         22    1    1    0    0    0  0.25122570871E+02  0.79088538212E+01  0.11495241068E+02  0.28737329437E+02  0.00000000000E+00 0. -1.
</event>
<event>
 5    1  0.6835449E-004  0.9118800E+02  0.7818608E-02  0.1130116E+00
         25   -1    0    0    0    0  0.00000000000E+00  0.00000000000E+00  0.99999998245E-14  0.12500000000E+03  0.12500000000E+03 0.  0.
        -13    1    3    3    0    0  0.14396736767E+02  0.11704645115E+02  0.41339374627E+02  0.45312468542E+02  0.10566000000E+00 0.  1.
         23    2    1    0    0    0  0.73430709511E+01 -0.27210066664E+02  0.13024353680E+02  0.93952581304E+02  0.88674378070E+02 0.  0.
         13    1    3    3    0    0 -0.70536658155E+01 -0.38914711779E+02 -0.28315020946E+02  0.48640112762E+02  0.10566000000E+00 0. -1.
         22    1    1    0    0    0 -0.73430709511E+01  0.27210066664E+02 -0.13024353680E+02  0.31047418696E+02  0.00000000000E+00 0. -1.
</event>
<event>
 5    1  0.6835449E-004  0.9118800E+02  0.7818608E-02  0.1130116E+00
         25   -1    0    0    0    0  0.00000000000E+00  0.00000000000E+00  0.99999998245E-14  0.12500000000E+03  0.12500000000E+03 0.  0.
        -13    1    3    3    0    0 -0.34665064740E+02  0.76918231942E+01  0.21535892498E+02  0.41528745312E+02  0.10566000000E+00 0.  1.
         23    2    1    0    0    0 -0.10154086873E+02  0.34197715906E+02 -0.83113210830E+01  0.88371222904E+02  0.80422669229E+02 0.  0.
         13    1    3    3    0    0  0.24510977866E+02  0.26505892712E+02 -0.29847213581E+02  0.46842477592E+02  0.10566000000E+00 0. -1.
         22    1    1    0    0    0  0.10154086873E+02 -0.34197715906E+02  0.83113210830E+01  0.36628777096E+02  0.00000000000E+00 0. -1.
</event>
<event>
 5    1  0.6835449E-004  0.9118800E+02  0.7818608E-02  0.1130116E+00
         25   -1    0    0    0    0  0.00000000000E+00  0.00000000000E+00  0.99999998245E-14  0.12500000000E+03  0.12500000000E+03 0.  0.
        -13    1    3    3    0    0 -0.10896722667E+02 -0.33191867766E+01 -0.37118471452E+02  0.38827150974E+02  0.10566000000E+00 0. -1.
         23    2    1    0    0    0  0.24564096518E+02 -0.13957388361E+02  0.64697592153E+01  0.96016188796E+02  0.91537135628E+02 0.  0.
         13    1    3    3    0    0  0.35460819186E+02 -0.10638201584E+02  0.43588230668E+02  0.57189037822E+02  0.10566000000E+00 0.  1.
         22    1    1    0    0    0 -0.24564096518E+02  0.13957388361E+02 -0.64697592153E+01  0.28983811204E+02  0.00000000000E+00 0.  1.
</event>
<event>
 5    1  0.6835449E-004  0.9118800E+02  0.7818608E-02  0.1130116E+00
         25   -1    0    0    0    0  0.00000000000E+00  0.00000000000E+00  0.99999998245E-14  0.12500000000E+03  0.12500000000E+03 0.  0.
        -13    1    3    3    0    0 -0.27755947726E+02 -0.15823143801E+02  0.88183508391E+01  0.33144215023E+02  0.10566000000E+00 0.  1.
         23    2    1    0    0    0  0.27369693714E+02  0.72101241678E+01 -0.86750626180E+01  0.95396913405E+02  0.90687531399E+02 0.  0.
         13    1    3    3    0    0  0.55125641440E+02  0.23033267969E+02 -0.17493413457E+02  0.62252698383E+02  0.10566000000E+00 0. -1.
         22    1    1    0    0    0 -0.27369693714E+02 -0.72101241678E+01  0.86750626180E+01  0.29603086595E+02  0.00000000000E+00 0. -1.
</event>
<event>
 5    1  0.6835449E-004  0.9118800E+02  0.7818608E-02  0.1130116E+00
         25   -1    0    0    0    0  0.00000000000E+00  0.00000000000E+00  0.99999998245E-14  0.12500000000E+03  0.12500000000E+03 0.  0.
        -13    1    3    3    0    0  0.12992391008E+02  0.27320503562E+02  0.40717263491E+02  0.50725918910E+02  0.10566000000E+00 0.  1.
         23    2    1    0    0    0 -0.11380196971E+02 -0.71457908333E+01  0.26532532441E+02  0.95258673744E+02  0.90496786882E+02 0.  0.
         13    1    3    3    0    0 -0.24372587979E+02 -0.34466294396E+02 -0.14184731050E+02  0.44532754835E+02  0.10566000000E+00 0. -1.
         22    1    1    0    0    0  0.11380196971E+02  0.71457908333E+01 -0.26532532441E+02  0.29741326256E+02  0.00000000000E+00 0. -1.
</event>
<event>
 5    1  0.6835449E-004  0.9118800E+02  0.7818608E-02  0.1130116E+00
         25   -1    0    0    0    0  0.00000000000E+00  0.00000000000E+00  0.99999998245E-14  0.12500000000E+03  0.12500000000E+03 0.  0.
        -13    1    3    3    0    0 -0.31608193575E+02  0.88413358227E+01 -0.20817766105E+02  0.38866922567E+02  0.10566000000E+00 0.  1.
         23    2    1    0    0    0  0.14113250851E+02  0.23254189250E+02  0.10180692861E+02  0.95955419190E+02  0.91454113071E+02 0.  0.
         13    1    3    3    0    0  0.45721444427E+02  0.14412853428E+02  0.30998458966E+02  0.57088496623E+02  0.10566000000E+00 0. -1.
         22    1    1    0    0    0 -0.14113250851E+02 -0.23254189250E+02 -0.10180692861E+02  0.29044580810E+02  0.00000000000E+00 0. -1.
</event>
<event>
 5    1  0.6835449E-004  0.9118800E+02  0.7818608E-02  0.1130116E+00
         25   -1    0    0    0    0  0.00000000000E+00  0.00000000000E+00  0.99999998245E-14  0.12500000000E+03  0.12500000000E+03 0.  0.
        -13    1    3    3    0    0  0.20994830203E+02 -0.60635212229E+01 -0.34520014698E+02  0.40855743337E+02  0.10566000000E+00 0.  1.
         23    2    1    0    0    0  0.13106774282E+02  0.27023678049E+02  0.66283579832E+01  0.94242857140E+02  0.89082626168E+02 0.  0.
         13    1    3    3    0    0 -0.78880559212E+01  0.33087199272E+02  0.41148372681E+02  0.53387113803E+02  0.10566000000E+00 0. -1.
         22    1    1    0    0    0 -0.13106774282E+02 -0.27023678049E+02 -0.66283579832E+01  0.30757142860E+02  0.00000000000E+00 0. -1.
</event>
<event>
 5    1  0.6835449E-004  0.9118800E+02  0.7818608E-02  0.1130116E+00
         25   -1    0    0    0    0  0.00000000000E+00  0.00000000000E+00  0.99999998245E-14  0.12500000000E+03  0.12500000000E+03 0.  0.
        -13    1    3    3    0    0  0.16538239845E+02  0.76137202594E+01 -0.41508576848E+02  0.45326098766E+02  0.10566000000E+00 0.  1.
         23    2    1    0    0    0 -0.24619417891E+02 -0.18697181039E+01 -0.22318517134E+02  0.91717455173E+02  0.85465570806E+02 0.  0.
         13    1    3    3    0    0 -0.41157657736E+02 -0.94834383634E+01  0.19190059713E+02  0.46391356407E+02  0.10566000000E+00 0. -1.
         22    1    1    0    0    0  0.24619417891E+02  0.18697181039E+01  0.22318517134E+02  0.33282544827E+02  0.00000000000E+00 0.  1.
</event>
<event>
 5    1  0.6835449E-004  0.9118800E+02  0.7818608E-02  0.1130116E+00
         25   -1    0    0    0    0  0.00000000000E+00  0.00000000000E+00  0.99999998245E-14  0.12500000000E+03  0.12500000000E+03 0.  0.
        -13    1    3    3    0    0 -0.17012873480E+02 -0.18787723568E+02  0.28376873941E+02  0.38048318749E+02  0.10566000000E+00 0. -1.
         23    2    1    0    0    0 -0.14059760053E+02  0.17388798837E+02 -0.17540735507E+02  0.96579504229E+02  0.92303174687E+02 0.  0.
         13    1    3    3    0    0  0.29531134265E+01  0.36176522405E+02 -0.45917609448E+02  0.58531185480E+02  0.10566000000E+00 0.  1.
         22    1    1    0    0    0  0.14059760053E+02 -0.17388798837E+02  0.17540735507E+02  0.28420495771E+02  0.00000000000E+00 0.  1.
</event>
<event>
 5    1  0.6835449E-004  0.9118800E+02  0.7818608E-02  0.1130116E+00
         25   -1    0    0    0    0  0.00000000000E+00  0.00000000000E+00  0.99999998245E-14  0.12500000000E+03  0.12500000000E+03 0.  0.
        -13    1    3    3    0    0 -0.11374279749E+02  0.28683802664E+02 -0.23063137214E+02  0.38523424527E+02  0.10566000000E+00 0. -1.
         23    2    1    0    0    0  0.86284198847E+01  0.72651625926E+01  0.26554172386E+02  0.96149414420E+02  0.91718883580E+02 0.  0.
         13    1    3    3    0    0  0.20002699634E+02 -0.21418640072E+02  0.49617309600E+02  0.57625989893E+02  0.10566000000E+00 0.  1.
         22    1    1    0    0    0 -0.86284198847E+01 -0.72651625926E+01 -0.26554172386E+02  0.28850585580E+02  0.00000000000E+00 0.  1.
</event>
<event>
 5    1  0.6835449E-004  0.9118800E+02  0.7818608E-02  0.1130116E+00
         25   -1    0    0    0    0  0.00000000000E+00  0.00000000000E+00  0.99999998245E-14  0.12500000000E+03  0.12500000000E+03 0.  0.
        -13    1    3    3    0    0 -0.29239129354E+02  0.10617258818E+01  0.18230456191E+02  0.34473390378E+02  0.10566000000E+00 0.  1.
         23    2    1    0    0    0  0.22793995003E+02 -0.17421747912E+02 -0.74314626602E+01  0.95363702226E+02  0.90641742903E+02 0.  0.
         13    1    3    3    0    0  0.52033124356E+02 -0.18483473794E+02 -0.25661918851E+02  0.60890311848E+02  0.10566000000E+00 0. -1.
         22    1    1    0    0    0 -0.22793995003E+02  0.17421747912E+02  0.74314626602E+01  0.29636297774E+02  0.00000000000E+00 0. -1.
</event>
<event>
 5    1  0.6835449E-004  0.9118800E+02  0.7818608E-02  0.1130116E+00
         25   -1    0    0    0    0  0.00000000000E+00  0.00000000000E+00  0.99999998245E-14  0.12500000000E+03  0.12500000000E+03 0.  0.
        -13    1    3    3    0    0  0.25549553350E+02  0.69344508339E+01  0.25669428988E+02  0.36875425873E+02  0.10566000000E+00 0.  1.
         23    2    1    0    0    0  0.22595543124E+01 -0.21077750632E+02 -0.20381066181E+02  0.95593112778E+02  0.90957562602E+02 0.  0.
         13    1    3    3    0    0 -0.23289999037E+02 -0.28012201466E+02 -0.46050495169E+02  0.58717686905E+02  0.10566000000E+00 0. -1.
         22    1    1    0    0    0 -0.22595543124E+01  0.21077750632E+02  0.20381066181E+02  0.29406887222E+02  0.00000000000E+00 0. -1.
</event>
<event>
 5    1  0.6835449E-004  0.9118800E+02  0.7818608E-02  0.1130116E+00
         25   -1    0    0    0    0  0.00000000000E+00  0.00000000000E+00  0.99999998245E-14  0.12500000000E+03  0.12500000000E+03 0.  0.
        -13    1    3    3    0    0  0.86573047813E+01 -0.37700424722E+02 -0.47479528765E+02  0.61242042471E+02  0.10566000000E+00 0.  1.
         23    2    1    0    0    0 -0.41756067527E+01 -0.20198459714E+02 -0.19870788358E+02  0.96359788818E+02  0.92005147707E+02 0.  0.
         13    1    3    3    0    0 -0.12832911534E+02  0.17501965008E+02  0.27608740407E+02  0.35117746347E+02  0.10566000000E+00 0. -1.
         22    1    1    0    0    0  0.41756067527E+01  0.20198459714E+02  0.19870788358E+02  0.28640211182E+02  0.00000000000E+00 0.  1.
</event>
<event>
 5    1  0.6835449E-004  0.9118800E+02  0.7818608E-02  0.1130116E+00
         25   -1    0    0    0    0  0.00000000000E+00  0.00000000000E+00  0.99999998245E-14  0.12500000000E+03  0.12500000000E+03 0.  0.
        -13    1    3    3    0    0  0.15217048948E+01 -0.54815439020E+02 -0.10506166144E+02  0.55834027544E+02  0.10566000000E+00 0.  1.
         23    2    1    0    0    0 -0.16723068675E+02 -0.18776334449E+02 -0.13720927382E+02  0.96356054575E+02  0.92000074151E+02 0.  0.
         13    1    3    3    0    0 -0.18244773570E+02  0.36039104571E+02 -0.32147612382E+01  0.40522027031E+02  0.10566000000E+00 0. -1.
         22    1    1    0    0    0  0.16723068675E+02  0.18776334449E+02  0.13720927382E+02  0.28643945425E+02  0.00000000000E+00 0.  1.
</event>
<event>
 5    1  0.6835449E-004  0.9118800E+02  0.7818608E-02  0.1130116E+00
         25   -1    0    0    0    0  0.00000000000E+00  0.00000000000E+00  0.99999998245E-14  0.12500000000E+03  0.12500000000E+03 0.  0.
        -13    1    3    3    0    0  0.21481390496E+02  0.16406944755E+02  0.34680350105E+02  0.43970169675E+02  0.10566000000E+00 0.  1.
         23    2    1    0    0    0  0.13422541740E+02 -0.26089148904E+02  0.88267582566E+01  0.94361462525E+02  0.89248897087E+02 0.  0.
         13    1    3    3    0    0 -0.80588487565E+01 -0.42496093659E+02 -0.25853591849E+02  0.50391292849E+02  0.10566000000E+00 0. -1.
         22    1    1    0    0    0 -0.13422541740E+02  0.26089148904E+02 -0.88267582566E+01  0.30638537475E+02  0.00000000000E+00 0. -1.
</event>
<event>
 5    1  0.6835449E-004  0.9118800E+02  0.7818608E-02  0.1130116E+00
         25   -1    0    0    0    0  0.00000000000E+00  0.00000000000E+00  0.99999998245E-14  0.12500000000E+03  0.12500000000E+03 0.  0.
        -13    1    3    3    0    0  0.82587113728E+01 -0.32086181594E+02 -0.25116951051E+01  0.33227234900E+02  0.10566000000E+00 0.  1.
         23    2    1    0    0    0 -0.18481734598E+02  0.23589446686E+02 -0.29831073542E+00  0.95031257985E+02  0.90182118495E+02 0.  0.
         13    1    3    3    0    0 -0.26740445971E+02  0.55675628279E+02  0.22133843696E+01  0.61804023084E+02  0.10566000000E+00 0. -1.
         22    1    1    0    0    0  0.18481734598E+02 -0.23589446686E+02  0.29831073542E+00  0.29968742015E+02  0.00000000000E+00 0. -1.
</event>
<event>
 5    1  0.6835449E-004  0.9118800E+02  0.7818608E-02  0.1130116E+00
         25   -1    0    0    0    0  0.00000000000E+00  0.00000000000E+00  0.99999998245E-14  0.12500000000E+03  0.12500000000E+03 0.  0.
        -13    1    3    3    0    0  0.16980226985E+02 -0.20235534055E+02 -0.81121476759E+01  0.27633730311E+02  0.10566000000E+00 0.  1.
         23    2    1    0    0    0 -0.24085604703E+02 -0.10743898692E+02  0.30418865293E+02  0.84740155506E+02  0.74565668216E+02 0.  0.
         13    1    3    3    0    0 -0.41065831688E+02  0.94916353638E+01  0.38531012968E+02  0.57106425195E+02  0.10566000000E+00 0. -1.
         22    1    1    0    0    0  0.24085604703E+02  0.10743898692E+02 -0.30418865293E+02  0.40259844494E+02  0.00000000000E+00 0. -1.
</event>
<event>
 5    1  0.6835449E-004  0.9118800E+02  0.7818608E-02  0.1130116E+00
         25   -1    0    0    0    0  0.00000000000E+00  0.00000000000E+00  0.99999998245E-14  0.12500000000E+03  0.12500000000E+03 0.  0.
        -13    1    3    3    0    0 -0.23730956939E+02 -0.22080526961E+02 -0.22418970707E+02  0.39412300107E+02  0.10566000000E+00 0.  1.
         23    2    1    0    0    0  0.20398970136E+02  0.12654232591E+02 -0.16472872382E+02  0.95886375877E+02  0.91359695541E+02 0.  0.
         13    1    3    3    0    0  0.44129927075E+02  0.34734759552E+02  0.59460983254E+01  0.56474075770E+02  0.10566000000E+00 0. -1.
         22    1    1    0    0    0 -0.20398970136E+02 -0.12654232591E+02  0.16472872382E+02  0.29113624123E+02  0.00000000000E+00 0. -1.
</event>
<event>
 5    1  0.6835449E-004  0.9118800E+02  0.7818608E-02  0.1130116E+00
         25   -1    0    0    0    0  0.00000000000E+00  0.00000000000E+00  0.99999998245E-14  0.12500000000E+03  0.12500000000E+03 0.  0.
        -13    1    3    3    0    0  0.70291003758E+01 -0.31882964609E+02 -0.12848805407E+02  0.35086103357E+02  0.10566000000E+00 0.  1.
         23    2    1    0    0    0 -0.19346361889E+01  0.27752861704E+02  0.17197349051E+01  0.97126685915E+02  0.93041235367E+02 0.  0.
         13    1    3    3    0    0 -0.89637365647E+01  0.59635826313E+02  0.14568540313E+02  0.62040582558E+02  0.10566000000E+00 0. -1.
         22    1    1    0    0    0  0.19346361889E+01 -0.27752861704E+02 -0.17197349051E+01  0.27873314085E+02  0.00000000000E+00 0. -1.
</event>
<event>
 5    1  0.6835449E-004  0.9118800E+02  0.7818608E-02  0.1130116E+00
         25   -1    0    0    0    0  0.00000000000E+00  0.00000000000E+00  0.99999998245E-14  0.12500000000E+03  0.12500000000E+03 0.  0.
        -13    1    3    3    0    0 -0.25444377976E+02  0.37094652634E+02 -0.27256201178E+01  0.45065172736E+02  0.10566000000E+00 0.  1.
         23    2    1    0    0    0  0.21616538865E+02  0.17854135421E+02 -0.70489861648E+01  0.96090951070E+02  0.91639171577E+02 0.  0.
         13    1    3    3    0    0  0.47060916841E+02 -0.19240517213E+02 -0.43233660471E+01  0.51025778334E+02  0.10566000000E+00 0. -1.
         22    1    1    0    0    0 -0.21616538865E+02 -0.17854135421E+02  0.70489861648E+01  0.28909048930E+02  0.00000000000E+00 0.  1.
</event>
<event>
 5    1  0.6835449E-004  0.9118800E+02  0.7818608E-02  0.1130116E+00
         25   -1    0    0    0    0  0.00000000000E+00  0.00000000000E+00  0.99999998245E-14  0.12500000000E+03  0.12500000000E+03 0.  0.
        -13    1    3    3    0    0  0.45013646782E+01 -0.48904747138E+02 -0.14570413056E+02  0.51227382104E+02  0.10566000000E+00 0.  1.
         23    2    1    0    0    0 -0.29099035333E+01 -0.20981476490E+02  0.19715487485E+02  0.96062302424E+02  0.91600085185E+02 0.  0.
         13    1    3    3    0    0 -0.74112682115E+01  0.27923270648E+02  0.34285900540E+02  0.44834920320E+02  0.10566000000E+00 0. -1.
         22    1    1    0    0    0  0.29099035333E+01  0.20981476490E+02 -0.19715487485E+02  0.28937697576E+02  0.00000000000E+00 0.  1.
</event>
<event>
 5    1  0.6835449E-004  0.9118800E+02  0.7818608E-02  0.1130116E+00
         25   -1    0    0    0    0  0.00000000000E+00  0.00000000000E+00  0.99999998245E-14  0.12500000000E+03  0.12500000000E+03 0.  0.
        -13    1    3    3    0    0  0.36930165178E+02 -0.31339903002E+02 -0.22524046703E+02  0.53416949222E+02  0.10566000000E+00 0.  1.
         23    2    1    0    0    0  0.25119435017E+02  0.51710214198E+01 -0.21053649418E+02  0.91818956739E+02  0.85613895979E+02 0.  0.
         13    1    3    3    0    0 -0.11810730161E+02  0.36510924422E+02  0.14703972849E+01  0.38402007517E+02  0.10566000000E+00 0. -1.
         22    1    1    0    0    0 -0.25119435017E+02 -0.51710214198E+01  0.21053649418E+02  0.33181043261E+02  0.00000000000E+00 0.  1.
</event>
<event>
 5    1  0.6835449E-004  0.9118800E+02  0.7818608E-02  0.1130116E+00
         25   -1    0    0    0    0  0.00000000000E+00  0.00000000000E+00  0.99999998245E-14  0.12500000000E+03  0.12500000000E+03 0.  0.
        -13    1    3    3    0    0  0.29173485396E+02  0.21687585274E+02  0.94289903167E+01  0.37554768374E+02  0.10566000000E+00 0.  1.
         23    2    1    0    0    0 -0.25849122019E+02  0.71841472490E+01 -0.78915015954E+01  0.97034577094E+02  0.92917405655E+02 0.  0.
         13    1    3    3    0    0 -0.55022607415E+02 -0.14503438025E+02 -0.17320491912E+02  0.59479808721E+02  0.10566000000E+00 0. -1.
         22    1    1    0    0    0  0.25849122019E+02 -0.71841472490E+01  0.78915015954E+01  0.27965422906E+02  0.00000000000E+00 0. -1.
</event>
<event>
 5    1  0.6835449E-004  0.9118800E+02  0.7818608E-02  0.1130116E+00
         25   -1    0    0    0    0  0.00000000000E+00  0.00000000000E+00  0.99999998245E-14  0.12500000000E+03  0.12500000000E+03 0.  0.
        -13    1    3    3    0    0  0.32072148038E+01  0.38656486345E+02 -0.46418814069E+01  0.39066205221E+02  0.10566000000E+00 0.  1.
         23    2    1    0    0    0  0.11018003974E+01 -0.14398876645E+02 -0.25160250638E+02  0.95990004741E+02  0.91501372587E+02 0.  0.
         13    1    3    3    0    0 -0.21054144064E+01 -0.53055362990E+02 -0.20518369231E+02  0.56923799520E+02  0.10566000000E+00 0. -1.
         22    1    1    0    0    0 -0.11018003974E+01  0.14398876645E+02  0.25160250638E+02  0.29009995259E+02  0.00000000000E+00 0. -1.
</event>
<event>
 5    1  0.6835449E-004  0.9118800E+02  0.7818608E-02  0.1130116E+00
         25   -1    0    0    0    0  0.00000000000E+00  0.00000000000E+00  0.99999998245E-14  0.12500000000E+03  0.12500000000E+03 0.  0.
        -13    1    3    3    0    0 -0.22908331105E+02 -0.36568826017E+01  0.39721118097E+02  0.45999378379E+02  0.10566000000E+00 0.  1.
         23    2    1    0    0    0 -0.15209710359E+02 -0.21114626570E+02 -0.83112157118E+01  0.97682623643E+02  0.93785158265E+02 0.  0.
         13    1    3    3    0    0  0.76986207467E+01 -0.17457743969E+02 -0.48032333809E+02  0.51683245264E+02  0.10566000000E+00 0. -1.
         22    1    1    0    0    0  0.15209710359E+02  0.21114626570E+02  0.83112157118E+01  0.27317376357E+02  0.00000000000E+00 0. -1.
</event>
<event>
 5    1  0.6835449E-004  0.9118800E+02  0.7818608E-02  0.1130116E+00
         25   -1    0    0    0    0  0.00000000000E+00  0.00000000000E+00  0.99999998245E-14  0.12500000000E+03  0.12500000000E+03 0.  0.
        -13    1    3    3    0    0 -0.52246818806E+02 -0.31943712295E+02  0.35029213519E+01  0.61338507094E+02  0.10566000000E+00 0. -1.
         23    2    1    0    0    0 -0.26996704840E+02 -0.10086811677E+02  0.81348552398E+01  0.95054354043E+02  0.90214125893E+02 0.  0.
         13    1    3    3    0    0  0.25250113966E+02  0.21856900618E+02  0.46319338878E+01  0.33715846949E+02  0.10566000000E+00 0.  1.
         22    1    1    0    0    0  0.26996704840E+02  0.10086811677E+02 -0.81348552398E+01  0.29945645957E+02  0.00000000000E+00 0. -1.
</event>
<event>
 5    1  0.6835449E-004  0.9118800E+02  0.7818608E-02  0.1130116E+00
         25   -1    0    0    0    0  0.00000000000E+00  0.00000000000E+00  0.99999998245E-14  0.12500000000E+03  0.12500000000E+03 0.  0.
        -13    1    3    3    0    0  0.11651232068E+02 -0.24065410776E+02 -0.50326553785E+02  0.56988317965E+02  0.10566000000E+00 0.  1.
         23    2    1    0    0    0 -0.56317648882E+01  0.28351772318E+01 -0.28762145641E+02  0.95554864110E+02  0.90904983513E+02 0.  0.
         13    1    3    3    0    0 -0.17282996956E+02  0.26900588008E+02  0.21564408144E+02  0.38566546145E+02  0.10566000000E+00 0. -1.
         22    1    1    0    0    0  0.56317648882E+01 -0.28351772318E+01  0.28762145641E+02  0.29445135890E+02  0.00000000000E+00 0.  1.
</event>
<event>
 5    1  0.6835449E-004  0.9118800E+02  0.7818608E-02  0.1130116E+00
         25   -1    0    0    0    0  0.00000000000E+00  0.00000000000E+00  0.99999998245E-14  0.12500000000E+03  0.12500000000E+03 0.  0.
        -13    1    3    3    0    0  0.61568968661E+01  0.35296556366E+02 -0.79769434175E+01  0.36706907533E+02  0.10566000000E+00 0. -1.
         23    2    1    0    0    0  0.96829304427E+01 -0.22556397443E+02 -0.16687195012E+02  0.95318142158E+02  0.90578891247E+02 0.  0.
         13    1    3    3    0    0  0.35260335766E+01 -0.57852953810E+02 -0.87102515947E+01  0.58611234624E+02  0.10566000000E+00 0.  1.
         22    1    1    0    0    0 -0.96829304427E+01  0.22556397443E+02  0.16687195012E+02  0.29681857842E+02  0.00000000000E+00 0.  1.
</event>
<event>
 5    1  0.6835449E-004  0.9118800E+02  0.7818608E-02  0.1130116E+00
         25   -1    0    0    0    0  0.00000000000E+00  0.00000000000E+00  0.99999998245E-14  0.12500000000E+03  0.12500000000E+03 0.  0.
        -13    1    3    3    0    0  0.24566451551E+02 -0.15203337668E+02  0.51631911212E+02  0.59165170814E+02  0.10566000000E+00 0. -1.
         23    2    1    0    0    0  0.23031064514E+02 -0.22166254455E+01  0.16698764402E+02  0.96465948525E+02  0.92149265495E+02 0.  0.
         13    1    3    3    0    0 -0.15353870363E+01  0.12986712223E+02 -0.34933146810E+02  0.37300777711E+02  0.10566000000E+00 0.  1.
         22    1    1    0    0    0 -0.23031064514E+02  0.22166254455E+01 -0.16698764402E+02  0.28534051475E+02  0.00000000000E+00 0. -1.
</event>
<event>
 5    1  0.6835449E-004  0.9118800E+02  0.7818608E-02  0.1130116E+00
         25   -1    0    0    0    0  0.00000000000E+00  0.00000000000E+00  0.99999998245E-14  0.12500000000E+03  0.12500000000E+03 0.  0.
        -13    1    3    3    0    0  0.25628102491E+02 -0.47880442847E+02  0.47355643585E+00  0.54309961004E+02  0.10566000000E+00 0. -1.
         23    2    1    0    0    0 -0.11077067350E+01 -0.21869431742E+02 -0.18658228790E+02  0.96231465791E+02  0.91830640027E+02 0.  0.
         13    1    3    3    0    0 -0.26735809226E+02  0.26011011105E+02 -0.19131785226E+02  0.41921504788E+02  0.10566000000E+00 0.  1.
         22    1    1    0    0    0  0.11077067350E+01  0.21869431742E+02  0.18658228790E+02  0.28768534209E+02  0.00000000000E+00 0.  1.
</event>
<event>
 5    1  0.6835449E-004  0.9118800E+02  0.7818608E-02  0.1130116E+00
         25   -1    0    0    0    0  0.00000000000E+00  0.00000000000E+00  0.99999998245E-14  0.12500000000E+03  0.12500000000E+03 0.  0.
        -13    1    3    3    0    0  0.43167774105E+02 -0.18812677200E+02  0.38636983345E+02  0.60911420856E+02  0.10566000000E+00 0.  1.
         23    2    1    0    0    0  0.19660488040E+02  0.21327409761E+00  0.22248328248E+02  0.95308782685E+02  0.90565974137E+02 0.  0.
         13    1    3    3    0    0 -0.23507286065E+02  0.19025951297E+02 -0.16388655097E+02  0.34397361830E+02  0.10566000000E+00 0. -1.
         22    1    1    0    0    0 -0.19660488040E+02 -0.21327409761E+00 -0.22248328248E+02  0.29691217315E+02  0.00000000000E+00 0.  1.
</event>
<event>
 5    1  0.6835449E-004  0.9118800E+02  0.7818608E-02  0.1130116E+00
         25   -1    0    0    0    0  0.00000000000E+00  0.00000000000E+00  0.99999998245E-14  0.12500000000E+03  0.12500000000E+03 0.  0.
        -13    1    3    3    0    0  0.42314890449E+02 -0.20947515458E+01  0.12839516552E+02  0.44269654246E+02  0.10566000000E+00 0.  1.
         23    2    1    0    0    0  0.10516382560E+02 -0.24556484979E+02 -0.17012580944E+02  0.93329143254E+02  0.87791148833E+02 0.  0.
         13    1    3    3    0    0 -0.31798507889E+02 -0.22461733433E+02 -0.29852097496E+02  0.49059489008E+02  0.10566000000E+00 0. -1.
         22    1    1    0    0    0 -0.10516382560E+02  0.24556484979E+02  0.17012580944E+02  0.31670856746E+02  0.00000000000E+00 0. -1.
</event>
<event>
 5    1  0.6835449E-004  0.9118800E+02  0.7818608E-02  0.1130116E+00
         25   -1    0    0    0    0  0.00000000000E+00  0.00000000000E+00  0.99999998245E-14  0.12500000000E+03  0.12500000000E+03 0.  0.
        -13    1    3    3    0    0  0.41153034718E+02  0.43774534562E+01 -0.32997938114E+02  0.52930231901E+02  0.10566000000E+00 0.  1.
         23    2    1    0    0    0  0.96708650063E+01 -0.18050054227E+02 -0.25484455432E+02  0.92307683529E+02  0.86324509163E+02 0.  0.
         13    1    3    3    0    0 -0.31482169712E+02 -0.22427507683E+02  0.75134826813E+01  0.39377451628E+02  0.10566000000E+00 0. -1.
         22    1    1    0    0    0 -0.96708650063E+01  0.18050054227E+02  0.25484455432E+02  0.32692316471E+02  0.00000000000E+00 0.  1.
</event>
<event>
 5    1  0.6835449E-004  0.9118800E+02  0.7818608E-02  0.1130116E+00
         25   -1    0    0    0    0  0.00000000000E+00  0.00000000000E+00  0.99999998245E-14  0.12500000000E+03  0.12500000000E+03 0.  0.
        -13    1    3    3    0    0 -0.27415801887E+02 -0.21072796752E+02 -0.23008407799E+02  0.41534166051E+02  0.10566000000E+00 0.  1.
         23    2    1    0    0    0 -0.16847126376E+02 -0.27349390511E+01  0.25417633866E+02  0.94383637216E+02  0.89279949060E+02 0.  0.
         13    1    3    3    0    0  0.10568675511E+02  0.18337857701E+02  0.48426041665E+02  0.52849471166E+02  0.10566000000E+00 0. -1.
         22    1    1    0    0    0  0.16847126376E+02  0.27349390511E+01 -0.25417633866E+02  0.30616362784E+02  0.00000000000E+00 0. -1.
</event>
<event>
 5    1  0.6835449E-004  0.9118800E+02  0.7818608E-02  0.1130116E+00
         25   -1    0    0    0    0  0.00000000000E+00  0.00000000000E+00  0.99999998245E-14  0.12500000000E+03  0.12500000000E+03 0.  0.
        -13    1    3    3    0    0 -0.58209727184E+02  0.13452725623E+02 -0.34493745039E+01  0.59843608799E+02  0.10566000000E+00 0.  1.
         23    2    1    0    0    0 -0.24734730652E+02  0.99942450945E+01  0.10575920816E+02  0.96302579619E+02  0.91927389306E+02 0.  0.
         13    1    3    3    0    0  0.33474996532E+02 -0.34584805281E+01  0.14025295320E+02  0.36458970820E+02  0.10566000000E+00 0. -1.
         22    1    1    0    0    0  0.24734730652E+02 -0.99942450945E+01 -0.10575920816E+02  0.28697420381E+02  0.00000000000E+00 0.  1.
</event>
<event>
 5    1  0.6835449E-004  0.9118800E+02  0.7818608E-02  0.1130116E+00
         25   -1    0    0    0    0  0.00000000000E+00  0.00000000000E+00  0.99999998245E-14  0.12500000000E+03  0.12500000000E+03 0.  0.
        -13    1    3    3    0    0 -0.13076738359E+01  0.93883142442E+01 -0.38743263323E+02  0.39886113776E+02  0.10566000000E+00 0. -1.
         23    2    1    0    0    0  0.24884821092E+02 -0.15160492917E+02  0.38699129186E+01  0.95604913808E+02  0.90973778925E+02 0.  0.
         13    1    3    3    0    0  0.26192494928E+02 -0.24548807161E+02  0.42613176241E+02  0.55718800032E+02  0.10566000000E+00 0.  1.
         22    1    1    0    0    0 -0.24884821092E+02  0.15160492917E+02 -0.38699129186E+01  0.29395086192E+02  0.00000000000E+00 0.  1.
</event>
<event>
 5    1  0.6835449E-004  0.9118800E+02  0.7818608E-02  0.1130116E+00
         25   -1    0    0    0    0  0.00000000000E+00  0.00000000000E+00  0.99999998245E-14  0.12500000000E+03  0.12500000000E+03 0.  0.
        -13    1    3    3    0    0  0.27529385777E+02  0.75035398561E+01  0.60538766668E+01  0.29169003726E+02  0.10566000000E+00 0.  1.
         23    2    1    0    0    0 -0.92896254946E+01 -0.31176760133E+02 -0.18091704938E+02  0.87776387846E+02  0.79492747855E+02 0.  0.
         13    1    3    3    0    0 -0.36819011272E+02 -0.38680299989E+02 -0.24145581605E+02  0.58607384120E+02  0.10566000000E+00 0. -1.
         22    1    1    0    0    0  0.92896254946E+01  0.31176760133E+02  0.18091704938E+02  0.37223612154E+02  0.00000000000E+00 0. -1.
</event>
<event>
 5    1  0.6835449E-004  0.9118800E+02  0.7818608E-02  0.1130116E+00
         25   -1    0    0    0    0  0.00000000000E+00  0.00000000000E+00  0.99999998245E-14  0.12500000000E+03  0.12500000000E+03 0.  0.
        -13    1    3    3    0    0  0.34096724434E+02  0.37101008505E+02  0.23017807692E+02  0.55397672191E+02  0.10566000000E+00 0.  1.
         23    2    1    0    0    0  0.27325887770E+02 -0.57001886904E+00  0.79065981284E+01  0.96547524574E+02  0.92259856619E+02 0.  0.
         13    1    3    3    0    0 -0.67708366643E+01 -0.37671027374E+02 -0.15111209564E+02  0.41149852382E+02  0.10566000000E+00 0. -1.
         22    1    1    0    0    0 -0.27325887770E+02  0.57001886904E+00 -0.79065981284E+01  0.28452475426E+02  0.00000000000E+00 0.  1.
</event>
<event>
 5    1  0.6835449E-004  0.9118800E+02  0.7818608E-02  0.1130116E+00
         25   -1    0    0    0    0  0.00000000000E+00  0.00000000000E+00  0.99999998245E-14  0.12500000000E+03  0.12500000000E+03 0.  0.
        -13    1    3    3    0    0 -0.37897198456E+02 -0.27245398391E+02 -0.16037676936E+02  0.49353091391E+02  0.10566000000E+00 0. -1.
         23    2    1    0    0    0  0.54699092810E+01 -0.29118832733E+02 -0.78857629352E+00  0.95361373516E+02  0.90638531426E+02 0.  0.
         13    1    3    3    0    0  0.43367107737E+02 -0.18734343414E+01  0.15249100643E+02  0.46008282125E+02  0.10566000000E+00 0.  1.
         22    1    1    0    0    0 -0.54699092810E+01  0.29118832733E+02  0.78857629352E+00  0.29638626484E+02  0.00000000000E+00 0.  1.
</event>
<event>
 5    1  0.6835449E-004  0.9118800E+02  0.7818608E-02  0.1130116E+00
         25   -1    0    0    0    0  0.00000000000E+00  0.00000000000E+00  0.99999998245E-14  0.12500000000E+03  0.12500000000E+03 0.  0.
        -13    1    3    3    0    0  0.10451108394E+02 -0.15938262096E+01 -0.24331261847E+02  0.26528991985E+02  0.10566000000E+00 0.  1.
         23    2    1    0    0    0 -0.82140512326E+01  0.17138488859E+02  0.31445736968E+02  0.88257207353E+02  0.80245260535E+02 0.  0.
         13    1    3    3    0    0 -0.18665159626E+02  0.18732315068E+02  0.55776998815E+02  0.61728215368E+02  0.10566000000E+00 0. -1.
         22    1    1    0    0    0  0.82140512326E+01 -0.17138488859E+02 -0.31445736968E+02  0.36742792647E+02  0.00000000000E+00 0. -1.
</event>
<event>
 5    1  0.6835449E-004  0.9118800E+02  0.7818608E-02  0.1130116E+00
         25   -1    0    0    0    0  0.00000000000E+00  0.00000000000E+00  0.99999998245E-14  0.12500000000E+03  0.12500000000E+03 0.  0.
        -13    1    3    3    0    0 -0.12931948092E+02  0.21942653217E+02  0.45177814580E+02  0.51862909733E+02  0.10566000000E+00 0.  1.
         23    2    1    0    0    0  0.70709309983E+01  0.26888992416E+02  0.53766267481E+01  0.96681735691E+02  0.92441516229E+02 0.  0.
         13    1    3    3    0    0  0.20002879090E+02  0.49463391985E+01 -0.39801187832E+02  0.44818825958E+02  0.10566000000E+00 0. -1.
         22    1    1    0    0    0 -0.70709309983E+01 -0.26888992416E+02 -0.53766267481E+01  0.28318264309E+02  0.00000000000E+00 0. -1.
</event>
<event>
 5    1  0.6835449E-004  0.9118800E+02  0.7818608E-02  0.1130116E+00
         25   -1    0    0    0    0  0.00000000000E+00  0.00000000000E+00  0.99999998245E-14  0.12500000000E+03  0.12500000000E+03 0.  0.
        -13    1    3    3    0    0  0.20635064090E+02  0.53324046697E+02 -0.50574732795E+01  0.57400775483E+02  0.10566000000E+00 0. -1.
         23    2    1    0    0    0  0.23481461717E+02  0.13824476050E+02  0.22005621050E+01  0.97662522867E+02  0.93758363449E+02 0.  0.
         13    1    3    3    0    0  0.28463976274E+01 -0.39499570646E+02  0.72580353845E+01  0.40261747383E+02  0.10566000000E+00 0.  1.
         22    1    1    0    0    0 -0.23481461717E+02 -0.13824476050E+02 -0.22005621050E+01  0.27337477133E+02  0.00000000000E+00 0. -1.
</event>
<event>
 5    1  0.6835449E-004  0.9118800E+02  0.7818608E-02  0.1130116E+00
         25   -1    0    0    0    0  0.00000000000E+00  0.00000000000E+00  0.99999998245E-14  0.12500000000E+03  0.12500000000E+03 0.  0.
        -13    1    3    3    0    0  0.67230530139E+01 -0.42370148836E+02 -0.31387681365E+02  0.53156623855E+02  0.10566000000E+00 0. -1.
         23    2    1    0    0    0  0.22138008928E+02 -0.31024295883E+01 -0.12634116950E+02  0.99322433531E+02  0.95945861729E+02 0.  0.
         13    1    3    3    0    0  0.15414955914E+02  0.39267719247E+02  0.18753564415E+02  0.46165809676E+02  0.10566000000E+00 0.  1.
         22    1    1    0    0    0 -0.22138008928E+02  0.31024295883E+01  0.12634116950E+02  0.25677566469E+02  0.00000000000E+00 0. -1.
</event>
<event>
 5    1  0.6835449E-004  0.9118800E+02  0.7818608E-02  0.1130116E+00
         25   -1    0    0    0    0  0.00000000000E+00  0.00000000000E+00  0.99999998245E-14  0.12500000000E+03  0.12500000000E+03 0.  0.
        -13    1    3    3    0    0  0.16091396497E+02 -0.37756656947E+02 -0.93037542269E+01  0.42084072899E+02  0.10566000000E+00 0. -1.
         23    2    1    0    0    0 -0.26581745026E+02 -0.30957668337E+01 -0.79720127869E+01  0.97076427005E+02  0.92973688489E+02 0.  0.
         13    1    3    3    0    0 -0.42673141523E+02  0.34660890113E+02  0.13317414400E+01  0.54992354106E+02  0.10566000000E+00 0.  1.
         22    1    1    0    0    0  0.26581745026E+02  0.30957668337E+01  0.79720127869E+01  0.27923572995E+02  0.00000000000E+00 0.  1.
</event>
<event>
 5    1  0.6835449E-004  0.9118800E+02  0.7818608E-02  0.1130116E+00
         25   -1    0    0    0    0  0.00000000000E+00  0.00000000000E+00  0.99999998245E-14  0.12500000000E+03  0.12500000000E+03 0.  0.
        -13    1    3    3    0    0 -0.29136443080E+02 -0.41034862749E+01 -0.13595986026E+02  0.32413468111E+02  0.10566000000E+00 0. -1.
         23    2    1    0    0    0  0.18249782614E+02  0.19055936180E+02  0.17213923294E+02  0.93495993519E+02  0.88028395304E+02 0.  0.
         13    1    3    3    0    0  0.47386225694E+02  0.23159422455E+02  0.30809909320E+02  0.61082525408E+02  0.10566000000E+00 0.  1.
         22    1    1    0    0    0 -0.18249782614E+02 -0.19055936180E+02 -0.17213923294E+02  0.31504006481E+02  0.00000000000E+00 0.  1.
</event>
<event>
 5    1  0.6835449E-004  0.9118800E+02  0.7818608E-02  0.1130116E+00
         25   -1    0    0    0    0  0.00000000000E+00  0.00000000000E+00  0.99999998245E-14  0.12500000000E+03  0.12500000000E+03 0.  0.
        -13    1    3    3    0    0  0.16745406936E+02 -0.12743199113E+02 -0.51911172683E+02  0.56014094569E+02  0.10566000000E+00 0. -1.
         23    2    1    0    0    0 -0.10013827433E+02 -0.15560141507E+02 -0.22240330929E+02  0.96068579997E+02  0.91608651334E+02 0.  0.
         13    1    3    3    0    0 -0.26759234369E+02 -0.28169423938E+01  0.29670841754E+02  0.40054485428E+02  0.10566000000E+00 0.  1.
         22    1    1    0    0    0  0.10013827433E+02  0.15560141507E+02  0.22240330929E+02  0.28931420003E+02  0.00000000000E+00 0. -1.
</event>
<event>
 5    1  0.6835449E-004  0.9118800E+02  0.7818608E-02  0.1130116E+00
         25   -1    0    0    0    0  0.00000000000E+00  0.00000000000E+00  0.99999998245E-14  0.12500000000E+03  0.12500000000E+03 0.  0.
        -13    1    3    3    0    0 -0.14574006064E+02  0.40656667251E+02  0.40924919671E+02  0.59499802175E+02  0.10566000000E+00 0.  1.
         23    2    1    0    0    0 -0.99409779906E+01  0.26876659528E+02  0.83811844471E+01  0.95143306889E+02  0.90337294194E+02 0.  0.
         13    1    3    3    0    0  0.46330280732E+01 -0.13780007723E+02 -0.32543735224E+02  0.35643504715E+02  0.10566000000E+00 0. -1.
         22    1    1    0    0    0  0.99409779906E+01 -0.26876659528E+02 -0.83811844471E+01  0.29856693111E+02  0.00000000000E+00 0.  1.
</event>
<event>
 5    1  0.6835449E-004  0.9118800E+02  0.7818608E-02  0.1130116E+00
         25   -1    0    0    0    0  0.00000000000E+00  0.00000000000E+00  0.99999998245E-14  0.12500000000E+03  0.12500000000E+03 0.  0.
        -13    1    3    3    0    0  0.39016109381E+02  0.19047062950E+02  0.22500511271E+02  0.48901243029E+02  0.10566000000E+00 0. -1.
         23    2    1    0    0    0 -0.78837416658E+01  0.44384468076E+01  0.25327593344E+02  0.98105015759E+02  0.94346456954E+02 0.  0.
         13    1    3    3    0    0 -0.46899851047E+02 -0.14608616143E+02  0.28270820735E+01  0.49203772730E+02  0.10566000000E+00 0.  1.
         22    1    1    0    0    0  0.78837416658E+01 -0.44384468076E+01 -0.25327593344E+02  0.26894984241E+02  0.00000000000E+00 0. -1.
</event>
<event>
 5    1  0.6835449E-004  0.9118800E+02  0.7818608E-02  0.1130116E+00
         25   -1    0    0    0    0  0.00000000000E+00  0.00000000000E+00  0.99999998245E-14  0.12500000000E+03  0.12500000000E+03 0.  0.
        -13    1    3    3    0    0  0.27921079564E+02 -0.20899605083E+02 -0.15508512014E+02  0.38169428677E+02  0.10566000000E+00 0.  1.
         23    2    1    0    0    0  0.16553303109E+02  0.27287162434E+02  0.66296257845E+01  0.92403174763E+02  0.86462672239E+02 0.  0.
         13    1    3    3    0    0 -0.11367776456E+02  0.48186767517E+02  0.22138137798E+02  0.54233746085E+02  0.10566000000E+00 0. -1.
         22    1    1    0    0    0 -0.16553303109E+02 -0.27287162434E+02 -0.66296257845E+01  0.32596825237E+02  0.00000000000E+00 0.  1.
</event>
<event>
 5    1  0.6835449E-004  0.9118800E+02  0.7818608E-02  0.1130116E+00
         25   -1    0    0    0    0  0.00000000000E+00  0.00000000000E+00  0.99999998245E-14  0.12500000000E+03  0.12500000000E+03 0.  0.
        -13    1    3    3    0    0  0.16117154730E+02 -0.40954973682E+02  0.14159204139E+02  0.46233827138E+02  0.10566000000E+00 0. -1.
         23    2    1    0    0    0 -0.19098168876E+02 -0.91703745436E+01  0.22160125631E+02  0.94342097403E+02  0.89221770609E+02 0.  0.
         13    1    3    3    0    0 -0.35215323606E+02  0.31784599139E+02  0.80009214919E+01  0.48108270265E+02  0.10566000000E+00 0.  1.
         22    1    1    0    0    0  0.19098168876E+02  0.91703745436E+01 -0.22160125631E+02  0.30657902597E+02  0.00000000000E+00 0. -1.
</event>
<event>
 5    1  0.6835449E-004  0.9118800E+02  0.7818608E-02  0.1130116E+00
         25   -1    0    0    0    0  0.00000000000E+00  0.00000000000E+00  0.99999998245E-14  0.12500000000E+03  0.12500000000E+03 0.  0.
        -13    1    3    3    0    0  0.29236308260E+02  0.34912621553E+01 -0.26472441449E+02  0.39594847549E+02  0.10566000000E+00 0.  1.
         23    2    1    0    0    0 -0.86992977492E+01  0.21317264138E+02  0.14158601545E+02  0.97970950269E+02  0.94168665527E+02 0.  0.
         13    1    3    3    0    0 -0.37935606009E+02  0.17826001982E+02  0.40631042994E+02  0.58376102720E+02  0.10566000000E+00 0. -1.
         22    1    1    0    0    0  0.86992977492E+01 -0.21317264138E+02 -0.14158601545E+02  0.27029049731E+02  0.00000000000E+00 0.  1.
</event>
<event>
 5    1  0.6835449E-004  0.9118800E+02  0.7818608E-02  0.1130116E+00
         25   -1    0    0    0    0  0.00000000000E+00  0.00000000000E+00  0.99999998245E-14  0.12500000000E+03  0.12500000000E+03 0.  0.
        -13    1    3    3    0    0  0.41264929214E+02  0.16618159549E+02  0.38844846891E+01  0.44654876499E+02  0.10566000000E+00 0. -1.
         23    2    1    0    0    0  0.11342308267E+02 -0.23265059093E+02 -0.11274155354E+02  0.96768501450E+02  0.92558767076E+02 0.  0.
         13    1    3    3    0    0 -0.29922620947E+02 -0.39883218641E+02 -0.15158640043E+02  0.52113624951E+02  0.10566000000E+00 0.  1.
         22    1    1    0    0    0 -0.11342308267E+02  0.23265059093E+02  0.11274155354E+02  0.28231498550E+02  0.00000000000E+00 0.  1.
</event>
<event>
 5    1  0.6835449E-004  0.9118800E+02  0.7818608E-02  0.1130116E+00
         25   -1    0    0    0    0  0.00000000000E+00  0.00000000000E+00  0.99999998245E-14  0.12500000000E+03  0.12500000000E+03 0.  0.
        -13    1    3    3    0    0 -0.27469821397E+02  0.27882708773E+02  0.45073099643E+02  0.59696164128E+02  0.10566000000E+00 0.  1.
         23    2    1    0    0    0 -0.18683513643E+01  0.95679593553E+01  0.27665813283E+02  0.95666847976E+02  0.91058838088E+02 0.  0.
         13    1    3    3    0    0  0.25601470033E+02 -0.18314749418E+02 -0.17407286360E+02  0.35970683848E+02  0.10566000000E+00 0. -1.
         22    1    1    0    0    0  0.18683513643E+01 -0.95679593553E+01 -0.27665813283E+02  0.29333152024E+02  0.00000000000E+00 0.  1.
</event>
<event>
 5    1  0.6835449E-004  0.9118800E+02  0.7818608E-02  0.1130116E+00
         25   -1    0    0    0    0  0.00000000000E+00  0.00000000000E+00  0.99999998245E-14  0.12500000000E+03  0.12500000000E+03 0.  0.
        -13    1    3    3    0    0 -0.41466786700E+01  0.18589954964E+02 -0.56926618887E+02  0.60028597114E+02  0.10566000000E+00 0. -1.
         23    2    1    0    0    0 -0.88081983123E+01  0.17727127875E+02 -0.21483955414E+02  0.95787061763E+02  0.91223710957E+02 0.  0.
         13    1    3    3    0    0 -0.46615196423E+01 -0.86282708946E+00  0.35442663473E+02  0.35758464649E+02  0.10566000000E+00 0.  1.
         22    1    1    0    0    0  0.88081983123E+01 -0.17727127875E+02  0.21483955414E+02  0.29212938237E+02  0.00000000000E+00 0. -1.
</event>
<event>
 5    1  0.6835449E-004  0.9118800E+02  0.7818608E-02  0.1130116E+00
         25   -1    0    0    0    0  0.00000000000E+00  0.00000000000E+00  0.99999998245E-14  0.12500000000E+03  0.12500000000E+03 0.  0.
        -13    1    3    3    0    0  0.11215397685E+01  0.31849608213E+02 -0.26456428966E+02  0.41419912994E+02  0.10566000000E+00 0.  1.
         23    2    1    0    0    0  0.10299462644E+02 -0.20891755031E+02 -0.17878827919E+02  0.95636811365E+02  0.91017596328E+02 0.  0.
         13    1    3    3    0    0  0.91779228759E+01 -0.52741363245E+02  0.85776010467E+01  0.54216898371E+02  0.10566000000E+00 0. -1.
         22    1    1    0    0    0 -0.10299462644E+02  0.20891755031E+02  0.17878827919E+02  0.29363188635E+02  0.00000000000E+00 0. -1.
</event>
<event>
 5    1  0.6835449E-004  0.9118800E+02  0.7818608E-02  0.1130116E+00
         25   -1    0    0    0    0  0.00000000000E+00  0.00000000000E+00  0.99999998245E-14  0.12500000000E+03  0.12500000000E+03 0.  0.
        -13    1    3    3    0    0  0.36880876922E+02  0.32233462924E+02 -0.18592912034E+01  0.49016969944E+02  0.10566000000E+00 0.  1.
         23    2    1    0    0    0 -0.76026157736E+01  0.24869190883E+02 -0.13660843384E+02  0.95624924447E+02  0.91001269836E+02 0.  0.
         13    1    3    3    0    0 -0.44483492696E+02 -0.73642720412E+01 -0.11801552180E+02  0.46607954504E+02  0.10566000000E+00 0. -1.
         22    1    1    0    0    0  0.76026157736E+01 -0.24869190883E+02  0.13660843384E+02  0.29375075553E+02  0.00000000000E+00 0.  1.
</event>
<event>
 5    1  0.6835449E-004  0.9118800E+02  0.7818608E-02  0.1130116E+00
         25   -1    0    0    0    0  0.00000000000E+00  0.00000000000E+00  0.99999998245E-14  0.12500000000E+03  0.12500000000E+03 0.  0.
        -13    1    3    3    0    0  0.63010688902E+01 -0.16051421476E+02 -0.27606063520E+02  0.32549308866E+02  0.10566000000E+00 0. -1.
         23    2    1    0    0    0 -0.50097581069E+01  0.15904671815E+02  0.24890867956E+02  0.95039833621E+02  0.90194004265E+02 0.  0.
         13    1    3    3    0    0 -0.11310826997E+02  0.31956093291E+02  0.52496931476E+02  0.62490524755E+02  0.10566000000E+00 0.  1.
         22    1    1    0    0    0  0.50097581069E+01 -0.15904671815E+02 -0.24890867956E+02  0.29960166379E+02  0.00000000000E+00 0.  1.
</event>
<event>
 5    1  0.6835449E-004  0.9118800E+02  0.7818608E-02  0.1130116E+00
         25   -1    0    0    0    0  0.00000000000E+00  0.00000000000E+00  0.99999998245E-14  0.12500000000E+03  0.12500000000E+03 0.  0.
        -13    1    3    3    0    0 -0.32364661781E+01 -0.17144671508E+02 -0.59370558910E+02  0.61881248402E+02  0.10566000000E+00 0.  1.
         23    2    1    0    0    0 -0.31978345000E+01 -0.13828515498E+02 -0.26329256748E+02  0.95088735445E+02  0.90261751928E+02 0.  0.
         13    1    3    3    0    0  0.38631678118E-01  0.33161560094E+01  0.33041302162E+02  0.33207487043E+02  0.10566000000E+00 0. -1.
         22    1    1    0    0    0  0.31978345000E+01  0.13828515498E+02  0.26329256748E+02  0.29911264555E+02  0.00000000000E+00 0.  1.
</event>
<event>
 5    1  0.6835449E-004  0.9118800E+02  0.7818608E-02  0.1130116E+00
         25   -1    0    0    0    0  0.00000000000E+00  0.00000000000E+00  0.99999998245E-14  0.12500000000E+03  0.12500000000E+03 0.  0.
        -13    1    3    3    0    0  0.22461136956E+02  0.35976050186E+02  0.12001884458E+02  0.44077604913E+02  0.10566000000E+00 0.  1.
         23    2    1    0    0    0 -0.22734002395E+02  0.18796547679E+02 -0.44876819239E+01  0.95162366739E+02  0.90363663520E+02 0.  0.
         13    1    3    3    0    0 -0.45195139351E+02 -0.17179502507E+02 -0.16489566382E+02  0.51084761826E+02  0.10566000000E+00 0. -1.
         22    1    1    0    0    0  0.22734002395E+02 -0.18796547679E+02  0.44876819239E+01  0.29837633261E+02  0.00000000000E+00 0. -1.
</event>
<event>
 5    1  0.6835449E-004  0.9118800E+02  0.7818608E-02  0.1130116E+00
         25   -1    0    0    0    0  0.00000000000E+00  0.00000000000E+00  0.99999998245E-14  0.12500000000E+03  0.12500000000E+03 0.  0.
        -13    1    3    3    0    0 -0.60991815021E+01  0.44474936670E+01  0.37613944548E+02  0.38364048319E+02  0.10566000000E+00 0.  1.
         23    2    1    0    0    0  0.21967361665E+02 -0.17828124512E+02 -0.72628666047E+01  0.95791161723E+02  0.91229328786E+02 0.  0.
         13    1    3    3    0    0  0.28066543168E+02 -0.22275618179E+02 -0.44876811153E+02  0.57427113404E+02  0.10566000000E+00 0. -1.
         22    1    1    0    0    0 -0.21967361665E+02  0.17828124512E+02  0.72628666047E+01  0.29208838277E+02  0.00000000000E+00 0. -1.
</event>
<event>
 5    1  0.6835449E-004  0.9118800E+02  0.7818608E-02  0.1130116E+00
         25   -1    0    0    0    0  0.00000000000E+00  0.00000000000E+00  0.99999998245E-14  0.12500000000E+03  0.12500000000E+03 0.  0.
        -13    1    3    3    0    0  0.20972840588E+02 -0.38765962985E+02  0.43884818983E+02  0.62197656143E+02  0.10566000000E+00 0.  1.
         23    2    1    0    0    0  0.14125911126E+02 -0.19214689031E+02  0.19497913966E+02  0.94195547583E+02  0.89016217038E+02 0.  0.
         13    1    3    3    0    0 -0.68469294624E+01  0.19551273954E+02 -0.24386905017E+02  0.31997891440E+02  0.10566000000E+00 0. -1.
         22    1    1    0    0    0 -0.14125911126E+02  0.19214689031E+02 -0.19497913966E+02  0.30804452417E+02  0.00000000000E+00 0.  1.
</event>
<event>
 5    1  0.6835449E-004  0.9118800E+02  0.7818608E-02  0.1130116E+00
         25   -1    0    0    0    0  0.00000000000E+00  0.00000000000E+00  0.99999998245E-14  0.12500000000E+03  0.12500000000E+03 0.  0.
        -13    1    3    3    0    0 -0.80570015756E+01  0.35255246335E+02 -0.24355971735E+02  0.43601286583E+02  0.10566000000E+00 0. -1.
         23    2    1    0    0    0  0.17258940444E+02 -0.11215277574E+02 -0.19338578196E+02  0.96757583621E+02  0.92544021445E+02 0.  0.
         13    1    3    3    0    0  0.25315942019E+02 -0.46470523910E+02  0.50173935390E+01  0.53156297037E+02  0.10566000000E+00 0.  1.
         22    1    1    0    0    0 -0.17258940444E+02  0.11215277574E+02  0.19338578196E+02  0.28242416379E+02  0.00000000000E+00 0.  1.
</event>
<event>
 5    1  0.6835449E-004  0.9118800E+02  0.7818608E-02  0.1130116E+00
         25   -1    0    0    0    0  0.00000000000E+00  0.00000000000E+00  0.99999998245E-14  0.12500000000E+03  0.12500000000E+03 0.  0.
        -13    1    3    3    0    0 -0.26413375852E+01  0.14508231108E+02  0.58912386126E+02  0.60730106514E+02  0.10566000000E+00 0.  1.
         23    2    1    0    0    0 -0.86303446486E+01  0.93505325667E+01  0.15083440244E+02  0.10526613374E+03  0.10339987154E+03 0.  0.
         13    1    3    3    0    0 -0.59890070634E+01 -0.51576985408E+01 -0.43828945881E+02  0.44536027225E+02  0.10566000000E+00 0. -1.
         22    1    1    0    0    0  0.86303446486E+01 -0.93505325667E+01 -0.15083440244E+02  0.19733866262E+02  0.00000000000E+00 0.  1.
</event>
<event>
 5    1  0.6835449E-004  0.9118800E+02  0.7818608E-02  0.1130116E+00
         25   -1    0    0    0    0  0.00000000000E+00  0.00000000000E+00  0.99999998245E-14  0.12500000000E+03  0.12500000000E+03 0.  0.
        -13    1    3    3    0    0 -0.26559424193E+02  0.47630714157E+02  0.11910933500E+02  0.55820869264E+02  0.10566000000E+00 0. -1.
         23    2    1    0    0    0  0.62585440331E+01  0.30075108855E+02  0.27012959387E+01  0.94162059962E+02  0.88969180003E+02 0.  0.
         13    1    3    3    0    0  0.32817968227E+02 -0.17555605302E+02 -0.92096375617E+01  0.38341190697E+02  0.10566000000E+00 0.  1.
         22    1    1    0    0    0 -0.62585440331E+01 -0.30075108855E+02 -0.27012959387E+01  0.30837940038E+02  0.00000000000E+00 0. -1.
</event>
<event>
 5    1  0.6835449E-004  0.9118800E+02  0.7818608E-02  0.1130116E+00
         25   -1    0    0    0    0  0.00000000000E+00  0.00000000000E+00  0.99999998245E-14  0.12500000000E+03  0.12500000000E+03 0.  0.
        -13    1    3    3    0    0  0.51902784841E+01 -0.52356757017E+02 -0.21447032207E+02  0.56816857979E+02  0.10566000000E+00 0.  1.
         23    2    1    0    0    0  0.20180818209E+02 -0.17339476478E+02 -0.97393519395E+01  0.96666665492E+02  0.92421135965E+02 0.  0.
         13    1    3    3    0    0  0.14990539725E+02  0.35017280539E+02  0.11707680267E+02  0.39849807513E+02  0.10566000000E+00 0. -1.
         22    1    1    0    0    0 -0.20180818209E+02  0.17339476478E+02  0.97393519395E+01  0.28333334508E+02  0.00000000000E+00 0.  1.
</event>
<event>
 5    1  0.6835449E-004  0.9118800E+02  0.7818608E-02  0.1130116E+00
         25   -1    0    0    0    0  0.00000000000E+00  0.00000000000E+00  0.99999998245E-14  0.12500000000E+03  0.12500000000E+03 0.  0.
        -13    1    3    3    0    0  0.77343442175E+01 -0.13383494043E+02  0.35835327336E+02  0.39027168007E+02  0.10566000000E+00 0. -1.
         23    2    1    0    0    0  0.20019800504E+02 -0.23300818231E+01 -0.19607720350E+02  0.96880889224E+02  0.92710421776E+02 0.  0.
         13    1    3    3    0    0  0.12285456287E+02  0.11053412220E+02 -0.55443047686E+02  0.57853721217E+02  0.10566000000E+00 0.  1.
         22    1    1    0    0    0 -0.20019800504E+02  0.23300818231E+01  0.19607720350E+02  0.28119110776E+02  0.00000000000E+00 0.  1.
</event>
<event>
 5    1  0.6835449E-004  0.9118800E+02  0.7818608E-02  0.1130116E+00
         25   -1    0    0    0    0  0.00000000000E+00  0.00000000000E+00  0.99999998245E-14  0.12500000000E+03  0.12500000000E+03 0.  0.
        -13    1    3    3    0    0 -0.29026191395E+02 -0.45667526003E+02  0.99596357251E+01  0.55020434621E+02  0.10566000000E+00 0. -1.
         23    2    1    0    0    0  0.55292955438E+01 -0.27404882244E+02  0.12889053307E+02  0.94214802661E+02  0.89043251655E+02 0.  0.
         13    1    3    3    0    0  0.34555486939E+02  0.18262643758E+02  0.29294175821E+01  0.39194368040E+02  0.10566000000E+00 0.  1.
         22    1    1    0    0    0 -0.55292955438E+01  0.27404882244E+02 -0.12889053307E+02  0.30785197339E+02  0.00000000000E+00 0. -1.
</event>
<event>
 5    1  0.6835449E-004  0.9118800E+02  0.7818608E-02  0.1130116E+00
         25   -1    0    0    0    0  0.00000000000E+00  0.00000000000E+00  0.99999998245E-14  0.12500000000E+03  0.12500000000E+03 0.  0.
        -13    1    3    3    0    0 -0.67422612427E+01  0.35843040817E+02  0.21661268000E+02  0.42419374784E+02  0.10566000000E+00 0. -1.
         23    2    1    0    0    0 -0.25303872840E+02 -0.12257924144E+02  0.83926148465E+01  0.95657561980E+02  0.91046089948E+02 0.  0.
         13    1    3    3    0    0 -0.18561611597E+02 -0.48100964961E+02 -0.13268653153E+02  0.53238187195E+02  0.10566000000E+00 0.  1.
         22    1    1    0    0    0  0.25303872840E+02  0.12257924144E+02 -0.83926148465E+01  0.29342438020E+02  0.00000000000E+00 0.  1.
</event>
<event>
 5    1  0.6835449E-004  0.9118800E+02  0.7818608E-02  0.1130116E+00
         25   -1    0    0    0    0  0.00000000000E+00  0.00000000000E+00  0.99999998245E-14  0.12500000000E+03  0.12500000000E+03 0.  0.
        -13    1    3    3    0    0 -0.53525542304E+02 -0.20513445058E+02  0.18674879362E+02  0.60287207518E+02  0.10566000000E+00 0.  1.
         23    2    1    0    0    0 -0.22128533441E+02 -0.19755497341E+02  0.36184066930E+01  0.95116149270E+02  0.90299708291E+02 0.  0.
         13    1    3    3    0    0  0.31397008863E+02  0.75794771725E+00 -0.15056472669E+02  0.34828941752E+02  0.10566000000E+00 0. -1.
         22    1    1    0    0    0  0.22128533441E+02  0.19755497341E+02 -0.36184066930E+01  0.29883850730E+02  0.00000000000E+00 0.  1.
</event>
<event>
 5    1  0.6835449E-004  0.9118800E+02  0.7818608E-02  0.1130116E+00
         25   -1    0    0    0    0  0.00000000000E+00  0.00000000000E+00  0.99999998245E-14  0.12500000000E+03  0.12500000000E+03 0.  0.
        -13    1    3    3    0    0 -0.22790367544E+02  0.24811703461E+01  0.32318937672E+02  0.39624259682E+02  0.10566000000E+00 0.  1.
         23    2    1    0    0    0 -0.27282307764E+01  0.23093430764E+02 -0.16638645728E+02  0.96406393734E+02  0.92068444288E+02 0.  0.
         13    1    3    3    0    0  0.20062136767E+02  0.20612260417E+02 -0.48957583400E+02  0.56782134053E+02  0.10566000000E+00 0. -1.
         22    1    1    0    0    0  0.27282307764E+01 -0.23093430764E+02  0.16638645728E+02  0.28593606266E+02  0.00000000000E+00 0. -1.
</event>
<event>
 5    1  0.6835449E-004  0.9118800E+02  0.7818608E-02  0.1130116E+00
         25   -1    0    0    0    0  0.00000000000E+00  0.00000000000E+00  0.99999998245E-14  0.12500000000E+03  0.12500000000E+03 0.  0.
        -13    1    3    3    0    0 -0.30287287298E+02 -0.29063107153E+02 -0.36410331915E+02  0.55567143200E+02  0.10566000000E+00 0.  1.
         23    2    1    0    0    0  0.92522979100E+00 -0.26899521247E+02 -0.10804674677E+02  0.95996874507E+02  0.91510756891E+02 0.  0.
         13    1    3    3    0    0  0.31212517089E+02  0.21635859055E+01  0.25605657238E+02  0.40429731307E+02  0.10566000000E+00 0. -1.
         22    1    1    0    0    0 -0.92522979100E+00  0.26899521247E+02  0.10804674677E+02  0.29003125493E+02  0.00000000000E+00 0.  1.
</event>
<event>
 5    1  0.6835449E-004  0.9118800E+02  0.7818608E-02  0.1130116E+00
         25   -1    0    0    0    0  0.00000000000E+00  0.00000000000E+00  0.99999998245E-14  0.12500000000E+03  0.12500000000E+03 0.  0.
        -13    1    3    3    0    0 -0.11962581521E+02 -0.42436558998E+01  0.27753173584E+02  0.30518220460E+02  0.10566000000E+00 0.  1.
         23    2    1    0    0    0  0.20327284792E+02  0.16515307098E+02 -0.20186151729E+02  0.91932877398E+02  0.85780063822E+02 0.  0.
         13    1    3    3    0    0  0.32289866313E+02  0.20758962998E+02 -0.47939325313E+02  0.61414656938E+02  0.10566000000E+00 0. -1.
         22    1    1    0    0    0 -0.20327284792E+02 -0.16515307098E+02  0.20186151729E+02  0.33067122602E+02  0.00000000000E+00 0. -1.
</event>
<event>
 5    1  0.6835449E-004  0.9118800E+02  0.7818608E-02  0.1130116E+00
         25   -1    0    0    0    0  0.00000000000E+00  0.00000000000E+00  0.99999998245E-14  0.12500000000E+03  0.12500000000E+03 0.  0.
        -13    1    3    3    0    0 -0.56251650495E+02 -0.25930484530E+01 -0.47567861831E+00  0.56313493213E+02  0.10566000000E+00 0. -1.
         23    2    1    0    0    0 -0.25093275671E+02  0.17642291177E+02  0.51705671361E+01  0.93892803302E+02  0.88590071822E+02 0.  0.
         13    1    3    3    0    0  0.31158374824E+02  0.20235339630E+02  0.56462457544E+01  0.37579310089E+02  0.10566000000E+00 0.  1.
         22    1    1    0    0    0  0.25093275671E+02 -0.17642291177E+02 -0.51705671361E+01  0.31107196698E+02  0.00000000000E+00 0. -1.
</event>
<event>
 5    1  0.6835449E-004  0.9118800E+02  0.7818608E-02  0.1130116E+00
         25   -1    0    0    0    0  0.00000000000E+00  0.00000000000E+00  0.99999998245E-14  0.12500000000E+03  0.12500000000E+03 0.  0.
        -13    1    3    3    0    0 -0.39327646464E+02  0.38594248485E+02 -0.13255486962E+02  0.56673617241E+02  0.10566000000E+00 0.  1.
         23    2    1    0    0    0 -0.16964035957E+01  0.25662455833E+02 -0.12337058569E+02  0.96475581712E+02  0.92162331936E+02 0.  0.
         13    1    3    3    0    0  0.37631242868E+02 -0.12931792652E+02  0.91842839326E+00  0.39801964471E+02  0.10566000000E+00 0. -1.
         22    1    1    0    0    0  0.16964035957E+01 -0.25662455833E+02  0.12337058569E+02  0.28524418288E+02  0.00000000000E+00 0.  1.
</event>
<event>
 5    1  0.6835449E-004  0.9118800E+02  0.7818608E-02  0.1130116E+00
         25   -1    0    0    0    0  0.00000000000E+00  0.00000000000E+00  0.99999998245E-14  0.12500000000E+03  0.12500000000E+03 0.  0.
        -13    1    3    3    0    0 -0.35358598050E+02  0.11316508618E+02 -0.81910889816E+01  0.38018402467E+02  0.10566000000E+00 0.  1.
         23    2    1    0    0    0  0.16036525424E+02  0.15878878919E+02  0.18231779574E+02  0.95987817562E+02  0.91498384633E+02 0.  0.
         13    1    3    3    0    0  0.51395123474E+02  0.45623703013E+01  0.26422868556E+02  0.57969415095E+02  0.10566000000E+00 0. -1.
         22    1    1    0    0    0 -0.16036525424E+02 -0.15878878919E+02 -0.18231779574E+02  0.29012182438E+02  0.00000000000E+00 0. -1.
</event>
<event>
 5    1  0.6835449E-004  0.9118800E+02  0.7818608E-02  0.1130116E+00
         25   -1    0    0    0    0  0.00000000000E+00  0.00000000000E+00  0.99999998245E-14  0.12500000000E+03  0.12500000000E+03 0.  0.
        -13    1    3    3    0    0  0.20980376374E+02  0.35421359543E+02 -0.24265669113E+02  0.47787893511E+02  0.10566000000E+00 0.  1.
         23    2    1    0    0    0 -0.16850088570E+02  0.20624034521E+02  0.50631487722E+01  0.97890744012E+02  0.94062139052E+02 0.  0.
         13    1    3    3    0    0 -0.37830464944E+02 -0.14797325023E+02  0.29328817885E+02  0.50102850501E+02  0.10566000000E+00 0. -1.
         22    1    1    0    0    0  0.16850088570E+02 -0.20624034521E+02 -0.50631487722E+01  0.27109255988E+02  0.00000000000E+00 0.  1.
</event>
<event>
 5    1  0.6835449E-004  0.9118800E+02  0.7818608E-02  0.1130116E+00
         25   -1    0    0    0    0  0.00000000000E+00  0.00000000000E+00  0.99999998245E-14  0.12500000000E+03  0.12500000000E+03 0.  0.
        -13    1    3    3    0    0 -0.69165806516E+01 -0.60365681865E+01  0.42296402883E+02  0.43281359779E+02  0.10566000000E+00 0. -1.
         23    2    1    0    0    0 -0.94726183487E+01  0.16371656208E+01 -0.18253884761E+02  0.10436955845E+03  0.10231026152E+03 0.  0.
         13    1    3    3    0    0 -0.25560376971E+01  0.76737338072E+01 -0.60550287644E+02  0.61088198672E+02  0.10566000000E+00 0.  1.
         22    1    1    0    0    0  0.94726183487E+01 -0.16371656208E+01  0.18253884761E+02  0.20630441549E+02  0.00000000000E+00 0.  1.
</event>
<event>
 5    1  0.6835449E-004  0.9118800E+02  0.7818608E-02  0.1130116E+00
         25   -1    0    0    0    0  0.00000000000E+00  0.00000000000E+00  0.99999998245E-14  0.12500000000E+03  0.12500000000E+03 0.  0.
        -13    1    3    3    0    0 -0.10693259766E+02  0.11664003397E+02  0.55085318108E+02  0.57313159176E+02  0.10566000000E+00 0.  1.
         23    2    1    0    0    0 -0.14085614009E+02 -0.95679052014E+01  0.17710404608E+02  0.10043156978E+03  0.97380144002E+02 0.  0.
         13    1    3    3    0    0 -0.33923542433E+01 -0.21231908598E+02 -0.37374913501E+02  0.43118410607E+02  0.10566000000E+00 0. -1.
         22    1    1    0    0    0  0.14085614009E+02  0.95679052014E+01 -0.17710404608E+02  0.24568430217E+02  0.00000000000E+00 0.  1.
</event>
<event>
 5    1  0.6835449E-004  0.9118800E+02  0.7818608E-02  0.1130116E+00
         25   -1    0    0    0    0  0.00000000000E+00  0.00000000000E+00  0.99999998245E-14  0.12500000000E+03  0.12500000000E+03 0.  0.
        -13    1    3    3    0    0  0.62116421395E+01  0.10808099087E+01  0.46864356862E+02  0.47286697455E+02  0.10566000000E+00 0. -1.
         23    2    1    0    0    0  0.19063874065E+02 -0.20701951865E+02  0.46815423657E+01  0.96470735300E+02  0.92155758502E+02 0.  0.
         13    1    3    3    0    0  0.12852231925E+02 -0.21782761774E+02 -0.42182814496E+02  0.49184037845E+02  0.10566000000E+00 0.  1.
         22    1    1    0    0    0 -0.19063874065E+02  0.20701951865E+02 -0.46815423657E+01  0.28529264700E+02  0.00000000000E+00 0. -1.
</event>
<event>
 5    1  0.6835449E-004  0.9118800E+02  0.7818608E-02  0.1130116E+00
         25   -1    0    0    0    0  0.00000000000E+00  0.00000000000E+00  0.99999998245E-14  0.12500000000E+03  0.12500000000E+03 0.  0.
        -13    1    3    3    0    0 -0.26483248867E+02  0.34500629093E+02 -0.79809122789E+01  0.44219475384E+02  0.10566000000E+00 0.  1.
         23    2    1    0    0    0 -0.11646366212E+02  0.37357659797E+02  0.23652385191E+02  0.79276177799E+02  0.64761442616E+02 0.  0.
         13    1    3    3    0    0  0.14836882655E+02  0.28570307036E+01  0.31633297470E+02  0.35056702415E+02  0.10566000000E+00 0. -1.
         22    1    1    0    0    0  0.11646366212E+02 -0.37357659797E+02 -0.23652385191E+02  0.45723822201E+02  0.00000000000E+00 0.  1.
</event>
<event>
 5    1  0.6835449E-004  0.9118800E+02  0.7818608E-02  0.1130116E+00
         25   -1    0    0    0    0  0.00000000000E+00  0.00000000000E+00  0.99999998245E-14  0.12500000000E+03  0.12500000000E+03 0.  0.
        -13    1    3    3    0    0  0.42717479903E+01  0.23664173831E+02 -0.32048930691E+02  0.40067269392E+02  0.10566000000E+00 0.  1.
         23    2    1    0    0    0 -0.46858613189E+01 -0.26613882750E+02 -0.63407546342E+01  0.97242816773E+02  0.93197125456E+02 0.  0.
         13    1    3    3    0    0 -0.89576093092E+01 -0.50278056582E+02  0.25708176057E+02  0.57175547382E+02  0.10566000000E+00 0. -1.
         22    1    1    0    0    0  0.46858613189E+01  0.26613882750E+02  0.63407546342E+01  0.27757183227E+02  0.00000000000E+00 0. -1.
</event>
<event>
 5    1  0.6835449E-004  0.9118800E+02  0.7818608E-02  0.1130116E+00
         25   -1    0    0    0    0  0.00000000000E+00  0.00000000000E+00  0.99999998245E-14  0.12500000000E+03  0.12500000000E+03 0.  0.
        -13    1    3    3    0    0 -0.25054600003E+02 -0.92530087991E+01  0.20201309402E+02  0.33488135492E+02  0.10566000000E+00 0. -1.
         23    2    1    0    0    0  0.25777552713E+02  0.48664047954E+01 -0.12897285461E+02  0.95768098048E+02  0.91197722077E+02 0.  0.
         13    1    3    3    0    0  0.50832152716E+02  0.14119413595E+02 -0.33098594863E+02  0.62279962555E+02  0.10566000000E+00 0.  1.
         22    1    1    0    0    0 -0.25777552713E+02 -0.48664047954E+01  0.12897285461E+02  0.29231901952E+02  0.00000000000E+00 0.  1.
</event>
<event>
 5    1  0.6835449E-004  0.9118800E+02  0.7818608E-02  0.1130116E+00
         25   -1    0    0    0    0  0.00000000000E+00  0.00000000000E+00  0.99999998245E-14  0.12500000000E+03  0.12500000000E+03 0.  0.
        -13    1    3    3    0    0 -0.11686914237E+02 -0.14806328878E+02  0.35457485397E+02  0.40162865609E+02  0.10566000000E+00 0.  1.
         23    2    1    0    0    0  0.20444050644E+02 -0.18919259639E+02 -0.94952739151E+01  0.95571139697E+02  0.90927360702E+02 0.  0.
         13    1    3    3    0    0  0.32130964881E+02 -0.41129307604E+01 -0.44952759312E+02  0.55408274088E+02  0.10566000000E+00 0. -1.
         22    1    1    0    0    0 -0.20444050644E+02  0.18919259639E+02  0.94952739151E+01  0.29428860303E+02  0.00000000000E+00 0. -1.
</event>
<event>
 5    1  0.6835449E-004  0.9118800E+02  0.7818608E-02  0.1130116E+00
         25   -1    0    0    0    0  0.00000000000E+00  0.00000000000E+00  0.99999998245E-14  0.12500000000E+03  0.12500000000E+03 0.  0.
        -13    1    3    3    0    0 -0.61433604122E+00  0.11946656959E+02  0.23864178778E+02  0.26694760049E+02  0.10566000000E+00 0. -1.
         23    2    1    0    0    0 -0.34591366072E+02 -0.26338079587E+02  0.16899441260E+02  0.78354012413E+02  0.62956358721E+02 0.  0.
         13    1    3    3    0    0 -0.33977030031E+02 -0.38284736546E+02 -0.69647375187E+01  0.51659252364E+02  0.10566000000E+00 0.  1.
         22    1    1    0    0    0  0.34591366072E+02  0.26338079587E+02 -0.16899441260E+02  0.46645987587E+02  0.00000000000E+00 0.  1.
</event>
<event>
 5    1  0.6835449E-004  0.9118800E+02  0.7818608E-02  0.1130116E+00
         25   -1    0    0    0    0  0.00000000000E+00  0.00000000000E+00  0.99999998245E-14  0.12500000000E+03  0.12500000000E+03 0.  0.
        -13    1    3    3    0    0  0.49759729458E+02 -0.13543978055E+02  0.33643570004E+02  0.61574109689E+02  0.10566000000E+00 0. -1.
         23    2    1    0    0    0  0.17868568187E+02 -0.10490887090E+02  0.19328109188E+02  0.96664152637E+02  0.92417737255E+02 0.  0.
         13    1    3    3    0    0 -0.31891161271E+02  0.30530909656E+01 -0.14315460817E+02  0.35090042948E+02  0.10566000000E+00 0.  1.
         22    1    1    0    0    0 -0.17868568187E+02  0.10490887090E+02 -0.19328109188E+02  0.28335847363E+02  0.00000000000E+00 0. -1.
</event>
<event>
 5    1  0.6835449E-004  0.9118800E+02  0.7818608E-02  0.1130116E+00
         25   -1    0    0    0    0  0.00000000000E+00  0.00000000000E+00  0.99999998245E-14  0.12500000000E+03  0.12500000000E+03 0.  0.
        -13    1    3    3    0    0 -0.25743303496E+02  0.68063062362E+01  0.41316509500E+02  0.49153927623E+02  0.10566000000E+00 0.  1.
         23    2    1    0    0    0 -0.24164198981E+02 -0.14240971486E+02 -0.15224649165E+01  0.96910292264E+02  0.92750056959E+02 0.  0.
         13    1    3    3    0    0  0.15791045147E+01 -0.21047277723E+02 -0.42838974417E+02  0.47756364641E+02  0.10566000000E+00 0. -1.
         22    1    1    0    0    0  0.24164198981E+02  0.14240971486E+02  0.15224649165E+01  0.28089707736E+02  0.00000000000E+00 0.  1.
</event>
<event>
 5    1  0.6835449E-004  0.9118800E+02  0.7818608E-02  0.1130116E+00
         25   -1    0    0    0    0  0.00000000000E+00  0.00000000000E+00  0.99999998245E-14  0.12500000000E+03  0.12500000000E+03 0.  0.
        -13    1    3    3    0    0  0.39908135650E+02 -0.16164666715E+02 -0.43398709094E+02  0.61134399941E+02  0.10566000000E+00 0. -1.
         23    2    1    0    0    0  0.11663464549E+02 -0.88111826794E+01 -0.26163969500E+02  0.95029570482E+02  0.90179779444E+02 0.  0.
         13    1    3    3    0    0 -0.28244671101E+02  0.73534840357E+01  0.17234739594E+02  0.33895170541E+02  0.10566000000E+00 0.  1.
         22    1    1    0    0    0 -0.11663464549E+02  0.88111826794E+01  0.26163969500E+02  0.29970429518E+02  0.00000000000E+00 0. -1.
</event>
<event>
 5    1  0.6835449E-004  0.9118800E+02  0.7818608E-02  0.1130116E+00
         25   -1    0    0    0    0  0.00000000000E+00  0.00000000000E+00  0.99999998245E-14  0.12500000000E+03  0.12500000000E+03 0.  0.
        -13    1    3    3    0    0  0.20145510170E+02 -0.25883580197E+02 -0.85490494133E+01  0.33895408446E+02  0.10566000000E+00 0. -1.
         23    2    1    0    0    0 -0.27912624074E+02  0.76384538153E+01  0.83541967263E+01  0.94879356542E+02  0.89971323962E+02 0.  0.
         13    1    3    3    0    0 -0.48058134244E+02  0.33522034012E+02  0.16903246140E+02  0.60983948096E+02  0.10566000000E+00 0.  1.
         22    1    1    0    0    0  0.27912624074E+02 -0.76384538153E+01 -0.83541967263E+01  0.30120643458E+02  0.00000000000E+00 0.  1.
</event>
<event>
 5    1  0.6835449E-004  0.9118800E+02  0.7818608E-02  0.1130116E+00
         25   -1    0    0    0    0  0.00000000000E+00  0.00000000000E+00  0.99999998245E-14  0.12500000000E+03  0.12500000000E+03 0.  0.
        -13    1    3    3    0    0 -0.15081108050E+02  0.60787810887E+01 -0.30027557146E+02  0.34147573146E+02  0.10566000000E+00 0.  1.
         23    2    1    0    0    0  0.12372128518E+02 -0.21612655980E+02  0.16705832139E+02  0.95012314360E+02  0.90155857214E+02 0.  0.
         13    1    3    3    0    0  0.27453236568E+02 -0.27691437069E+02  0.46733389285E+02  0.60864741215E+02  0.10566000000E+00 0. -1.
         22    1    1    0    0    0 -0.12372128518E+02  0.21612655980E+02 -0.16705832139E+02  0.29987685640E+02  0.00000000000E+00 0. -1.
</event>
<event>
 5    1  0.6835449E-004  0.9118800E+02  0.7818608E-02  0.1130116E+00
         25   -1    0    0    0    0  0.00000000000E+00  0.00000000000E+00  0.99999998245E-14  0.12500000000E+03  0.12500000000E+03 0.  0.
        -13    1    3    3    0    0  0.27753489088E+02 -0.28621090777E+02  0.21324891953E+02  0.45212666087E+02  0.10566000000E+00 0.  1.
         23    2    1    0    0    0 -0.29441120440E+01 -0.20128392299E+02  0.38541880091E+02  0.81419081088E+02  0.68773325294E+02 0.  0.
         13    1    3    3    0    0 -0.30697601132E+02  0.84926984784E+01  0.17216988138E+02  0.36206415001E+02  0.10566000000E+00 0. -1.
         22    1    1    0    0    0  0.29441120440E+01  0.20128392299E+02 -0.38541880091E+02  0.43580918912E+02  0.00000000000E+00 0.  1.
</event>
<event>
 5    1  0.6835449E-004  0.9118800E+02  0.7818608E-02  0.1130116E+00
         25   -1    0    0    0    0  0.00000000000E+00  0.00000000000E+00  0.99999998245E-14  0.12500000000E+03  0.12500000000E+03 0.  0.
        -13    1    3    3    0    0 -0.42682613741E+01 -0.16562090258E+02 -0.52471082767E+02  0.55188282993E+02  0.10566000000E+00 0. -1.
         23    2    1    0    0    0  0.90899440292E+01 -0.23129464255E+02 -0.13915334210E+02  0.96517799850E+02  0.92219574725E+02 0.  0.
         13    1    3    3    0    0  0.13358205403E+02 -0.65673739978E+01  0.38555748557E+02  0.41329516857E+02  0.10566000000E+00 0.  1.
         22    1    1    0    0    0 -0.90899440292E+01  0.23129464255E+02  0.13915334210E+02  0.28482200150E+02  0.00000000000E+00 0. -1.
</event>
<event>
 5    1  0.6835449E-004  0.9118800E+02  0.7818608E-02  0.1130116E+00
         25   -1    0    0    0    0  0.00000000000E+00  0.00000000000E+00  0.99999998245E-14  0.12500000000E+03  0.12500000000E+03 0.  0.
        -13    1    3    3    0    0  0.31848481552E+02  0.18022070900E+02  0.39925482367E+02  0.54158804667E+02  0.10566000000E+00 0. -1.
         23    2    1    0    0    0 -0.32113937329E+01  0.22882584387E+02  0.14950643916E+02  0.97478236404E+02  0.93512347319E+02 0.  0.
         13    1    3    3    0    0 -0.35059875285E+02  0.48605134869E+01 -0.24974838451E+02  0.43319431737E+02  0.10566000000E+00 0.  1.
         22    1    1    0    0    0  0.32113937329E+01 -0.22882584387E+02 -0.14950643916E+02  0.27521763596E+02  0.00000000000E+00 0. -1.
</event>
<event>
 5    1  0.6835449E-004  0.9118800E+02  0.7818608E-02  0.1130116E+00
         25   -1    0    0    0    0  0.00000000000E+00  0.00000000000E+00  0.99999998245E-14  0.12500000000E+03  0.12500000000E+03 0.  0.
        -13    1    3    3    0    0 -0.46072122912E+02 -0.19320541538E+01 -0.94409345762E+01  0.47069265478E+02  0.10566000000E+00 0. -1.
         23    2    1    0    0    0 -0.17431341169E+01 -0.93457650893E-01 -0.29278526598E+02  0.95669480560E+02  0.91062451866E+02 0.  0.
         13    1    3    3    0    0  0.44328988795E+02  0.18385965029E+01 -0.19837592022E+02  0.48600215082E+02  0.10566000000E+00 0.  1.
         22    1    1    0    0    0  0.17431341169E+01  0.93457650893E-01  0.29278526598E+02  0.29330519440E+02  0.00000000000E+00 0. -1.
</event>
<event>
 5    1  0.6835449E-004  0.9118800E+02  0.7818608E-02  0.1130116E+00
         25   -1    0    0    0    0  0.00000000000E+00  0.00000000000E+00  0.99999998245E-14  0.12500000000E+03  0.12500000000E+03 0.  0.
        -13    1    3    3    0    0  0.10209838248E+02 -0.17063942147E+02  0.31538256651E+02  0.37283933742E+02  0.10566000000E+00 0.  1.
         23    2    1    0    0    0 -0.23156878869E+02  0.38995641820E+01 -0.14122588612E+02  0.97597533891E+02  0.93671679139E+02 0.  0.
         13    1    3    3    0    0 -0.33366717117E+02  0.20963506329E+02 -0.45660845263E+02  0.60313600149E+02  0.10566000000E+00 0. -1.
         22    1    1    0    0    0  0.23156878869E+02 -0.38995641820E+01  0.14122588612E+02  0.27402466109E+02  0.00000000000E+00 0. -1.
</event>
<event>
 5    1  0.6835449E-004  0.9118800E+02  0.7818608E-02  0.1130116E+00
         25   -1    0    0    0    0  0.00000000000E+00  0.00000000000E+00  0.99999998245E-14  0.12500000000E+03  0.12500000000E+03 0.  0.
        -13    1    3    3    0    0  0.10634150439E+02  0.18397307121E+02 -0.29133263388E+02  0.36059731898E+02  0.10566000000E+00 0.  1.
         23    2    1    0    0    0  0.16884929408E+02 -0.17990954483E+02  0.16917390681E+02  0.95083894107E+02  0.90255047099E+02 0.  0.
         13    1    3    3    0    0  0.62507789691E+01 -0.36388261604E+02  0.46050654070E+02  0.59024162209E+02  0.10566000000E+00 0. -1.
         22    1    1    0    0    0 -0.16884929408E+02  0.17990954483E+02 -0.16917390681E+02  0.29916105893E+02  0.00000000000E+00 0. -1.
</event>
<event>
 5    1  0.6835449E-004  0.9118800E+02  0.7818608E-02  0.1130116E+00
         25   -1    0    0    0    0  0.00000000000E+00  0.00000000000E+00  0.99999998245E-14  0.12500000000E+03  0.12500000000E+03 0.  0.
        -13    1    3    3    0    0 -0.93977356007E+01 -0.59603353408E+02 -0.64725934037E+01  0.60685935778E+02  0.10566000000E+00 0. -1.
         23    2    1    0    0    0  0.46935258834E+01 -0.28102246942E+02 -0.85371013545E+01  0.95256974466E+02  0.90494439699E+02 0.  0.
         13    1    3    3    0    0  0.14091261484E+02  0.31501106466E+02 -0.20645079508E+01  0.34571038687E+02  0.10566000000E+00 0.  1.
         22    1    1    0    0    0 -0.46935258834E+01  0.28102246942E+02  0.85371013545E+01  0.29743025534E+02  0.00000000000E+00 0. -1.
</event>
<event>
 5    1  0.6835449E-004  0.9118800E+02  0.7818608E-02  0.1130116E+00
         25   -1    0    0    0    0  0.00000000000E+00  0.00000000000E+00  0.99999998245E-14  0.12500000000E+03  0.12500000000E+03 0.  0.
        -13    1    3    3    0    0  0.20791327069E+02 -0.35731972492E+02 -0.23128587365E+01  0.41405478128E+02  0.10566000000E+00 0.  1.
         23    2    1    0    0    0 -0.26353574686E+02 -0.19667627652E+02 -0.68230900475E+01  0.91416059880E+02  0.85023614191E+02 0.  0.
         13    1    3    3    0    0 -0.47144901755E+02  0.16064344841E+02 -0.45102313110E+01  0.50010581752E+02  0.10566000000E+00 0. -1.
         22    1    1    0    0    0  0.26353574686E+02  0.19667627652E+02  0.68230900475E+01  0.33583940120E+02  0.00000000000E+00 0.  1.
</event>
<event>
 5    1  0.6835449E-004  0.9118800E+02  0.7818608E-02  0.1130116E+00
         25   -1    0    0    0    0  0.00000000000E+00  0.00000000000E+00  0.99999998245E-14  0.12500000000E+03  0.12500000000E+03 0.  0.
        -13    1    3    3    0    0  0.93522461625E+01  0.34022594651E+02  0.47257536005E+02  0.58977006776E+02  0.10566000000E+00 0. -1.
         23    2    1    0    0    0  0.18803712000E+02  0.14613401652E+02  0.19015891531E+02  0.94524842518E+02  0.89477430839E+02 0.  0.
         13    1    3    3    0    0  0.94514658374E+01 -0.19409192999E+02 -0.28241644474E+02  0.35547835742E+02  0.10566000000E+00 0.  1.
         22    1    1    0    0    0 -0.18803712000E+02 -0.14613401652E+02 -0.19015891531E+02  0.30475157482E+02  0.00000000000E+00 0. -1.
</event>
<event>
 5    1  0.6835449E-004  0.9118800E+02  0.7818608E-02  0.1130116E+00
         25   -1    0    0    0    0  0.00000000000E+00  0.00000000000E+00  0.99999998245E-14  0.12500000000E+03  0.12500000000E+03 0.  0.
        -13    1    3    3    0    0  0.44328301077E+02  0.17905705656E+02 -0.28568844366E+02  0.55693829136E+02  0.10566000000E+00 0. -1.
         23    2    1    0    0    0  0.28428590769E+02  0.18538478641E+01  0.49177476408E+01  0.96089694452E+02  0.91637457478E+02 0.  0.
         13    1    3    3    0    0 -0.15899710307E+02 -0.16051857792E+02  0.33486592006E+02  0.40395865316E+02  0.10566000000E+00 0.  1.
         22    1    1    0    0    0 -0.28428590769E+02 -0.18538478641E+01 -0.49177476408E+01  0.28910305548E+02  0.00000000000E+00 0. -1.
</event>
<event>
 5    1  0.6835449E-004  0.9118800E+02  0.7818608E-02  0.1130116E+00
         25   -1    0    0    0    0  0.00000000000E+00  0.00000000000E+00  0.99999998245E-14  0.12500000000E+03  0.12500000000E+03 0.  0.
        -13    1    3    3    0    0  0.77686587208E+01 -0.13769821302E+02 -0.30525925890E+02  0.34377366864E+02  0.10566000000E+00 0. -1.
         23    2    1    0    0    0  0.53366069480E+01  0.17386337866E+02  0.22586348549E+02  0.96001599029E+02  0.91517210170E+02 0.  0.
         13    1    3    3    0    0 -0.24320517729E+01  0.31156159167E+02  0.53112274439E+02  0.61624232166E+02  0.10566000000E+00 0.  1.
         22    1    1    0    0    0 -0.53366069480E+01 -0.17386337866E+02 -0.22586348549E+02  0.28998400971E+02  0.00000000000E+00 0.  1.
</event>
<event>
 5    1  0.6835449E-004  0.9118800E+02  0.7818608E-02  0.1130116E+00
         25   -1    0    0    0    0  0.00000000000E+00  0.00000000000E+00  0.99999998245E-14  0.12500000000E+03  0.12500000000E+03 0.  0.
        -13    1    3    3    0    0  0.37662834104E+02 -0.20814764517E+02  0.12120086285E+02  0.44706276408E+02  0.10566000000E+00 0.  1.
         23    2    1    0    0    0 -0.86306413226E+01 -0.59636942183E+01  0.27393581733E+02  0.95666368474E+02  0.91058179854E+02 0.  0.
         13    1    3    3    0    0 -0.46293475427E+02  0.14851070299E+02  0.15273495448E+02  0.50960092066E+02  0.10566000000E+00 0. -1.
         22    1    1    0    0    0  0.86306413226E+01  0.59636942183E+01 -0.27393581733E+02  0.29333631526E+02  0.00000000000E+00 0. -1.
</event>
<event>
 5    1  0.6835449E-004  0.9118800E+02  0.7818608E-02  0.1130116E+00
         25   -1    0    0    0    0  0.00000000000E+00  0.00000000000E+00  0.99999998245E-14  0.12500000000E+03  0.12500000000E+03 0.  0.
        -13    1    3    3    0    0 -0.29257933778E+02 -0.25446041211E+02 -0.27769355523E+02  0.47693563218E+02  0.10566000000E+00 0.  1.
         23    2    1    0    0    0  0.31410311766E+00 -0.27224193877E+02  0.10263868658E+02  0.95903567352E+02  0.91383214203E+02 0.  0.
         13    1    3    3    0    0  0.29572036895E+02 -0.17781526654E+01  0.38033224180E+02  0.48210004134E+02  0.10566000000E+00 0. -1.
         22    1    1    0    0    0 -0.31410311766E+00  0.27224193877E+02 -0.10263868658E+02  0.29096432648E+02  0.00000000000E+00 0. -1.
</event>
<event>
 5    1  0.6835449E-004  0.9118800E+02  0.7818608E-02  0.1130116E+00
         25   -1    0    0    0    0  0.00000000000E+00  0.00000000000E+00  0.99999998245E-14  0.12500000000E+03  0.12500000000E+03 0.  0.
        -13    1    3    3    0    0  0.31715714214E+02  0.15251727565E+02  0.44635511675E+01  0.35474443969E+02  0.10566000000E+00 0. -1.
         23    2    1    0    0    0 -0.17463381379E+02 -0.14433219741E+02  0.19779305487E+02  0.94924953087E+02  0.90034650395E+02 0.  0.
         13    1    3    3    0    0 -0.49179095593E+02 -0.29684947306E+02  0.15315754320E+02  0.59450509118E+02  0.10566000000E+00 0.  1.
         22    1    1    0    0    0  0.17463381379E+02  0.14433219741E+02 -0.19779305487E+02  0.30075046913E+02  0.00000000000E+00 0.  1.
</event>
<event>
 5    1  0.6835449E-004  0.9118800E+02  0.7818608E-02  0.1130116E+00
         25   -1    0    0    0    0  0.00000000000E+00  0.00000000000E+00  0.99999998245E-14  0.12500000000E+03  0.12500000000E+03 0.  0.
        -13    1    3    3    0    0 -0.33245330613E+02  0.33078773391E+02 -0.39160321823E+02  0.61098275147E+02  0.10566000000E+00 0.  1.
         23    2    1    0    0    0 -0.13993046898E+02  0.22720121482E+02 -0.12622804616E+02  0.95481455354E+02  0.90803985807E+02 0.  0.
         13    1    3    3    0    0  0.19252283715E+02 -0.10358651910E+02  0.26537517207E+02  0.34383180207E+02  0.10566000000E+00 0. -1.
         22    1    1    0    0    0  0.13993046898E+02 -0.22720121482E+02  0.12622804616E+02  0.29518544646E+02  0.00000000000E+00 0.  1.
</event>
<event>
 5    1  0.6835449E-004  0.9118800E+02  0.7818608E-02  0.1130116E+00
         25   -1    0    0    0    0  0.00000000000E+00  0.00000000000E+00  0.99999998245E-14  0.12500000000E+03  0.12500000000E+03 0.  0.
        -13    1    3    3    0    0 -0.25902400632E+02  0.17412787591E+02  0.18047525798E+02  0.36053625084E+02  0.10566000000E+00 0.  1.
         23    2    1    0    0    0 -0.46508907346E+00  0.35070060138E+02 -0.19617527741E+02  0.84813275567E+02  0.74688144252E+02 0.  0.
         13    1    3    3    0    0  0.25437311559E+02  0.17657272547E+02 -0.37665053539E+02  0.48759650484E+02  0.10566000000E+00 0. -1.
         22    1    1    0    0    0  0.46508907346E+00 -0.35070060138E+02  0.19617527741E+02  0.40186724433E+02  0.00000000000E+00 0. -1.
</event>
<event>
 5    1  0.6835449E-004  0.9118800E+02  0.7818608E-02  0.1130116E+00
         25   -1    0    0    0    0  0.00000000000E+00  0.00000000000E+00  0.99999998245E-14  0.12500000000E+03  0.12500000000E+03 0.  0.
        -13    1    3    3    0    0 -0.18422700837E+02 -0.29879121024E+02 -0.30406695357E+02  0.46440672539E+02  0.10566000000E+00 0.  1.
         23    2    1    0    0    0 -0.21299839791E+02 -0.11159793209E+02  0.15697576721E+02  0.96283487772E+02  0.91901425142E+02 0.  0.
         13    1    3    3    0    0 -0.28771389547E+01  0.18719327816E+02  0.46104272079E+02  0.49842815233E+02  0.10566000000E+00 0. -1.
         22    1    1    0    0    0  0.21299839791E+02  0.11159793209E+02 -0.15697576721E+02  0.28716512228E+02  0.00000000000E+00 0.  1.
</event>
<event>
 5    1  0.6835449E-004  0.9118800E+02  0.7818608E-02  0.1130116E+00
         25   -1    0    0    0    0  0.00000000000E+00  0.00000000000E+00  0.99999998245E-14  0.12500000000E+03  0.12500000000E+03 0.  0.
        -13    1    3    3    0    0 -0.13507637084E+02 -0.27322457555E+02 -0.15009329567E+02  0.33974462241E+02  0.10566000000E+00 0. -1.
         23    2    1    0    0    0  0.57620825622E+00  0.23131923029E+02  0.17819451805E+02  0.95794679566E+02  0.91234148714E+02 0.  0.
         13    1    3    3    0    0  0.14083845340E+02  0.50454380585E+02  0.32828781372E+02  0.61820217326E+02  0.10566000000E+00 0.  1.
         22    1    1    0    0    0 -0.57620825622E+00 -0.23131923029E+02 -0.17819451805E+02  0.29205320434E+02  0.00000000000E+00 0.  1.
</event>
<event>
 5    1  0.6835449E-004  0.9118800E+02  0.7818608E-02  0.1130116E+00
         25   -1    0    0    0    0  0.00000000000E+00  0.00000000000E+00  0.99999998245E-14  0.12500000000E+03  0.12500000000E+03 0.  0.
        -13    1    3    3    0    0  0.19738830717E+02  0.30895111697E+02  0.61050169376E+01  0.37167348045E+02  0.10566000000E+00 0.  1.
         23    2    1    0    0    0 -0.13416434215E+02 -0.25455958037E+01 -0.27008640106E+02  0.94735376999E+02  0.89771065772E+02 0.  0.
         13    1    3    3    0    0 -0.33155264932E+02 -0.33440707501E+02 -0.33113657043E+02  0.57568028954E+02  0.10566000000E+00 0. -1.
         22    1    1    0    0    0  0.13416434215E+02  0.25455958037E+01  0.27008640106E+02  0.30264623001E+02  0.00000000000E+00 0. -1.
</event>
<event>
 5    1  0.6835449E-004  0.9118800E+02  0.7818608E-02  0.1130116E+00
         25   -1    0    0    0    0  0.00000000000E+00  0.00000000000E+00  0.99999998245E-14  0.12500000000E+03  0.12500000000E+03 0.  0.
        -13    1    3    3    0    0 -0.30540733024E+02 -0.22817656701E+02  0.18105323293E+02  0.42204214560E+02  0.10566000000E+00 0. -1.
         23    2    1    0    0    0  0.21496242977E+02 -0.93769635938E+00  0.15060592554E+02  0.98736162034E+02  0.95178991950E+02 0.  0.
         13    1    3    3    0    0  0.52036976002E+02  0.21879960342E+02 -0.30447307387E+01  0.56531947475E+02  0.10566000000E+00 0.  1.
         22    1    1    0    0    0 -0.21496242977E+02  0.93769635938E+00 -0.15060592554E+02  0.26263837966E+02  0.00000000000E+00 0.  1.
</event>
<event>
 5    1  0.6835449E-004  0.9118800E+02  0.7818608E-02  0.1130116E+00
         25   -1    0    0    0    0  0.00000000000E+00  0.00000000000E+00  0.99999998245E-14  0.12500000000E+03  0.12500000000E+03 0.  0.
        -13    1    3    3    0    0 -0.12113762480E+02  0.36348001309E+02  0.17335102969E+02  0.42052793005E+02  0.10566000000E+00 0.  1.
         23    2    1    0    0    0 -0.19295623856E+02  0.14086281800E+01 -0.22367952469E+02  0.95425845219E+02  0.90727401069E+02 0.  0.
         13    1    3    3    0    0 -0.71818613763E+01 -0.34939373129E+02 -0.39703055438E+02  0.53373052214E+02  0.10566000000E+00 0. -1.
         22    1    1    0    0    0  0.19295623856E+02 -0.14086281800E+01  0.22367952469E+02  0.29574154781E+02  0.00000000000E+00 0. -1.
</event>
<event>
 5    1  0.6835449E-004  0.9118800E+02  0.7818608E-02  0.1130116E+00
         25   -1    0    0    0    0  0.00000000000E+00  0.00000000000E+00  0.99999998245E-14  0.12500000000E+03  0.12500000000E+03 0.  0.
        -13    1    3    3    0    0 -0.22048218726E+01  0.26244990623E+02  0.33977943924E+02  0.42990378105E+02  0.10566000000E+00 0.  1.
         23    2    1    0    0    0  0.64838413430E+00 -0.23594238832E+02  0.17697499152E+02  0.95498983334E+02  0.90828111472E+02 0.  0.
         13    1    3    3    0    0  0.28532060069E+01 -0.49839229455E+02 -0.16280444771E+02  0.52508605230E+02  0.10566000000E+00 0. -1.
         22    1    1    0    0    0 -0.64838413430E+00  0.23594238832E+02 -0.17697499152E+02  0.29501016666E+02  0.00000000000E+00 0. -1.
</event>
<event>
 5    1  0.6835449E-004  0.9118800E+02  0.7818608E-02  0.1130116E+00
         25   -1    0    0    0    0  0.00000000000E+00  0.00000000000E+00  0.99999998245E-14  0.12500000000E+03  0.12500000000E+03 0.  0.
        -13    1    3    3    0    0 -0.29800148483E+02  0.17066162729E+02 -0.35354928506E+01  0.34522653919E+02  0.10566000000E+00 0. -1.
         23    2    1    0    0    0  0.17763715810E+02 -0.22350935167E+02  0.69386228834E+00  0.96441370007E+02  0.92115918829E+02 0.  0.
         13    1    3    3    0    0  0.47563864293E+02 -0.39417097896E+02  0.42293551389E+01  0.61918716088E+02  0.10566000000E+00 0.  1.
         22    1    1    0    0    0 -0.17763715810E+02  0.22350935167E+02 -0.69386228834E+00  0.28558629993E+02  0.00000000000E+00 0.  1.
</event>
<event>
 5    1  0.6835449E-004  0.9118800E+02  0.7818608E-02  0.1130116E+00
         25   -1    0    0    0    0  0.00000000000E+00  0.00000000000E+00  0.99999998245E-14  0.12500000000E+03  0.12500000000E+03 0.  0.
        -13    1    3    3    0    0  0.20723410049E+02  0.24072767160E+02  0.48304399241E+02  0.57812489938E+02  0.10566000000E+00 0. -1.
         23    2    1    0    0    0  0.11894116620E+02  0.23262525920E+02  0.10171108679E+02  0.96963121177E+02  0.92821227606E+02 0.  0.
         13    1    3    3    0    0 -0.88292934283E+01 -0.81024124016E+00 -0.38133290562E+02  0.39150631239E+02  0.10566000000E+00 0.  1.
         22    1    1    0    0    0 -0.11894116620E+02 -0.23262525920E+02 -0.10171108679E+02  0.28036878823E+02  0.00000000000E+00 0. -1.
</event>
<event>
 5    1  0.6835449E-004  0.9118800E+02  0.7818608E-02  0.1130116E+00
         25   -1    0    0    0    0  0.00000000000E+00  0.00000000000E+00  0.99999998245E-14  0.12500000000E+03  0.12500000000E+03 0.  0.
        -13    1    3    3    0    0 -0.26637508186E+02 -0.17609316703E+02  0.29684610153E+02  0.43598533474E+02  0.10566000000E+00 0. -1.
         23    2    1    0    0    0 -0.24059582466E+02  0.17818999211E+02 -0.65624569402E+01  0.94349615298E+02  0.89232302584E+02 0.  0.
         13    1    3    3    0    0  0.25779257203E+01  0.35428315913E+02 -0.36247067093E+02  0.50751081824E+02  0.10566000000E+00 0.  1.
         22    1    1    0    0    0  0.24059582466E+02 -0.17818999211E+02  0.65624569402E+01  0.30650384702E+02  0.00000000000E+00 0. -1.
</event>
<event>
 5    1  0.6835449E-004  0.9118800E+02  0.7818608E-02  0.1130116E+00
         25   -1    0    0    0    0  0.00000000000E+00  0.00000000000E+00  0.99999998245E-14  0.12500000000E+03  0.12500000000E+03 0.  0.
        -13    1    3    3    0    0  0.94326093855E+01 -0.41371770662E+02 -0.15500793107E+01  0.42461882170E+02  0.10566000000E+00 0. -1.
         23    2    1    0    0    0 -0.11363253479E+02  0.60804164100E+00  0.25865034133E+02  0.96742377401E+02  0.92523479994E+02 0.  0.
         13    1    3    3    0    0 -0.20795862865E+02  0.41979812303E+02  0.27415113444E+02  0.54280495230E+02  0.10566000000E+00 0.  1.
         22    1    1    0    0    0  0.11363253479E+02 -0.60804164100E+00 -0.25865034133E+02  0.28257622599E+02  0.00000000000E+00 0.  1.
</event>
<event>
 5    1  0.6835449E-004  0.9118800E+02  0.7818608E-02  0.1130116E+00
         25   -1    0    0    0    0  0.00000000000E+00  0.00000000000E+00  0.99999998245E-14  0.12500000000E+03  0.12500000000E+03 0.  0.
        -13    1    3    3    0    0 -0.48563362736E+02  0.14229172958E+02  0.34432054500E+02  0.61208227424E+02  0.10566000000E+00 0.  1.
         23    2    1    0    0    0 -0.20949516883E+02  0.15018799987E+02  0.13267295175E+02  0.96009178488E+02  0.91527562090E+02 0.  0.
         13    1    3    3    0    0  0.27613845853E+02  0.78962702861E+00 -0.21164759325E+02  0.34800951064E+02  0.10566000000E+00 0. -1.
         22    1    1    0    0    0  0.20949516883E+02 -0.15018799987E+02 -0.13267295175E+02  0.28990821512E+02  0.00000000000E+00 0.  1.
</event>
<event>
 5    1  0.6835449E-004  0.9118800E+02  0.7818608E-02  0.1130116E+00
         25   -1    0    0    0    0  0.00000000000E+00  0.00000000000E+00  0.99999998245E-14  0.12500000000E+03  0.12500000000E+03 0.  0.
        -13    1    3    3    0    0 -0.11080247256E+02  0.19646980420E+02 -0.28586344874E+02  0.36413816007E+02  0.10566000000E+00 0. -1.
         23    2    1    0    0    0  0.21655840123E+02 -0.19123631092E+02  0.26298128281E+01  0.95989577854E+02  0.91500789414E+02 0.  0.
         13    1    3    3    0    0  0.32736087380E+02 -0.38770611512E+02  0.31216157702E+02  0.59575761847E+02  0.10566000000E+00 0.  1.
         22    1    1    0    0    0 -0.21655840123E+02  0.19123631092E+02 -0.26298128281E+01  0.29010422146E+02  0.00000000000E+00 0.  1.
</event>
<event>
 5    1  0.6835449E-004  0.9118800E+02  0.7818608E-02  0.1130116E+00
         25   -1    0    0    0    0  0.00000000000E+00  0.00000000000E+00  0.99999998245E-14  0.12500000000E+03  0.12500000000E+03 0.  0.
        -13    1    3    3    0    0 -0.14087362212E+02  0.20307104359E+02 -0.36008684271E+02  0.43674578058E+02  0.10566000000E+00 0.  1.
         23    2    1    0    0    0  0.24317539633E+02 -0.71504364965E+01 -0.16489318875E+02  0.94761463117E+02  0.89807381541E+02 0.  0.
         13    1    3    3    0    0  0.38404901844E+02 -0.27457540856E+02  0.19519365396E+02  0.51086885059E+02  0.10566000000E+00 0. -1.
         22    1    1    0    0    0 -0.24317539633E+02  0.71504364965E+01  0.16489318875E+02  0.30238536883E+02  0.00000000000E+00 0. -1.
</event>
<event>
 5    1  0.6835449E-004  0.9118800E+02  0.7818608E-02  0.1130116E+00
         25   -1    0    0    0    0  0.00000000000E+00  0.00000000000E+00  0.99999998245E-14  0.12500000000E+03  0.12500000000E+03 0.  0.
        -13    1    3    3    0    0 -0.37311566113E+00  0.52886138556E+02 -0.24311947477E+01  0.52943410719E+02  0.10566000000E+00 0.  1.
         23    2    1    0    0    0 -0.83963188190E+01  0.18315316291E+02 -0.23365327432E+02  0.94147325779E+02  0.88948476349E+02 0.  0.
         13    1    3    3    0    0 -0.80232031579E+01 -0.34570822265E+02 -0.20934132684E+02  0.41203915060E+02  0.10566000000E+00 0. -1.
         22    1    1    0    0    0  0.83963188190E+01 -0.18315316291E+02  0.23365327432E+02  0.30852674221E+02  0.00000000000E+00 0.  1.
</event>
<event>
 5    1  0.6835449E-004  0.9118800E+02  0.7818608E-02  0.1130116E+00
         25   -1    0    0    0    0  0.00000000000E+00  0.00000000000E+00  0.99999998245E-14  0.12500000000E+03  0.12500000000E+03 0.  0.
        -13    1    3    3    0    0  0.46404867079E+02 -0.50904325946E+01  0.16249228511E+02  0.49430484358E+02  0.10566000000E+00 0. -1.
         23    2    1    0    0    0  0.20015768035E+01  0.63231425922E+00  0.28954872439E+02  0.95969141092E+02  0.91472866320E+02 0.  0.
         13    1    3    3    0    0 -0.44403290276E+02  0.57227468538E+01  0.12705643927E+02  0.46538656733E+02  0.10566000000E+00 0.  1.
         22    1    1    0    0    0 -0.20015768035E+01 -0.63231425922E+00 -0.28954872439E+02  0.29030858908E+02  0.00000000000E+00 0.  1.
</event>
<event>
 5    1  0.6835449E-004  0.9118800E+02  0.7818608E-02  0.1130116E+00
         25   -1    0    0    0    0  0.00000000000E+00  0.00000000000E+00  0.99999998245E-14  0.12500000000E+03  0.12500000000E+03 0.  0.
        -13    1    3    3    0    0  0.34379222678E+02  0.33323464811E+02 -0.31485043362E+01  0.47982376999E+02  0.10566000000E+00 0.  1.
         23    2    1    0    0    0  0.15607855814E+02 -0.71492064282E+00  0.24681209136E+02  0.95789071239E+02  0.91226464416E+02 0.  0.
         13    1    3    3    0    0 -0.18771366863E+02 -0.34038385454E+02  0.27829713472E+02  0.47806694240E+02  0.10566000000E+00 0. -1.
         22    1    1    0    0    0 -0.15607855814E+02  0.71492064282E+00 -0.24681209136E+02  0.29210928761E+02  0.00000000000E+00 0. -1.
</event>
<event>
 5    1  0.6835449E-004  0.9118800E+02  0.7818608E-02  0.1130116E+00
         25   -1    0    0    0    0  0.00000000000E+00  0.00000000000E+00  0.99999998245E-14  0.12500000000E+03  0.12500000000E+03 0.  0.
        -13    1    3    3    0    0 -0.59013759056E+02  0.33424942477E+01 -0.15017839594E+02  0.60986414027E+02  0.10566000000E+00 0.  1.
         23    2    1    0    0    0 -0.23925889491E+02  0.67455904298E+01 -0.14456200503E+02  0.96243558788E+02  0.91847099557E+02 0.  0.
         13    1    3    3    0    0  0.35087869565E+02  0.34030961822E+01  0.56163909095E+00  0.35257144762E+02  0.10566000000E+00 0. -1.
         22    1    1    0    0    0  0.23925889491E+02 -0.67455904298E+01  0.14456200503E+02  0.28756441212E+02  0.00000000000E+00 0.  1.
</event>
<event>
 5    1  0.6835449E-004  0.9118800E+02  0.7818608E-02  0.1130116E+00
         25   -1    0    0    0    0  0.00000000000E+00  0.00000000000E+00  0.99999998245E-14  0.12500000000E+03  0.12500000000E+03 0.  0.
        -13    1    3    3    0    0  0.71145593050E+01  0.23663449838E+02 -0.36248955973E+02  0.43869964503E+02  0.10566000000E+00 0.  1.
         23    2    1    0    0    0  0.15550463590E+02 -0.21401711854E+02 -0.98767337708E+01  0.96761727069E+02  0.92549617867E+02 0.  0.
         13    1    3    3    0    0  0.84359042848E+01 -0.45065161692E+02  0.26372222202E+02  0.52891762566E+02  0.10566000000E+00 0. -1.
         22    1    1    0    0    0 -0.15550463590E+02  0.21401711854E+02  0.98767337708E+01  0.28238272931E+02  0.00000000000E+00 0. -1.
</event>
<event>
 5    1  0.6835449E-004  0.9118800E+02  0.7818608E-02  0.1130116E+00
         25   -1    0    0    0    0  0.00000000000E+00  0.00000000000E+00  0.99999998245E-14  0.12500000000E+03  0.12500000000E+03 0.  0.
        -13    1    3    3    0    0  0.29796062924E+02 -0.89538859355E+01 -0.43566396491E+02  0.53535217440E+02  0.10566000000E+00 0.  1.
         23    2    1    0    0    0 -0.77227087273E+01 -0.66305665973E+01 -0.29703770335E+02  0.93600658994E+02  0.88176894641E+02 0.  0.
         13    1    3    3    0    0 -0.37518771651E+02  0.23233193381E+01  0.13862626156E+02  0.40065441554E+02  0.10566000000E+00 0. -1.
         22    1    1    0    0    0  0.77227087273E+01  0.66305665973E+01  0.29703770335E+02  0.31399341006E+02  0.00000000000E+00 0.  1.
</event>
<event>
 5    1  0.6835449E-004  0.9118800E+02  0.7818608E-02  0.1130116E+00
         25   -1    0    0    0    0  0.00000000000E+00  0.00000000000E+00  0.99999998245E-14  0.12500000000E+03  0.12500000000E+03 0.  0.
        -13    1    3    3    0    0  0.25615153851E+02 -0.21669793818E+02 -0.15269924984E+02  0.36863231600E+02  0.10566000000E+00 0.  1.
         23    2    1    0    0    0 -0.27048526611E+02 -0.25270258071E+01  0.66476534776E+01  0.97032162258E+02  0.92914156964E+02 0.  0.
         13    1    3    3    0    0 -0.52663680461E+02  0.19142768011E+02  0.21917578462E+02  0.60168930658E+02  0.10566000000E+00 0. -1.
         22    1    1    0    0    0  0.27048526611E+02  0.25270258071E+01 -0.66476534776E+01  0.27967837742E+02  0.00000000000E+00 0. -1.
</event>
<event>
 5    1  0.6835449E-004  0.9118800E+02  0.7818608E-02  0.1130116E+00
         25   -1    0    0    0    0  0.00000000000E+00  0.00000000000E+00  0.99999998245E-14  0.12500000000E+03  0.12500000000E+03 0.  0.
        -13    1    3    3    0    0  0.19941755728E+02  0.34869203380E+02  0.95267442162E+01  0.41283228862E+02  0.10566000000E+00 0.  1.
         23    2    1    0    0    0  0.15408919768E+02 -0.20642713062E+02  0.10977501212E+02  0.96998893882E+02  0.92869389309E+02 0.  0.
         13    1    3    3    0    0 -0.45328359596E+01 -0.55511916441E+02  0.14507569953E+01  0.55715665021E+02  0.10566000000E+00 0. -1.
         22    1    1    0    0    0 -0.15408919768E+02  0.20642713062E+02 -0.10977501212E+02  0.28001106118E+02  0.00000000000E+00 0. -1.
</event>
<event>
 5    1  0.6835449E-004  0.9118800E+02  0.7818608E-02  0.1130116E+00
         25   -1    0    0    0    0  0.00000000000E+00  0.00000000000E+00  0.99999998245E-14  0.12500000000E+03  0.12500000000E+03 0.  0.
        -13    1    3    3    0    0  0.10653676600E+02 -0.87907654214E+01 -0.41587531256E+02  0.43821368096E+02  0.10566000000E+00 0.  1.
         23    2    1    0    0    0 -0.23382249575E+01 -0.29648065922E+02  0.33834846865E+01  0.95068025833E+02  0.90233067433E+02 0.  0.
         13    1    3    3    0    0 -0.12991901557E+02 -0.20857300501E+02  0.44971015943E+02  0.51246657737E+02  0.10566000000E+00 0. -1.
         22    1    1    0    0    0  0.23382249575E+01  0.29648065922E+02 -0.33834846865E+01  0.29931974167E+02  0.00000000000E+00 0. -1.
</event>
<event>
 5    1  0.6835449E-004  0.9118800E+02  0.7818608E-02  0.1130116E+00
         25   -1    0    0    0    0  0.00000000000E+00  0.00000000000E+00  0.99999998245E-14  0.12500000000E+03  0.12500000000E+03 0.  0.
        -13    1    3    3    0    0  0.47695841656E+02  0.20007218357E+02  0.53412351858E+01  0.51997327384E+02  0.10566000000E+00 0.  1.
         23    2    1    0    0    0  0.69496819905E+01  0.12490594283E+02  0.23705542830E+02  0.97318493788E+02  0.93298571517E+02 0.  0.
         13    1    3    3    0    0 -0.40746159666E+02 -0.75166240741E+01  0.18364307644E+02  0.45321166405E+02  0.10566000000E+00 0. -1.
         22    1    1    0    0    0 -0.69496819905E+01 -0.12490594283E+02 -0.23705542830E+02  0.27681506212E+02  0.00000000000E+00 0. -1.
</event>
<event>
 5    1  0.6835449E-004  0.9118800E+02  0.7818608E-02  0.1130116E+00
         25   -1    0    0    0    0  0.00000000000E+00  0.00000000000E+00  0.99999998245E-14  0.12500000000E+03  0.12500000000E+03 0.  0.
        -13    1    3    3    0    0  0.39640797887E+01  0.30924989703E+02 -0.25332927523E+01  0.31280947123E+02  0.10566000000E+00 0.  1.
         23    2    1    0    0    0 -0.81436549179E+01 -0.29815361056E+02  0.50631805664E+01  0.93680506585E+02  0.88290014420E+02 0.  0.
         13    1    3    3    0    0 -0.12107734707E+02 -0.60740350759E+02  0.75964733187E+01  0.62399559462E+02  0.10566000000E+00 0. -1.
         22    1    1    0    0    0  0.81436549179E+01  0.29815361056E+02 -0.50631805664E+01  0.31319493415E+02  0.00000000000E+00 0. -1.
</event>
<event>
 5    1  0.6835449E-004  0.9118800E+02  0.7818608E-02  0.1130116E+00
         25   -1    0    0    0    0  0.00000000000E+00  0.00000000000E+00  0.99999998245E-14  0.12500000000E+03  0.12500000000E+03 0.  0.
        -13    1    3    3    0    0 -0.41476685565E+02 -0.32528349134E+02 -0.22230732603E+02  0.57206866537E+02  0.10566000000E+00 0.  1.
         23    2    1    0    0    0 -0.28326007721E+02 -0.25937930713E+01 -0.34185591674E+00  0.96553430060E+02  0.92267857431E+02 0.  0.
         13    1    3    3    0    0  0.13150677844E+02  0.29934556063E+02  0.21888876687E+02  0.39346563523E+02  0.10566000000E+00 0. -1.
         22    1    1    0    0    0  0.28326007721E+02  0.25937930713E+01  0.34185591674E+00  0.28446569940E+02  0.00000000000E+00 0.  1.
</event>
<event>
 5    1  0.6835449E-004  0.9118800E+02  0.7818608E-02  0.1130116E+00
         25   -1    0    0    0    0  0.00000000000E+00  0.00000000000E+00  0.99999998245E-14  0.12500000000E+03  0.12500000000E+03 0.  0.
        -13    1    3    3    0    0  0.25192562429E+02  0.95206792324E+01 -0.86533415682E+01  0.28287806898E+02  0.10566000000E+00 0.  1.
         23    2    1    0    0    0 -0.70507030194E+01 -0.31494530392E+02 -0.26304048747E+02  0.83364428211E+02  0.72222621476E+02 0.  0.
         13    1    3    3    0    0 -0.32243265448E+02 -0.41015209625E+02 -0.17650707179E+02  0.55076621313E+02  0.10566000000E+00 0. -1.
         22    1    1    0    0    0  0.70507030194E+01  0.31494530392E+02  0.26304048747E+02  0.41635571789E+02  0.00000000000E+00 0. -1.
</event>
<event>
 5    1  0.6835449E-004  0.9118800E+02  0.7818608E-02  0.1130116E+00
         25   -1    0    0    0    0  0.00000000000E+00  0.00000000000E+00  0.99999998245E-14  0.12500000000E+03  0.12500000000E+03 0.  0.
        -13    1    3    3    0    0  0.33481324866E+02 -0.17020605968E+02  0.32858981415E+02  0.49904147783E+02  0.10566000000E+00 0.  1.
         23    2    1    0    0    0 -0.86404165185E+01 -0.23080308003E+02  0.15641476979E+02  0.95810734555E+02  0.91256143019E+02 0.  0.
         13    1    3    3    0    0 -0.42121741385E+02 -0.60597020344E+01 -0.17217504435E+02  0.45906586772E+02  0.10566000000E+00 0. -1.
         22    1    1    0    0    0  0.86404165185E+01  0.23080308003E+02 -0.15641476979E+02  0.29189265445E+02  0.00000000000E+00 0.  1.
</event>
<event>
 5    1  0.6835449E-004  0.9118800E+02  0.7818608E-02  0.1130116E+00
         25   -1    0    0    0    0  0.00000000000E+00  0.00000000000E+00  0.99999998245E-14  0.12500000000E+03  0.12500000000E+03 0.  0.
        -13    1    3    3    0    0  0.17056532921E+02  0.56679174071E+01  0.44913039429E+02  0.48376056865E+02  0.10566000000E+00 0.  1.
         23    2    1    0    0    0  0.62451103129E+00 -0.25459321714E+02  0.27050929419E+02  0.87847343856E+02  0.79604245891E+02 0.  0.
         13    1    3    3    0    0 -0.16432021890E+02 -0.31127239121E+02 -0.17862110010E+02  0.39471286991E+02  0.10566000000E+00 0. -1.
         22    1    1    0    0    0 -0.62451103129E+00  0.25459321714E+02 -0.27050929419E+02  0.37152656144E+02  0.00000000000E+00 0.  1.
</event>
<event>
 5    1  0.6835449E-004  0.9118800E+02  0.7818608E-02  0.1130116E+00
         25   -1    0    0    0    0  0.00000000000E+00  0.00000000000E+00  0.99999998245E-14  0.12500000000E+03  0.12500000000E+03 0.  0.
        -13    1    3    3    0    0 -0.29505276616E+02 -0.47825784479E+02  0.25554236315E+02  0.61732464449E+02  0.10566000000E+00 0.  1.
         23    2    1    0    0    0 -0.19045015224E+02 -0.18625795898E+02  0.14568015594E+02  0.94637853237E+02  0.89635167815E+02 0.  0.
         13    1    3    3    0    0  0.10460261392E+02  0.29199988581E+02 -0.10986220722E+02  0.32905388788E+02  0.10566000000E+00 0. -1.
         22    1    1    0    0    0  0.19045015224E+02  0.18625795898E+02 -0.14568015594E+02  0.30362146763E+02  0.00000000000E+00 0.  1.
</event>
<event>
 5    1  0.6835449E-004  0.9118800E+02  0.7818608E-02  0.1130116E+00
         25   -1    0    0    0    0  0.00000000000E+00  0.00000000000E+00  0.99999998245E-14  0.12500000000E+03  0.12500000000E+03 0.  0.
        -13    1    3    3    0    0 -0.12980334375E+02 -0.29153290839E+02  0.15263289421E+01  0.31949089053E+02  0.10566000000E+00 0.  1.
         23    2    1    0    0    0  0.24410867980E+01  0.30642141567E+02 -0.42394678946E+01  0.93969807726E+02  0.88698658002E+02 0.  0.
         13    1    3    3    0    0  0.15421421173E+02  0.59795432406E+02 -0.57657968367E+01  0.62020718673E+02  0.10566000000E+00 0. -1.
         22    1    1    0    0    0 -0.24410867980E+01 -0.30642141567E+02  0.42394678946E+01  0.31030192274E+02  0.00000000000E+00 0. -1.
</event>
<event>
 5    1  0.6835449E-004  0.9118800E+02  0.7818608E-02  0.1130116E+00
         25   -1    0    0    0    0  0.00000000000E+00  0.00000000000E+00  0.99999998245E-14  0.12500000000E+03  0.12500000000E+03 0.  0.
        -13    1    3    3    0    0  0.60404854359E+01 -0.25356358102E+02  0.30415107831E+02  0.40056488974E+02  0.10566000000E+00 0. -1.
         23    2    1    0    0    0 -0.23564933635E+02  0.13926506275E+02  0.51132516579E+00  0.97622726073E+02  0.93705290770E+02 0.  0.
         13    1    3    3    0    0 -0.29605419071E+02  0.39282864377E+02 -0.29903782665E+02  0.57566237099E+02  0.10566000000E+00 0.  1.
         22    1    1    0    0    0  0.23564933635E+02 -0.13926506275E+02 -0.51132516579E+00  0.27377273927E+02  0.00000000000E+00 0.  1.
</event>
<event>
 5    1  0.6835449E-004  0.9118800E+02  0.7818608E-02  0.1130116E+00
         25   -1    0    0    0    0  0.00000000000E+00  0.00000000000E+00  0.99999998245E-14  0.12500000000E+03  0.12500000000E+03 0.  0.
        -13    1    3    3    0    0 -0.33732141114E+02 -0.39206280068E+02  0.28935224146E+02  0.59264222776E+02  0.10566000000E+00 0.  1.
         23    2    1    0    0    0 -0.84795960537E+01 -0.13030445633E+02  0.24608475423E+02  0.95892043609E+02  0.91367449905E+02 0.  0.
         13    1    3    3    0    0  0.25252545060E+02  0.26175834435E+02 -0.43267487225E+01  0.36627820832E+02  0.10566000000E+00 0. -1.
         22    1    1    0    0    0  0.84795960537E+01  0.13030445633E+02 -0.24608475423E+02  0.29107956391E+02  0.00000000000E+00 0.  1.
</event>
<event>
 5    1  0.6835449E-004  0.9118800E+02  0.7818608E-02  0.1130116E+00
         25   -1    0    0    0    0  0.00000000000E+00  0.00000000000E+00  0.99999998245E-14  0.12500000000E+03  0.12500000000E+03 0.  0.
        -13    1    3    3    0    0 -0.84910240212E+00  0.30055579168E+02  0.22241545614E+02  0.37399950927E+02  0.10566000000E+00 0.  1.
         23    2    1    0    0    0  0.18453509477E+02 -0.20259421378E+02  0.19511360988E+02  0.91359706092E+02  0.84940723584E+02 0.  0.
         13    1    3    3    0    0  0.19302611879E+02 -0.50315000546E+02 -0.27301846255E+01  0.53959755165E+02  0.10566000000E+00 0. -1.
         22    1    1    0    0    0 -0.18453509477E+02  0.20259421378E+02 -0.19511360988E+02  0.33640293908E+02  0.00000000000E+00 0. -1.
</event>
<event>
 5    1  0.6835449E-004  0.9118800E+02  0.7818608E-02  0.1130116E+00
         25   -1    0    0    0    0  0.00000000000E+00  0.00000000000E+00  0.99999998245E-14  0.12500000000E+03  0.12500000000E+03 0.  0.
        -13    1    3    3    0    0  0.13916551016E+02  0.47719792584E+02  0.21170426617E+02  0.54028206741E+02  0.10566000000E+00 0.  1.
         23    2    1    0    0    0 -0.16408703027E+02  0.22637397363E+02  0.12740041370E+02  0.94275320205E+02  0.89128166430E+02 0.  0.
         13    1    3    3    0    0 -0.30325254043E+02 -0.25082395221E+02 -0.84303852463E+01  0.40247113464E+02  0.10566000000E+00 0. -1.
         22    1    1    0    0    0  0.16408703027E+02 -0.22637397363E+02 -0.12740041370E+02  0.30724679795E+02  0.00000000000E+00 0.  1.
</event>
<event>
 5    1  0.6835449E-004  0.9118800E+02  0.7818608E-02  0.1130116E+00
         25   -1    0    0    0    0  0.00000000000E+00  0.00000000000E+00  0.99999998245E-14  0.12500000000E+03  0.12500000000E+03 0.  0.
        -13    1    3    3    0    0 -0.17814274483E+02  0.55587632914E+02  0.13128547306E+02  0.59830621147E+02  0.10566000000E+00 0. -1.
         23    2    1    0    0    0 -0.20034826077E+02  0.20492053481E+02  0.53594156836E+01  0.95844522843E+02  0.91302413499E+02 0.  0.
         13    1    3    3    0    0 -0.22205515944E+01 -0.35095579434E+02 -0.77691316226E+01  0.36013901696E+02  0.10566000000E+00 0.  1.
         22    1    1    0    0    0  0.20034826077E+02 -0.20492053481E+02 -0.53594156836E+01  0.29155477157E+02  0.00000000000E+00 0. -1.
</event>
<event>
 5    1  0.6835449E-004  0.9118800E+02  0.7818608E-02  0.1130116E+00
         25   -1    0    0    0    0  0.00000000000E+00  0.00000000000E+00  0.99999998245E-14  0.12500000000E+03  0.12500000000E+03 0.  0.
        -13    1    3    3    0    0  0.23949946534E+02  0.56817686429E+01 -0.44599029038E+02  0.50940818496E+02  0.10566000000E+00 0.  1.
         23    2    1    0    0    0 -0.42155930374E+01  0.24475086929E+02 -0.14520518475E+02  0.96231152932E+02  0.91830214162E+02 0.  0.
         13    1    3    3    0    0 -0.28165539571E+02  0.18793318286E+02  0.30078510564E+02  0.45290334436E+02  0.10566000000E+00 0. -1.
         22    1    1    0    0    0  0.42155930374E+01 -0.24475086929E+02  0.14520518475E+02  0.28768847068E+02  0.00000000000E+00 0.  1.
</event>
<event>
 5    1  0.6835449E-004  0.9118800E+02  0.7818608E-02  0.1130116E+00
         25   -1    0    0    0    0  0.00000000000E+00  0.00000000000E+00  0.99999998245E-14  0.12500000000E+03  0.12500000000E+03 0.  0.
        -13    1    3    3    0    0  0.83367657633E+01  0.40408814750E+02 -0.34234250498E+02  0.53613142457E+02  0.10566000000E+00 0. -1.
         23    2    1    0    0    0  0.13838246491E+02  0.23328014129E+02  0.56011932166E+01  0.97304031438E+02  0.93279193069E+02 0.  0.
         13    1    3    3    0    0  0.55014807275E+01 -0.17080800621E+02  0.39835443714E+02  0.43690888982E+02  0.10566000000E+00 0.  1.
         22    1    1    0    0    0 -0.13838246491E+02 -0.23328014129E+02 -0.56011932166E+01  0.27695968562E+02  0.00000000000E+00 0.  1.
</event>
<event>
 5    1  0.6835449E-004  0.9118800E+02  0.7818608E-02  0.1130116E+00
         25   -1    0    0    0    0  0.00000000000E+00  0.00000000000E+00  0.99999998245E-14  0.12500000000E+03  0.12500000000E+03 0.  0.
        -13    1    3    3    0    0 -0.23418065032E+02  0.22797834542E+02  0.26528602094E+02  0.42094238594E+02  0.10566000000E+00 0. -1.
         23    2    1    0    0    0  0.16483822695E+02  0.21909750198E+02 -0.96202601343E+01  0.95943108057E+02  0.91437284595E+02 0.  0.
         13    1    3    3    0    0  0.39901887727E+02 -0.88808434486E+00 -0.36148862228E+02  0.53848869463E+02  0.10566000000E+00 0.  1.
         22    1    1    0    0    0 -0.16483822695E+02 -0.21909750198E+02  0.96202601343E+01  0.29056891943E+02  0.00000000000E+00 0.  1.
</event>
<event>
 5    1  0.6835449E-004  0.9118800E+02  0.7818608E-02  0.1130116E+00
         25   -1    0    0    0    0  0.00000000000E+00  0.00000000000E+00  0.99999998245E-14  0.12500000000E+03  0.12500000000E+03 0.  0.
        -13    1    3    3    0    0 -0.12393192455E+02 -0.21406641690E+02 -0.26758459749E+02  0.36439838911E+02  0.10566000000E+00 0.  1.
         23    2    1    0    0    0 -0.93941082314E+01  0.24682285729E+02  0.11288187054E+02  0.96279142331E+02  0.91895514486E+02 0.  0.
         13    1    3    3    0    0  0.29990842240E+01  0.46088927419E+02  0.38046646803E+02  0.59839303420E+02  0.10566000000E+00 0. -1.
         22    1    1    0    0    0  0.93941082314E+01 -0.24682285729E+02 -0.11288187054E+02  0.28720857669E+02  0.00000000000E+00 0.  1.
</event>
<event>
 5    1  0.6835449E-004  0.9118800E+02  0.7818608E-02  0.1130116E+00
         25   -1    0    0    0    0  0.00000000000E+00  0.00000000000E+00  0.99999998245E-14  0.12500000000E+03  0.12500000000E+03 0.  0.
        -13    1    3    3    0    0  0.24742879132E+02 -0.19948606102E+02  0.51372661113E+02  0.60409588867E+02  0.10566000000E+00 0.  1.
         23    2    1    0    0    0  0.19884001973E+02 -0.13310373358E+02  0.17269470117E+02  0.95491117074E+02  0.90817285076E+02 0.  0.
         13    1    3    3    0    0 -0.48588771586E+01  0.66382327447E+01 -0.34103190996E+02  0.35081528207E+02  0.10566000000E+00 0. -1.
         22    1    1    0    0    0 -0.19884001973E+02  0.13310373358E+02 -0.17269470117E+02  0.29508882926E+02  0.00000000000E+00 0.  1.
</event>
<event>
 5    1  0.6835449E-004  0.9118800E+02  0.7818608E-02  0.1130116E+00
         25   -1    0    0    0    0  0.00000000000E+00  0.00000000000E+00  0.99999998245E-14  0.12500000000E+03  0.12500000000E+03 0.  0.
        -13    1    3    3    0    0 -0.13002474523E+02 -0.30357051425E+02 -0.55459903413E+00  0.33029284871E+02  0.10566000000E+00 0.  1.
         23    2    1    0    0    0  0.15042375696E+02  0.25409855037E+02 -0.10460691044E+01  0.95452951753E+02  0.90764739509E+02 0.  0.
         13    1    3    3    0    0  0.28044850219E+02  0.55766906461E+02 -0.49147007025E+00  0.62423666882E+02  0.10566000000E+00 0. -1.
         22    1    1    0    0    0 -0.15042375696E+02 -0.25409855037E+02  0.10460691044E+01  0.29547048247E+02  0.00000000000E+00 0. -1.
</event>
<event>
 5    1  0.6835449E-004  0.9118800E+02  0.7818608E-02  0.1130116E+00
         25   -1    0    0    0    0  0.00000000000E+00  0.00000000000E+00  0.99999998245E-14  0.12500000000E+03  0.12500000000E+03 0.  0.
        -13    1    3    3    0    0  0.39137510849E+02  0.31171871866E+02  0.20290359217E+02  0.53992038231E+02  0.10566000000E+00 0. -1.
         23    2    1    0    0    0  0.59886881551E+01  0.86197127200E+01  0.28246120796E+02  0.94866842628E+02  0.89953936306E+02 0.  0.
         13    1    3    3    0    0 -0.33148822694E+02 -0.22552159146E+02  0.79557615786E+01  0.40874804397E+02  0.10566000000E+00 0.  1.
         22    1    1    0    0    0 -0.59886881551E+01 -0.86197127200E+01 -0.28246120796E+02  0.30133157372E+02  0.00000000000E+00 0. -1.
</event>
<event>
 5    1  0.6835449E-004  0.9118800E+02  0.7818608E-02  0.1130116E+00
         25   -1    0    0    0    0  0.00000000000E+00  0.00000000000E+00  0.99999998245E-14  0.12500000000E+03  0.12500000000E+03 0.  0.
        -13    1    3    3    0    0 -0.12973701167E+02  0.30380292407E+02 -0.12042693037E+02  0.35161295600E+02  0.10566000000E+00 0. -1.
         23    2    1    0    0    0  0.73993613648E+01 -0.20828896040E+02  0.16678756976E+02  0.97309308547E+02  0.93286264459E+02 0.  0.
         13    1    3    3    0    0  0.20373062532E+02 -0.51209188447E+02  0.28721450013E+02  0.62148012947E+02  0.10566000000E+00 0.  1.
         22    1    1    0    0    0 -0.73993613648E+01  0.20828896040E+02 -0.16678756976E+02  0.27690691453E+02  0.00000000000E+00 0.  1.
</event>
<event>
 5    1  0.6835449E-004  0.9118800E+02  0.7818608E-02  0.1130116E+00
         25   -1    0    0    0    0  0.00000000000E+00  0.00000000000E+00  0.99999998245E-14  0.12500000000E+03  0.12500000000E+03 0.  0.
        -13    1    3    3    0    0  0.13726122771E+02 -0.71989345438E-02  0.50087842647E+02  0.51934667066E+02  0.10566000000E+00 0. -1.
         23    2    1    0    0    0 -0.82332280091E+01 -0.21005444662E+02  0.17874934880E+02  0.96215836892E+02  0.91809363482E+02 0.  0.
         13    1    3    3    0    0 -0.21959350780E+02 -0.20998245727E+02 -0.32212907767E+02  0.44281169826E+02  0.10566000000E+00 0.  1.
         22    1    1    0    0    0  0.82332280091E+01  0.21005444662E+02 -0.17874934880E+02  0.28784163108E+02  0.00000000000E+00 0. -1.
</event>
<event>
 5    1  0.6835449E-004  0.9118800E+02  0.7818608E-02  0.1130116E+00
         25   -1    0    0    0    0  0.00000000000E+00  0.00000000000E+00  0.99999998245E-14  0.12500000000E+03  0.12500000000E+03 0.  0.
        -13    1    3    3    0    0 -0.91706436956E+01 -0.35150190840E+02  0.11574429653E+02  0.38126305981E+02  0.10566000000E+00 0. -1.
         23    2    1    0    0    0  0.12451220558E+01  0.24999163216E+02  0.43070753387E+01  0.99601980620E+02  0.96309372104E+02 0.  0.
         13    1    3    3    0    0  0.10415765751E+02  0.60149354057E+02 -0.72673543145E+01  0.61475674639E+02  0.10566000000E+00 0.  1.
         22    1    1    0    0    0 -0.12451220558E+01 -0.24999163216E+02 -0.43070753387E+01  0.25398019380E+02  0.00000000000E+00 0.  1.
</event>
<event>
 5    1  0.6835449E-004  0.9118800E+02  0.7818608E-02  0.1130116E+00
         25   -1    0    0    0    0  0.00000000000E+00  0.00000000000E+00  0.99999998245E-14  0.12500000000E+03  0.12500000000E+03 0.  0.
        -13    1    3    3    0    0 -0.80252082845E+01 -0.13790855211E+02 -0.30626842843E+02  0.34534132710E+02  0.10566000000E+00 0.  1.
         23    2    1    0    0    0  0.66152752491E+01  0.12269936410E+02  0.24252857672E+02  0.97026542734E+02  0.92906596556E+02 0.  0.
         13    1    3    3    0    0  0.14640483534E+02  0.26060791620E+02  0.54879700515E+02  0.62492410025E+02  0.10566000000E+00 0. -1.
         22    1    1    0    0    0 -0.66152752491E+01 -0.12269936410E+02 -0.24252857672E+02  0.27973457266E+02  0.00000000000E+00 0. -1.
</event>
<event>
 5    1  0.6835449E-004  0.9118800E+02  0.7818608E-02  0.1130116E+00
         25   -1    0    0    0    0  0.00000000000E+00  0.00000000000E+00  0.99999998245E-14  0.12500000000E+03  0.12500000000E+03 0.  0.
        -13    1    3    3    0    0  0.57300893019E+02  0.61883148270E+01  0.15049354383E+02  0.59566616594E+02  0.10566000000E+00 0. -1.
         23    2    1    0    0    0  0.28976094393E+02 -0.10215901354E+02  0.10020609784E+02  0.92682956398E+02  0.86866213798E+02 0.  0.
         13    1    3    3    0    0 -0.28324798626E+02 -0.16404216181E+02 -0.50287445984E+01  0.33116339804E+02  0.10566000000E+00 0.  1.
         22    1    1    0    0    0 -0.28976094393E+02  0.10215901354E+02 -0.10020609784E+02  0.32317043602E+02  0.00000000000E+00 0. -1.
</event>
<event>
 5    1  0.6835449E-004  0.9118800E+02  0.7818608E-02  0.1130116E+00
         25   -1    0    0    0    0  0.00000000000E+00  0.00000000000E+00  0.99999998245E-14  0.12500000000E+03  0.12500000000E+03 0.  0.
        -13    1    3    3    0    0  0.44895521950E+02  0.40555938871E+02  0.27579865515E+01  0.60564095987E+02  0.10566000000E+00 0.  1.
         23    2    1    0    0    0  0.11053221504E+02  0.24253024215E+02 -0.10862528461E+01  0.98324864866E+02  0.94637287664E+02 0.  0.
         13    1    3    3    0    0 -0.33842300446E+02 -0.16302914656E+02 -0.38442393976E+01  0.37760768879E+02  0.10566000000E+00 0. -1.
         22    1    1    0    0    0 -0.11053221504E+02 -0.24253024215E+02  0.10862528461E+01  0.26675135134E+02  0.00000000000E+00 0.  1.
</event>
<event>
 5    1  0.6835449E-004  0.9118800E+02  0.7818608E-02  0.1130116E+00
         25   -1    0    0    0    0  0.00000000000E+00  0.00000000000E+00  0.99999998245E-14  0.12500000000E+03  0.12500000000E+03 0.  0.
        -13    1    3    3    0    0 -0.11945503633E+02  0.29682026485E+02  0.16510361220E+02  0.36004457292E+02  0.10566000000E+00 0.  1.
         23    2    1    0    0    0 -0.98309513914E+01 -0.13449277648E+02 -0.24377501631E+02  0.95473854632E+02  0.90793522115E+02 0.  0.
         13    1    3    3    0    0  0.21145522414E+01 -0.43131304133E+02 -0.40887862851E+02  0.59469397340E+02  0.10566000000E+00 0. -1.
         22    1    1    0    0    0  0.98309513914E+01  0.13449277648E+02  0.24377501631E+02  0.29526145368E+02  0.00000000000E+00 0. -1.
</event>
<event>
 5    1  0.6835449E-004  0.9118800E+02  0.7818608E-02  0.1130116E+00
         25   -1    0    0    0    0  0.00000000000E+00  0.00000000000E+00  0.99999998245E-14  0.12500000000E+03  0.12500000000E+03 0.  0.
        -13    1    3    3    0    0 -0.11109962132E+02  0.28245580901E+02 -0.21865780437E+02  0.37408122342E+02  0.10566000000E+00 0.  1.
         23    2    1    0    0    0  0.18241604081E+02 -0.15799629116E+01  0.20881427898E+02  0.97227955903E+02  0.93177191285E+02 0.  0.
         13    1    3    3    0    0  0.29351566213E+02 -0.29825543813E+02  0.42747208335E+02  0.59819833561E+02  0.10566000000E+00 0. -1.
         22    1    1    0    0    0 -0.18241604081E+02  0.15799629116E+01 -0.20881427898E+02  0.27772044097E+02  0.00000000000E+00 0. -1.
</event>
<event>
 5    1  0.6835449E-004  0.9118800E+02  0.7818608E-02  0.1130116E+00
         25   -1    0    0    0    0  0.00000000000E+00  0.00000000000E+00  0.99999998245E-14  0.12500000000E+03  0.12500000000E+03 0.  0.
        -13    1    3    3    0    0  0.35514606072E+02  0.24819882852E+02 -0.41153176930E+02  0.59757082966E+02  0.10566000000E+00 0.  1.
         23    2    1    0    0    0  0.10528256073E+02 -0.17138319985E+00 -0.23474701444E+02  0.99271899487E+02  0.95880002460E+02 0.  0.
         13    1    3    3    0    0 -0.24986349999E+02 -0.24991266051E+02  0.17678475486E+02  0.39514816520E+02  0.10566000000E+00 0. -1.
         22    1    1    0    0    0 -0.10528256073E+02  0.17138319985E+00  0.23474701444E+02  0.25728100513E+02  0.00000000000E+00 0.  1.
</event>
<event>
 5    1  0.6835449E-004  0.9118800E+02  0.7818608E-02  0.1130116E+00
         25   -1    0    0    0    0  0.00000000000E+00  0.00000000000E+00  0.99999998245E-14  0.12500000000E+03  0.12500000000E+03 0.  0.
        -13    1    3    3    0    0 -0.17644648172E+02 -0.23492723834E+02  0.22309383505E+02  0.36891210859E+02  0.10566000000E+00 0. -1.
         23    2    1    0    0    0  0.27009365854E+02  0.48827004820E+01 -0.60126297762E+01  0.96901987176E+02  0.92738863450E+02 0.  0.
         13    1    3    3    0    0  0.44654014026E+02  0.28375424316E+02 -0.28322013281E+02  0.60010776317E+02  0.10566000000E+00 0.  1.
         22    1    1    0    0    0 -0.27009365854E+02 -0.48827004820E+01  0.60126297762E+01  0.28098012824E+02  0.00000000000E+00 0.  1.
</event>
<event>
 5    1  0.6835449E-004  0.9118800E+02  0.7818608E-02  0.1130116E+00
         25   -1    0    0    0    0  0.00000000000E+00  0.00000000000E+00  0.99999998245E-14  0.12500000000E+03  0.12500000000E+03 0.  0.
        -13    1    3    3    0    0  0.11373328336E+02  0.43980378717E+02 -0.16545234842E+02  0.48346481459E+02  0.10566000000E+00 0. -1.
         23    2    1    0    0    0  0.30102572712E+01 -0.23582694317E+01 -0.27945340912E+02  0.96794235301E+02  0.92593513948E+02 0.  0.
         13    1    3    3    0    0 -0.83630710652E+01 -0.46338648148E+02 -0.11400106070E+02  0.48447753842E+02  0.10566000000E+00 0.  1.
         22    1    1    0    0    0 -0.30102572712E+01  0.23582694317E+01  0.27945340912E+02  0.28205764699E+02  0.00000000000E+00 0. -1.
</event>
<event>
 5    1  0.6835449E-004  0.9118800E+02  0.7818608E-02  0.1130116E+00
         25   -1    0    0    0    0  0.00000000000E+00  0.00000000000E+00  0.99999998245E-14  0.12500000000E+03  0.12500000000E+03 0.  0.
        -13    1    3    3    0    0  0.34204717858E+02 -0.12141594280E+02  0.22632878474E+02  0.42774284184E+02  0.10566000000E+00 0.  1.
         23    2    1    0    0    0  0.12109518744E+02  0.22123447066E+02 -0.12733301553E+02  0.96747136026E+02  0.92529908713E+02 0.  0.
         13    1    3    3    0    0 -0.22095199113E+02  0.34265041346E+02 -0.35366180027E+02  0.53972851842E+02  0.10566000000E+00 0. -1.
         22    1    1    0    0    0 -0.12109518744E+02 -0.22123447066E+02  0.12733301553E+02  0.28252863974E+02  0.00000000000E+00 0. -1.
</event>
<event>
 5    1  0.6835449E-004  0.9118800E+02  0.7818608E-02  0.1130116E+00
         25   -1    0    0    0    0  0.00000000000E+00  0.00000000000E+00  0.99999998245E-14  0.12500000000E+03  0.12500000000E+03 0.  0.
        -13    1    3    3    0    0 -0.60864893551E+02  0.47509042552E+00  0.14363383216E+01  0.60883784456E+02  0.10566000000E+00 0.  1.
         23    2    1    0    0    0 -0.27449686763E+02 -0.57543044935E+01 -0.73786891935E+01  0.95999269357E+02  0.91514028101E+02 0.  0.
         13    1    3    3    0    0  0.33415206788E+02 -0.62293949190E+01 -0.88150275152E+01  0.35115484901E+02  0.10566000000E+00 0. -1.
         22    1    1    0    0    0  0.27449686763E+02  0.57543044935E+01  0.73786891935E+01  0.29000730643E+02  0.00000000000E+00 0.  1.
</event>
<event>
 5    1  0.6835449E-004  0.9118800E+02  0.7818608E-02  0.1130116E+00
         25   -1    0    0    0    0  0.00000000000E+00  0.00000000000E+00  0.99999998245E-14  0.12500000000E+03  0.12500000000E+03 0.  0.
        -13    1    3    3    0    0  0.32103523223E+02 -0.12650097924E+02  0.14488478831E+02  0.37424435382E+02  0.10566000000E+00 0. -1.
         23    2    1    0    0    0 -0.24519014897E+02 -0.16475083767E+02  0.32082973130E+01  0.95286305374E+02  0.90534945428E+02 0.  0.
         13    1    3    3    0    0 -0.56622538120E+02 -0.38249858424E+01 -0.11280181518E+02  0.57861869992E+02  0.10566000000E+00 0.  1.
         22    1    1    0    0    0  0.24519014897E+02  0.16475083767E+02 -0.32082973130E+01  0.29713694626E+02  0.00000000000E+00 0.  1.
</event>
<event>
 5    1  0.6835449E-004  0.9118800E+02  0.7818608E-02  0.1130116E+00
         25   -1    0    0    0    0  0.00000000000E+00  0.00000000000E+00  0.99999998245E-14  0.12500000000E+03  0.12500000000E+03 0.  0.
        -13    1    3    3    0    0  0.21749728065E+02 -0.27324944319E+02 -0.60410651896E+01  0.35443037195E+02  0.10566000000E+00 0.  1.
         23    2    1    0    0    0 -0.26105545955E+02  0.67344454704E+01  0.98564122824E+01  0.96294579807E+02  0.91916510768E+02 0.  0.
         13    1    3    3    0    0 -0.47855274019E+02  0.34059389789E+02  0.15897477472E+02  0.60851542612E+02  0.10566000000E+00 0. -1.
         22    1    1    0    0    0  0.26105545955E+02 -0.67344454704E+01 -0.98564122824E+01  0.28705420193E+02  0.00000000000E+00 0. -1.
</event>
<event>
 5    1  0.6835449E-004  0.9118800E+02  0.7818608E-02  0.1130116E+00
         25   -1    0    0    0    0  0.00000000000E+00  0.00000000000E+00  0.99999998245E-14  0.12500000000E+03  0.12500000000E+03 0.  0.
        -13    1    3    3    0    0 -0.31490277223E+02 -0.28882833888E+02  0.26943100160E+02  0.50515319095E+02  0.10566000000E+00 0.  1.
         23    2    1    0    0    0 -0.14163481293E+02  0.12106417217E+02  0.23301207130E+02  0.95165191573E+02  0.90367571026E+02 0.  0.
         13    1    3    3    0    0  0.17326795931E+02  0.40989251105E+02 -0.36418930299E+01  0.44649872478E+02  0.10566000000E+00 0. -1.
         22    1    1    0    0    0  0.14163481293E+02 -0.12106417217E+02 -0.23301207130E+02  0.29834808427E+02  0.00000000000E+00 0.  1.
</event>
<event>
 5    1  0.6835449E-004  0.9118800E+02  0.7818608E-02  0.1130116E+00
         25   -1    0    0    0    0  0.00000000000E+00  0.00000000000E+00  0.99999998245E-14  0.12500000000E+03  0.12500000000E+03 0.  0.
        -13    1    3    3    0    0 -0.16975511928E+02 -0.87088097590E+01  0.27138221448E+02  0.33173869236E+02  0.10566000000E+00 0. -1.
         23    2    1    0    0    0  0.22383437244E+02  0.11986752639E+02 -0.15885983068E+02  0.95048957285E+02  0.90206647878E+02 0.  0.
         13    1    3    3    0    0  0.39358949172E+02  0.20695562398E+02 -0.43024204516E+02  0.61875088050E+02  0.10566000000E+00 0.  1.
         22    1    1    0    0    0 -0.22383437244E+02 -0.11986752639E+02  0.15885983068E+02  0.29951042715E+02  0.00000000000E+00 0.  1.
</event>
<event>
 5    1  0.6835449E-004  0.9118800E+02  0.7818608E-02  0.1130116E+00
         25   -1    0    0    0    0  0.00000000000E+00  0.00000000000E+00  0.99999998245E-14  0.12500000000E+03  0.12500000000E+03 0.  0.
        -13    1    3    3    0    0 -0.45594896987E+02  0.25526787075E+02  0.12569010544E+02  0.53744792117E+02  0.10566000000E+00 0.  1.
         23    2    1    0    0    0 -0.26365497791E+02 -0.86210681094E+01 -0.52044789023E+01  0.96776802276E+02  0.92569976607E+02 0.  0.
         13    1    3    3    0    0  0.19229399195E+02 -0.34147855185E+02 -0.17773489447E+02  0.43032010159E+02  0.10566000000E+00 0. -1.
         22    1    1    0    0    0  0.26365497791E+02  0.86210681094E+01  0.52044789023E+01  0.28223197724E+02  0.00000000000E+00 0.  1.
</event>
<event>
 5    1  0.6835449E-004  0.9118800E+02  0.7818608E-02  0.1130116E+00
         25   -1    0    0    0    0  0.00000000000E+00  0.00000000000E+00  0.99999998245E-14  0.12500000000E+03  0.12500000000E+03 0.  0.
        -13    1    3    3    0    0 -0.21339696087E+02 -0.16552943264E+02 -0.19120203358E+02  0.33090420068E+02  0.10566000000E+00 0. -1.
         23    2    1    0    0    0 -0.72537812579E+00  0.32282274546E+02  0.66520967625E+01  0.92031502694E+02  0.85923661895E+02 0.  0.
         13    1    3    3    0    0  0.20614317961E+02  0.48835217810E+02  0.25772300121E+02  0.58941082626E+02  0.10566000000E+00 0.  1.
         22    1    1    0    0    0  0.72537812579E+00 -0.32282274546E+02 -0.66520967625E+01  0.32968497306E+02  0.00000000000E+00 0.  1.
</event>
<event>
 5    1  0.6835449E-004  0.9118800E+02  0.7818608E-02  0.1130116E+00
         25   -1    0    0    0    0  0.00000000000E+00  0.00000000000E+00  0.99999998245E-14  0.12500000000E+03  0.12500000000E+03 0.  0.
        -13    1    3    3    0    0 -0.15559477247E+02  0.37177067667E+02 -0.27347924439E+02  0.48704741326E+02  0.10566000000E+00 0. -1.
         23    2    1    0    0    0 -0.43167476331E+00  0.24314850462E+02  0.15659979786E+02  0.96075386554E+02  0.91617938410E+02 0.  0.
         13    1    3    3    0    0  0.15127802484E+02 -0.12862217204E+02  0.43007904225E+02  0.47370645228E+02  0.10566000000E+00 0.  1.
         22    1    1    0    0    0  0.43167476331E+00 -0.24314850462E+02 -0.15659979786E+02  0.28924613446E+02  0.00000000000E+00 0.  1.
</event>
<event>
 5    1  0.6835449E-004  0.9118800E+02  0.7818608E-02  0.1130116E+00
         25   -1    0    0    0    0  0.00000000000E+00  0.00000000000E+00  0.99999998245E-14  0.12500000000E+03  0.12500000000E+03 0.  0.
        -13    1    3    3    0    0 -0.38656302062E+02  0.34079613784E+02  0.32629552763E+02  0.60995316560E+02  0.10566000000E+00 0.  1.
         23    2    1    0    0    0 -0.17823200017E+02  0.21611864533E+02  0.73651764694E+01  0.96034762699E+02  0.91562496006E+02 0.  0.
         13    1    3    3    0    0  0.20833102044E+02 -0.12467749251E+02 -0.25264376294E+02  0.35039446139E+02  0.10566000000E+00 0. -1.
         22    1    1    0    0    0  0.17823200017E+02 -0.21611864533E+02 -0.73651764694E+01  0.28965237301E+02  0.00000000000E+00 0.  1.
</event>
<event>
 5    1  0.6835449E-004  0.9118800E+02  0.7818608E-02  0.1130116E+00
         25   -1    0    0    0    0  0.00000000000E+00  0.00000000000E+00  0.99999998245E-14  0.12500000000E+03  0.12500000000E+03 0.  0.
        -13    1    3    3    0    0  0.10264473601E+02 -0.93555212294E+01  0.32938283014E+02  0.35746704012E+02  0.10566000000E+00 0.  1.
         23    2    1    0    0    0  0.12672710060E+02 -0.20720415216E+00 -0.26336868562E+02  0.95772082533E+02  0.91203183241E+02 0.  0.
         13    1    3    3    0    0  0.24082364590E+01  0.91483170773E+01 -0.59275151576E+02  0.60025378521E+02  0.10566000000E+00 0. -1.
         22    1    1    0    0    0 -0.12672710060E+02  0.20720415216E+00  0.26336868562E+02  0.29227917467E+02  0.00000000000E+00 0. -1.
</event>
<event>
 5    1  0.6835449E-004  0.9118800E+02  0.7818608E-02  0.1130116E+00
         25   -1    0    0    0    0  0.00000000000E+00  0.00000000000E+00  0.99999998245E-14  0.12500000000E+03  0.12500000000E+03 0.  0.
        -13    1    3    3    0    0 -0.27380795690E+02  0.26470932730E+02  0.94270078928E+01  0.39233887063E+02  0.10566000000E+00 0. -1.
         23    2    1    0    0    0  0.26228640291E+02  0.69730407702E+01  0.93982818189E+01  0.96279056940E+02  0.91895398334E+02 0.  0.
         13    1    3    3    0    0  0.53609435981E+02 -0.19497891960E+02 -0.28726073918E-01  0.57045169877E+02  0.10566000000E+00 0.  1.
         22    1    1    0    0    0 -0.26228640291E+02 -0.69730407702E+01 -0.93982818189E+01  0.28720943060E+02  0.00000000000E+00 0.  1.
</event>
<event>
 5    1  0.6835449E-004  0.9118800E+02  0.7818608E-02  0.1130116E+00
         25   -1    0    0    0    0  0.00000000000E+00  0.00000000000E+00  0.99999998245E-14  0.12500000000E+03  0.12500000000E+03 0.  0.
        -13    1    3    3    0    0 -0.17554358873E+02 -0.22798659325E+02 -0.38666925545E+02  0.48198305755E+02  0.10566000000E+00 0.  1.
         23    2    1    0    0    0 -0.23115853667E+02 -0.13417755221E+02  0.87679083010E+01  0.96870743666E+02  0.92696741671E+02 0.  0.
         13    1    3    3    0    0 -0.55614947943E+01  0.93809041035E+01  0.47434833846E+02  0.48672437911E+02  0.10566000000E+00 0. -1.
         22    1    1    0    0    0  0.23115853667E+02  0.13417755221E+02 -0.87679083010E+01  0.28129256334E+02  0.00000000000E+00 0.  1.
</event>
<event>
 5    1  0.6835449E-004  0.9118800E+02  0.7818608E-02  0.1130116E+00
         25   -1    0    0    0    0  0.00000000000E+00  0.00000000000E+00  0.99999998245E-14  0.12500000000E+03  0.12500000000E+03 0.  0.
        -13    1    3    3    0    0 -0.79394718390E+01 -0.27135694491E+02 -0.52914453811E+02  0.59994430698E+02  0.10566000000E+00 0. -1.
         23    2    1    0    0    0  0.42579092941E+01  0.14919846978E+01 -0.16502625326E+02  0.10789174315E+03  0.10652669049E+03 0.  0.
         13    1    3    3    0    0  0.12197381133E+02  0.28627679188E+02  0.36411828485E+02  0.47897312450E+02  0.10566000000E+00 0.  1.
         22    1    1    0    0    0 -0.42579092941E+01 -0.14919846978E+01  0.16502625326E+02  0.17108256853E+02  0.00000000000E+00 0. -1.
</event>
<event>
 5    1  0.6835449E-004  0.9118800E+02  0.7818608E-02  0.1130116E+00
         25   -1    0    0    0    0  0.00000000000E+00  0.00000000000E+00  0.99999998245E-14  0.12500000000E+03  0.12500000000E+03 0.  0.
        -13    1    3    3    0    0  0.37483777951E+02 -0.35890686312E+02  0.21458758277E+01  0.51940263001E+02  0.10566000000E+00 0.  1.
         23    2    1    0    0    0  0.27123483594E+02  0.56569240073E+01 -0.84147005472E+01  0.96043285117E+02  0.91574129968E+02 0.  0.
         13    1    3    3    0    0 -0.10360294357E+02  0.41547610320E+02 -0.10560576375E+02  0.44103022117E+02  0.10566000000E+00 0. -1.
         22    1    1    0    0    0 -0.27123483594E+02 -0.56569240073E+01  0.84147005472E+01  0.28956714883E+02  0.00000000000E+00 0. -1.
</event>
<event>
 5    1  0.6835449E-004  0.9118800E+02  0.7818608E-02  0.1130116E+00
         25   -1    0    0    0    0  0.00000000000E+00  0.00000000000E+00  0.99999998245E-14  0.12500000000E+03  0.12500000000E+03 0.  0.
        -13    1    3    3    0    0  0.17239942564E+02 -0.47561085528E+02 -0.14543007481E+02  0.52638224769E+02  0.10566000000E+00 0. -1.
         23    2    1    0    0    0 -0.14566676142E+02 -0.25236642002E+02  0.38089681128E+01  0.95613193582E+02  0.90985154808E+02 0.  0.
         13    1    3    3    0    0 -0.31806618706E+02  0.22324443526E+02  0.18351975594E+02  0.42974968813E+02  0.10566000000E+00 0.  1.
         22    1    1    0    0    0  0.14566676142E+02  0.25236642002E+02 -0.38089681128E+01  0.29386806418E+02  0.00000000000E+00 0. -1.
</event>
<event>
 5    1  0.6835449E-004  0.9118800E+02  0.7818608E-02  0.1130116E+00
         25   -1    0    0    0    0  0.00000000000E+00  0.00000000000E+00  0.99999998245E-14  0.12500000000E+03  0.12500000000E+03 0.  0.
        -13    1    3    3    0    0 -0.30715546486E+02  0.74021572280E+01 -0.19728468471E+02  0.37248628966E+02  0.10566000000E+00 0. -1.
         23    2    1    0    0    0  0.14293671855E+01 -0.13150950787E+02  0.25410470276E+02  0.96352441696E+02  0.91995165221E+02 0.  0.
         13    1    3    3    0    0  0.32144913672E+02 -0.20553108015E+02  0.45138938747E+02  0.59103812730E+02  0.10566000000E+00 0.  1.
         22    1    1    0    0    0 -0.14293671855E+01  0.13150950787E+02 -0.25410470276E+02  0.28647558304E+02  0.00000000000E+00 0.  1.
</event>
<event>
 5    1  0.6835449E-004  0.9118800E+02  0.7818608E-02  0.1130116E+00
         25   -1    0    0    0    0  0.00000000000E+00  0.00000000000E+00  0.99999998245E-14  0.12500000000E+03  0.12500000000E+03 0.  0.
        -13    1    3    3    0    0 -0.12318226788E+02  0.26840070507E+02 -0.15504205448E+02  0.33354454674E+02  0.10566000000E+00 0.  1.
         23    2    1    0    0    0  0.65074266284E+01 -0.23551330493E+02  0.16094407451E+02  0.95741809343E+02  0.91161682387E+02 0.  0.
         13    1    3    3    0    0  0.18825653416E+02 -0.50391401000E+02  0.31598612899E+02  0.62387354668E+02  0.10566000000E+00 0. -1.
         22    1    1    0    0    0 -0.65074266284E+01  0.23551330493E+02 -0.16094407451E+02  0.29258190657E+02  0.00000000000E+00 0. -1.
</event>
<event>
 5    1  0.6835449E-004  0.9118800E+02  0.7818608E-02  0.1130116E+00
         25   -1    0    0    0    0  0.00000000000E+00  0.00000000000E+00  0.99999998245E-14  0.12500000000E+03  0.12500000000E+03 0.  0.
        -13    1    3    3    0    0 -0.45645812422E+00 -0.33539594336E+02 -0.56769801997E+01  0.34019876697E+02  0.10566000000E+00 0.  1.
         23    2    1    0    0    0  0.22968155771E+02  0.17288304839E+02  0.13580053829E+02  0.93206297389E+02  0.87616062153E+02 0.  0.
         13    1    3    3    0    0  0.23424613895E+02  0.50827899175E+02  0.19257034029E+02  0.59186420692E+02  0.10566000000E+00 0. -1.
         22    1    1    0    0    0 -0.22968155771E+02 -0.17288304839E+02 -0.13580053829E+02  0.31793702611E+02  0.00000000000E+00 0. -1.
</event>
<event>
 5    1  0.6835449E-004  0.9118800E+02  0.7818608E-02  0.1130116E+00
         25   -1    0    0    0    0  0.00000000000E+00  0.00000000000E+00  0.99999998245E-14  0.12500000000E+03  0.12500000000E+03 0.  0.
        -13    1    3    3    0    0 -0.24303690199E+00  0.31811693954E+02 -0.42585822540E+02  0.53156433144E+02  0.10566000000E+00 0. -1.
         23    2    1    0    0    0  0.14980686242E+02 -0.36599265584E+01 -0.25118738272E+02  0.95525145716E+02  0.90864109686E+02 0.  0.
         13    1    3    3    0    0  0.15223723144E+02 -0.35471620513E+02  0.17467084268E+02  0.42368712572E+02  0.10566000000E+00 0.  1.
         22    1    1    0    0    0 -0.14980686242E+02  0.36599265584E+01  0.25118738272E+02  0.29474854284E+02  0.00000000000E+00 0. -1.
</event>
<event>
 5    1  0.6835449E-004  0.9118800E+02  0.7818608E-02  0.1130116E+00
         25   -1    0    0    0    0  0.00000000000E+00  0.00000000000E+00  0.99999998245E-14  0.12500000000E+03  0.12500000000E+03 0.  0.
        -13    1    3    3    0    0  0.47020472521E+02  0.30237427355E+00  0.95947281032E+01  0.47990480699E+02  0.10566000000E+00 0.  1.
         23    2    1    0    0    0  0.64092936935E+01 -0.25861707737E+02  0.10635895608E+02  0.96311513667E+02  0.91939536744E+02 0.  0.
         13    1    3    3    0    0 -0.40611178828E+02 -0.26164082010E+02  0.10411675046E+01  0.48321032967E+02  0.10566000000E+00 0. -1.
         22    1    1    0    0    0 -0.64092936935E+01  0.25861707737E+02 -0.10635895608E+02  0.28688486333E+02  0.00000000000E+00 0. -1.
</event>
<event>
 5    1  0.6835449E-004  0.9118800E+02  0.7818608E-02  0.1130116E+00
         25   -1    0    0    0    0  0.00000000000E+00  0.00000000000E+00  0.99999998245E-14  0.12500000000E+03  0.12500000000E+03 0.  0.
        -13    1    3    3    0    0  0.26907898985E+02  0.18100277861E+02  0.28249706331E+02  0.43008280113E+02  0.10566000000E+00 0. -1.
         23    2    1    0    0    0  0.25291348989E+02  0.37987028000E+02 -0.20843750425E+01  0.79316181757E+02  0.64838610714E+02 0.  0.
         13    1    3    3    0    0 -0.16165499960E+01  0.19886750139E+02 -0.30334081374E+02  0.36307901644E+02  0.10566000000E+00 0.  1.
         22    1    1    0    0    0 -0.25291348989E+02 -0.37987028000E+02  0.20843750425E+01  0.45683818243E+02  0.00000000000E+00 0. -1.
</event>
<event>
 5    1  0.6835449E-004  0.9118800E+02  0.7818608E-02  0.1130116E+00
         25   -1    0    0    0    0  0.00000000000E+00  0.00000000000E+00  0.99999998245E-14  0.12500000000E+03  0.12500000000E+03 0.  0.
        -13    1    3    3    0    0  0.15442850144E+02 -0.31557604845E+02  0.27087167435E+01  0.35237939136E+02  0.10566000000E+00 0. -1.
         23    2    1    0    0    0 -0.28647146278E+02  0.86916637985E+01 -0.94514618070E+00  0.95048417224E+02  0.90205899508E+02 0.  0.
         13    1    3    3    0    0 -0.44089996422E+02  0.40249268643E+02 -0.36538629242E+01  0.59810478088E+02  0.10566000000E+00 0.  1.
         22    1    1    0    0    0  0.28647146278E+02 -0.86916637985E+01  0.94514618070E+00  0.29951582776E+02  0.00000000000E+00 0.  1.
</event>
<event>
 4    1  0.6835449E-004  0.9118800E+02  0.7818608E-02  0.1130116E+00
         25   -1    0    0    0    0  0.00000000000E+00  0.00000000000E+00  0.99999998245E-14  0.12500000000E+03  0.12500000000E+03 0.  0.
        -13    1    1    0    0    0 -0.14488933201E+01  0.80687364727E+01  0.40456882054E+01  0.91423496548E+01  0.10566000000E+00 0.  1.
         13    1    1    0    0    0 -0.49009650178E+01 -0.57527793789E+02  0.19193932534E+02  0.60843115687E+02  0.10566000000E+00 0. -1.
         22    1    1    0    0    0  0.63498583379E+01  0.49459057317E+02 -0.23239620739E+02  0.55014534658E+02  0.00000000000E+00 0. -1.
</event>
<event>
 5    1  0.6835449E-004  0.9118800E+02  0.7818608E-02  0.1130116E+00
         25   -1    0    0    0    0  0.00000000000E+00  0.00000000000E+00  0.99999998245E-14  0.12500000000E+03  0.12500000000E+03 0.  0.
        -13    1    3    3    0    0  0.27424943162E+02  0.20704184557E+02  0.29042339455E+02  0.44991770477E+02  0.10566000000E+00 0. -1.
         23    2    1    0    0    0 -0.15581195814E+02 -0.82799654325E+01  0.21159574790E+02  0.97448972871E+02  0.93473221929E+02 0.  0.
         13    1    3    3    0    0 -0.43006138976E+02 -0.28984149989E+02 -0.78827646650E+01  0.52457202394E+02  0.10566000000E+00 0.  1.
         22    1    1    0    0    0  0.15581195814E+02  0.82799654325E+01 -0.21159574790E+02  0.27551027129E+02  0.00000000000E+00 0.  1.
</event>
<event>
 5    1  0.6835449E-004  0.9118800E+02  0.7818608E-02  0.1130116E+00
         25   -1    0    0    0    0  0.00000000000E+00  0.00000000000E+00  0.99999998245E-14  0.12500000000E+03  0.12500000000E+03 0.  0.
        -13    1    3    3    0    0 -0.40387583698E+01 -0.41004737862E+02  0.23491159744E+02  0.47429377462E+02  0.10566000000E+00 0. -1.
         23    2    1    0    0    0  0.16441900787E+02  0.23468311678E+01  0.24517719149E+02  0.95386451238E+02  0.90673109627E+02 0.  0.
         13    1    3    3    0    0  0.20480659157E+02  0.43351569030E+02  0.10265594057E+01  0.47957073775E+02  0.10566000000E+00 0.  1.
         22    1    1    0    0    0 -0.16441900787E+02 -0.23468311678E+01 -0.24517719149E+02  0.29613548762E+02  0.00000000000E+00 0.  1.
</event>
<event>
 5    1  0.6835449E-004  0.9118800E+02  0.7818608E-02  0.1130116E+00
         25   -1    0    0    0    0  0.00000000000E+00  0.00000000000E+00  0.99999998245E-14  0.12500000000E+03  0.12500000000E+03 0.  0.
        -13    1    3    3    0    0 -0.25849447908E+02 -0.45354861186E+02  0.33429775081E+02  0.61990470367E+02  0.10566000000E+00 0. -1.
         23    2    1    0    0    0 -0.17272521801E+02 -0.19077698769E+02  0.15006278060E+02  0.95209280289E+02  0.90428535719E+02 0.  0.
         13    1    3    3    0    0  0.85769261072E+01  0.26277162417E+02 -0.18423497021E+02  0.33218809922E+02  0.10566000000E+00 0.  1.
         22    1    1    0    0    0  0.17272521801E+02  0.19077698769E+02 -0.15006278060E+02  0.29790719711E+02  0.00000000000E+00 0. -1.
</event>
<event>
 5    1  0.6835449E-004  0.9118800E+02  0.7818608E-02  0.1130116E+00
         25   -1    0    0    0    0  0.00000000000E+00  0.00000000000E+00  0.99999998245E-14  0.12500000000E+03  0.12500000000E+03 0.  0.
        -13    1    3    3    0    0 -0.22302421343E+02 -0.55419293569E+02 -0.10126764646E+02  0.60590912055E+02  0.10566000000E+00 0. -1.
         23    2    1    0    0    0 -0.15015053211E+02 -0.11967919022E+02 -0.61945058882E+01  0.10482440058E+03  0.10286447465E+03 0.  0.
         13    1    3    3    0    0  0.72873681317E+01  0.43451374548E+02  0.39322587580E+01  0.44233488528E+02  0.10566000000E+00 0.  1.
         22    1    1    0    0    0  0.15015053211E+02  0.11967919022E+02  0.61945058882E+01  0.20175599417E+02  0.00000000000E+00 0. -1.
</event>
<event>
 5    1  0.6835449E-004  0.9118800E+02  0.7818608E-02  0.1130116E+00
         25   -1    0    0    0    0  0.00000000000E+00  0.00000000000E+00  0.99999998245E-14  0.12500000000E+03  0.12500000000E+03 0.  0.
        -13    1    3    3    0    0  0.10637262752E+02 -0.26248622809E+02 -0.23223765790E+02  0.36626438808E+02  0.10566000000E+00 0.  1.
         23    2    1    0    0    0  0.14588959792E+02  0.17394009413E+02  0.17412248986E+02  0.96389237584E+02  0.92045148683E+02 0.  0.
         13    1    3    3    0    0  0.39516970399E+01  0.43642632221E+02  0.40636014776E+02  0.59762798777E+02  0.10566000000E+00 0. -1.
         22    1    1    0    0    0 -0.14588959792E+02 -0.17394009413E+02 -0.17412248986E+02  0.28610762416E+02  0.00000000000E+00 0. -1.
</event>
<event>
 5    1  0.6835449E-004  0.9118800E+02  0.7818608E-02  0.1130116E+00
         25   -1    0    0    0    0  0.00000000000E+00  0.00000000000E+00  0.99999998245E-14  0.12500000000E+03  0.12500000000E+03 0.  0.
        -13    1    3    3    0    0 -0.37692112295E+02  0.24554697155E+01 -0.42477299232E+02  0.56842385373E+02  0.10566000000E+00 0. -1.
         23    2    1    0    0    0 -0.18691311759E+02  0.19550450636E+02 -0.16340228686E+02  0.93399551762E+02  0.87891341670E+02 0.  0.
         13    1    3    3    0    0  0.19000800536E+02  0.17094980920E+02  0.26137070546E+02  0.36557166389E+02  0.10566000000E+00 0.  1.
         22    1    1    0    0    0  0.18691311759E+02 -0.19550450636E+02  0.16340228686E+02  0.31600448238E+02  0.00000000000E+00 0. -1.
</event>
<event>
 5    1  0.6835449E-004  0.9118800E+02  0.7818608E-02  0.1130116E+00
         25   -1    0    0    0    0  0.00000000000E+00  0.00000000000E+00  0.99999998245E-14  0.12500000000E+03  0.12500000000E+03 0.  0.
        -13    1    3    3    0    0 -0.35552720881E+02 -0.61892641532E+01  0.48465902540E+02  0.60425638812E+02  0.10566000000E+00 0.  1.
         23    2    1    0    0    0 -0.89913307534E+01 -0.11017340537E+02  0.25199613813E+02  0.96064790349E+02  0.91603480214E+02 0.  0.
         13    1    3    3    0    0  0.26561390128E+02 -0.48280763836E+01 -0.23266288728E+02  0.35639151537E+02  0.10566000000E+00 0. -1.
         22    1    1    0    0    0  0.89913307534E+01  0.11017340537E+02 -0.25199613813E+02  0.28935209651E+02  0.00000000000E+00 0.  1.
</event>
<event>
 5    1  0.6835449E-004  0.9118800E+02  0.7818608E-02  0.1130116E+00
         25   -1    0    0    0    0  0.00000000000E+00  0.00000000000E+00  0.99999998245E-14  0.12500000000E+03  0.12500000000E+03 0.  0.
        -13    1    3    3    0    0 -0.18710940874E+01  0.52547389435E+02 -0.47025775730E+01  0.52790667067E+02  0.10566000000E+00 0. -1.
         23    2    1    0    0    0  0.51916169270E+01  0.20831102504E+02  0.21563004196E+02  0.94572202383E+02  0.89543568143E+02 0.  0.
         13    1    3    3    0    0  0.70627110144E+01 -0.31716286931E+02  0.26265581769E+02  0.41781535315E+02  0.10566000000E+00 0.  1.
         22    1    1    0    0    0 -0.51916169270E+01 -0.20831102504E+02 -0.21563004196E+02  0.30427797617E+02  0.00000000000E+00 0.  1.
</event>
<event>
 5    1  0.6835449E-004  0.9118800E+02  0.7818608E-02  0.1130116E+00
         25   -1    0    0    0    0  0.00000000000E+00  0.00000000000E+00  0.99999998245E-14  0.12500000000E+03  0.12500000000E+03 0.  0.
        -13    1    3    3    0    0  0.15832706206E+02 -0.21924569104E+02 -0.27988724084E+02  0.38919675693E+02  0.10566000000E+00 0. -1.
         23    2    1    0    0    0 -0.27700405564E+02 -0.10573790818E+02  0.52936046190E+01  0.94881238895E+02  0.89973939137E+02 0.  0.
         13    1    3    3    0    0 -0.43533111769E+02  0.11350778286E+02  0.33282328703E+02  0.55961563202E+02  0.10566000000E+00 0.  1.
         22    1    1    0    0    0  0.27700405564E+02  0.10573790818E+02 -0.52936046190E+01  0.30118761105E+02  0.00000000000E+00 0.  1.
</event>
<event>
 5    1  0.6835449E-004  0.9118800E+02  0.7818608E-02  0.1130116E+00
         25   -1    0    0    0    0  0.00000000000E+00  0.00000000000E+00  0.99999998245E-14  0.12500000000E+03  0.12500000000E+03 0.  0.
        -13    1    3    3    0    0 -0.46791484551E+01  0.14986261261E+02 -0.51743651943E+02  0.54073090695E+02  0.10566000000E+00 0.  1.
         23    2    1    0    0    0 -0.15533720920E+02  0.21715721598E+02 -0.12168280204E+02  0.95658287485E+02  0.91047086012E+02 0.  0.
         13    1    3    3    0    0 -0.10854572465E+02  0.67294603372E+01  0.39575371739E+02  0.41585196791E+02  0.10566000000E+00 0. -1.
         22    1    1    0    0    0  0.15533720920E+02 -0.21715721598E+02  0.12168280204E+02  0.29341712515E+02  0.00000000000E+00 0.  1.
</event>
<event>
 5    1  0.6835449E-004  0.9118800E+02  0.7818608E-02  0.1130116E+00
         25   -1    0    0    0    0  0.00000000000E+00  0.00000000000E+00  0.99999998245E-14  0.12500000000E+03  0.12500000000E+03 0.  0.
        -13    1    3    3    0    0  0.27076318333E+02 -0.60521459449E+01  0.33723295788E+02  0.43669524017E+02  0.10566000000E+00 0.  1.
         23    2    1    0    0    0 -0.11068900036E+02 -0.26309249814E+02  0.38178399055E+01  0.96202898144E+02  0.91791745467E+02 0.  0.
         13    1    3    3    0    0 -0.38145218368E+02 -0.20257103869E+02 -0.29905455883E+02  0.52533374127E+02  0.10566000000E+00 0. -1.
         22    1    1    0    0    0  0.11068900036E+02  0.26309249814E+02 -0.38178399055E+01  0.28797101856E+02  0.00000000000E+00 0. -1.
</event>
<event>
 5    1  0.6835449E-004  0.9118800E+02  0.7818608E-02  0.1130116E+00
         25   -1    0    0    0    0  0.00000000000E+00  0.00000000000E+00  0.99999998245E-14  0.12500000000E+03  0.12500000000E+03 0.  0.
        -13    1    3    3    0    0  0.22495864481E+02 -0.23224019628E+02  0.28608681558E+02  0.43172755656E+02  0.10566000000E+00 0.  1.
         23    2    1    0    0    0 -0.19939788131E+01 -0.26244826657E+02 -0.16033355016E+02  0.94180601064E+02  0.88995226085E+02 0.  0.
         13    1    3    3    0    0 -0.24489843294E+02 -0.30208070285E+01 -0.44642036574E+02  0.51007845408E+02  0.10566000000E+00 0. -1.
         22    1    1    0    0    0  0.19939788131E+01  0.26244826657E+02  0.16033355016E+02  0.30819398936E+02  0.00000000000E+00 0.  1.
</event>
<event>
 5    1  0.6835449E-004  0.9118800E+02  0.7818608E-02  0.1130116E+00
         25   -1    0    0    0    0  0.00000000000E+00  0.00000000000E+00  0.99999998245E-14  0.12500000000E+03  0.12500000000E+03 0.  0.
        -13    1    3    3    0    0  0.23319994834E+02  0.37260065099E+02  0.42048522986E+02  0.60829467033E+02  0.10566000000E+00 0. -1.
         23    2    1    0    0    0  0.27277677582E+01  0.18493560305E+02  0.25984883511E+02  0.92989585120E+02  0.87306335853E+02 0.  0.
         13    1    3    3    0    0 -0.20592227076E+02 -0.18766504794E+02 -0.16063639474E+02  0.32160118087E+02  0.10566000000E+00 0.  1.
         22    1    1    0    0    0 -0.27277677582E+01 -0.18493560305E+02 -0.25984883511E+02  0.32010414880E+02  0.00000000000E+00 0. -1.
</event>
<event>
 5    1  0.6835449E-004  0.9118800E+02  0.7818608E-02  0.1130116E+00
         25   -1    0    0    0    0  0.00000000000E+00  0.00000000000E+00  0.99999998245E-14  0.12500000000E+03  0.12500000000E+03 0.  0.
        -13    1    3    3    0    0  0.49731576440E+02 -0.18541347904E+02 -0.29111770546E+02  0.60535259360E+02  0.10566000000E+00 0.  1.
         23    2    1    0    0    0  0.28532420310E+02 -0.80775469034E+01 -0.39108564330E+01  0.95089457197E+02  0.90262751450E+02 0.  0.
         13    1    3    3    0    0 -0.21199156130E+02  0.10463801001E+02  0.25200914113E+02  0.34554197838E+02  0.10566000000E+00 0. -1.
         22    1    1    0    0    0 -0.28532420310E+02  0.80775469034E+01  0.39108564330E+01  0.29910542803E+02  0.00000000000E+00 0.  1.
</event>
<event>
 5    1  0.6835449E-004  0.9118800E+02  0.7818608E-02  0.1130116E+00
         25   -1    0    0    0    0  0.00000000000E+00  0.00000000000E+00  0.99999998245E-14  0.12500000000E+03  0.12500000000E+03 0.  0.
        -13    1    3    3    0    0 -0.18345363117E+02 -0.53608569289E+02  0.48227259214E+01  0.56865638996E+02  0.10566000000E+00 0. -1.
         23    2    1    0    0    0  0.88724054444E+01 -0.26923998624E+02  0.91129517805E+01  0.95223042962E+02  0.90447557958E+02 0.  0.
         13    1    3    3    0    0  0.27217768562E+02  0.26684570665E+02  0.42902258592E+01  0.38357403966E+02  0.10566000000E+00 0.  1.
         22    1    1    0    0    0 -0.88724054444E+01  0.26923998624E+02 -0.91129517805E+01  0.29776957038E+02  0.00000000000E+00 0. -1.
</event>
<event>
 5    1  0.6835449E-004  0.9118800E+02  0.7818608E-02  0.1130116E+00
         25   -1    0    0    0    0  0.00000000000E+00  0.00000000000E+00  0.99999998245E-14  0.12500000000E+03  0.12500000000E+03 0.  0.
        -13    1    3    3    0    0 -0.44464428731E+01  0.39759129789E+02  0.24339988025E+02  0.46829535945E+02  0.10566000000E+00 0.  1.
         23    2    1    0    0    0 -0.12184473540E+02 -0.10249894421E+02  0.22459977558E+02  0.97468702846E+02  0.93499602735E+02 0.  0.
         13    1    3    3    0    0 -0.77380306668E+01 -0.50009024210E+02 -0.18800104671E+01  0.50639166901E+02  0.10566000000E+00 0. -1.
         22    1    1    0    0    0  0.12184473540E+02  0.10249894421E+02 -0.22459977558E+02  0.27531297154E+02  0.00000000000E+00 0. -1.
</event>
<event>
 5    1  0.6835449E-004  0.9118800E+02  0.7818608E-02  0.1130116E+00
         25   -1    0    0    0    0  0.00000000000E+00  0.00000000000E+00  0.99999998245E-14  0.12500000000E+03  0.12500000000E+03 0.  0.
        -13    1    3    3    0    0 -0.47734648524E+02  0.19907934023E+02 -0.94643219160E+01  0.52578579860E+02  0.10566000000E+00 0. -1.
         23    2    1    0    0    0 -0.12645819527E+02 -0.19134514639E+01 -0.25156667997E+02  0.96778802422E+02  0.92572677425E+02 0.  0.
         13    1    3    3    0    0  0.35088828997E+02 -0.21821385487E+02 -0.15692346081E+02  0.44200222562E+02  0.10566000000E+00 0.  1.
         22    1    1    0    0    0  0.12645819527E+02  0.19134514639E+01  0.25156667997E+02  0.28221197578E+02  0.00000000000E+00 0. -1.
</event>
<event>
 5    1  0.6835449E-004  0.9118800E+02  0.7818608E-02  0.1130116E+00
         25   -1    0    0    0    0  0.00000000000E+00  0.00000000000E+00  0.99999998245E-14  0.12500000000E+03  0.12500000000E+03 0.  0.
        -13    1    3    3    0    0 -0.42337712584E+02  0.32771212257E+02 -0.94113532639E+01  0.54360086405E+02  0.10566000000E+00 0. -1.
         23    2    1    0    0    0 -0.27640892471E+02 -0.33750896530E+01 -0.14319736445E+02  0.93687621958E+02  0.88300087710E+02 0.  0.
         13    1    3    3    0    0  0.14696820113E+02 -0.36146301910E+02 -0.49083831814E+01  0.39327535553E+02  0.10566000000E+00 0.  1.
         22    1    1    0    0    0  0.27640892471E+02  0.33750896530E+01  0.14319736445E+02  0.31312378042E+02  0.00000000000E+00 0. -1.
</event>
<event>
 5    1  0.6835449E-004  0.9118800E+02  0.7818608E-02  0.1130116E+00
         25   -1    0    0    0    0  0.00000000000E+00  0.00000000000E+00  0.99999998245E-14  0.12500000000E+03  0.12500000000E+03 0.  0.
        -13    1    3    3    0    0 -0.25154075319E+02  0.34342513567E+02 -0.24528273645E+02  0.49130266794E+02  0.10566000000E+00 0.  1.
         23    2    1    0    0    0 -0.16580534083E+02 -0.11160554787E+02 -0.21666901702E+02  0.95522436956E+02  0.90860383221E+02 0.  0.
         13    1    3    3    0    0  0.85735412356E+01 -0.45503068354E+02  0.28613719434E+01  0.46392170162E+02  0.10566000000E+00 0. -1.
         22    1    1    0    0    0  0.16580534083E+02  0.11160554787E+02  0.21666901702E+02  0.29477563044E+02  0.00000000000E+00 0. -1.
</event>
<event>
 5    1  0.6835449E-004  0.9118800E+02  0.7818608E-02  0.1130116E+00
         25   -1    0    0    0    0  0.00000000000E+00  0.00000000000E+00  0.99999998245E-14  0.12500000000E+03  0.12500000000E+03 0.  0.
        -13    1    3    3    0    0  0.27489343580E+02 -0.11181228255E+02  0.24377033624E+02  0.38404880003E+02  0.10566000000E+00 0.  1.
         23    2    1    0    0    0  0.10774683247E+02  0.14708366693E+02 -0.23447321294E+02  0.95298034986E+02  0.90551138847E+02 0.  0.
         13    1    3    3    0    0 -0.16714660333E+02  0.25889594948E+02 -0.47824354917E+02  0.56893154983E+02  0.10566000000E+00 0. -1.
         22    1    1    0    0    0 -0.10774683247E+02 -0.14708366693E+02  0.23447321294E+02  0.29701965014E+02  0.00000000000E+00 0. -1.
</event>
<event>
 5    1  0.6835449E-004  0.9118800E+02  0.7818608E-02  0.1130116E+00
         25   -1    0    0    0    0  0.00000000000E+00  0.00000000000E+00  0.99999998245E-14  0.12500000000E+03  0.12500000000E+03 0.  0.
        -13    1    3    3    0    0  0.13901084615E+02 -0.26912535836E+02  0.16007515973E+02  0.34260421338E+02  0.10566000000E+00 0.  1.
         23    2    1    0    0    0 -0.25017385459E+02  0.12292576907E+02 -0.10088423519E+02  0.95356226432E+02  0.90631432782E+02 0.  0.
         13    1    3    3    0    0 -0.38918470074E+02  0.39205112743E+02 -0.26095939492E+02  0.61095805094E+02  0.10566000000E+00 0. -1.
         22    1    1    0    0    0  0.25017385459E+02 -0.12292576907E+02  0.10088423519E+02  0.29643773568E+02  0.00000000000E+00 0. -1.
</event>
<event>
 5    1  0.6835449E-004  0.9118800E+02  0.7818608E-02  0.1130116E+00
         25   -1    0    0    0    0  0.00000000000E+00  0.00000000000E+00  0.99999998245E-14  0.12500000000E+03  0.12500000000E+03 0.  0.
        -13    1    3    3    0    0  0.15976596999E+02  0.44106643241E+02 -0.35683844565E+02  0.58940610419E+02  0.10566000000E+00 0. -1.
         23    2    1    0    0    0  0.20904765367E+02  0.14239112337E+02 -0.15215093930E+02  0.95482875844E+02  0.90805941220E+02 0.  0.
         13    1    3    3    0    0  0.49281683681E+01 -0.29867530904E+02  0.20468750635E+02  0.36542265424E+02  0.10566000000E+00 0.  1.
         22    1    1    0    0    0 -0.20904765367E+02 -0.14239112337E+02  0.15215093930E+02  0.29517124156E+02  0.00000000000E+00 0. -1.
</event>
<event>
 5    1  0.6835449E-004  0.9118800E+02  0.7818608E-02  0.1130116E+00
         25   -1    0    0    0    0  0.00000000000E+00  0.00000000000E+00  0.99999998245E-14  0.12500000000E+03  0.12500000000E+03 0.  0.
        -13    1    3    3    0    0  0.18947585857E+02  0.33529455798E+01 -0.59141571849E+02  0.62193166334E+02  0.10566000000E+00 0.  1.
         23    2    1    0    0    0  0.92104234916E+01  0.60086477623E+01 -0.28647886423E+02  0.94313893285E+02  0.89182247792E+02 0.  0.
         13    1    3    3    0    0 -0.97371623651E+01  0.26557021825E+01  0.30493685426E+02  0.32120726951E+02  0.10566000000E+00 0. -1.
         22    1    1    0    0    0 -0.92104234916E+01 -0.60086477623E+01  0.28647886423E+02  0.30686106715E+02  0.00000000000E+00 0.  1.
</event>
<event>
 5    1  0.6835449E-004  0.9118800E+02  0.7818608E-02  0.1130116E+00
         25   -1    0    0    0    0  0.00000000000E+00  0.00000000000E+00  0.99999998245E-14  0.12500000000E+03  0.12500000000E+03 0.  0.
        -13    1    3    3    0    0  0.14166589287E+02 -0.44804113394E+02  0.21035904596E+01  0.47037613522E+02  0.10566000000E+00 0.  1.
         23    2    1    0    0    0 -0.15783732774E+02 -0.11939580731E+02  0.21701217264E+02  0.95629561817E+02  0.91007639538E+02 0.  0.
         13    1    3    3    0    0 -0.29950322061E+02  0.32864532663E+02  0.19597626804E+02  0.48591948295E+02  0.10566000000E+00 0. -1.
         22    1    1    0    0    0  0.15783732774E+02  0.11939580731E+02 -0.21701217264E+02  0.29370438183E+02  0.00000000000E+00 0. -1.
</event>
<event>
 5    1  0.6835449E-004  0.9118800E+02  0.7818608E-02  0.1130116E+00
         25   -1    0    0    0    0  0.00000000000E+00  0.00000000000E+00  0.99999998245E-14  0.12500000000E+03  0.12500000000E+03 0.  0.
        -13    1    3    3    0    0  0.64010657935E+01 -0.55439394325E+02 -0.11835990242E+02  0.57049118446E+02  0.10566000000E+00 0. -1.
         23    2    1    0    0    0 -0.34025044585E+01 -0.26333201828E+02  0.11937185834E+02  0.95887958492E+02  0.91361860878E+02 0.  0.
         13    1    3    3    0    0 -0.98035702520E+01  0.29106192497E+02  0.23773176076E+02  0.38838840046E+02  0.10566000000E+00 0.  1.
         22    1    1    0    0    0  0.34025044585E+01  0.26333201828E+02 -0.11937185834E+02  0.29112041508E+02  0.00000000000E+00 0. -1.
</event>
<event>
 5    1  0.6835449E-004  0.9118800E+02  0.7818608E-02  0.1130116E+00
         25   -1    0    0    0    0  0.00000000000E+00  0.00000000000E+00  0.99999998245E-14  0.12500000000E+03  0.12500000000E+03 0.  0.
        -13    1    3    3    0    0 -0.28050423373E+02  0.37407881412E+02 -0.18624614743E+02  0.50329546804E+02  0.10566000000E+00 0. -1.
         23    2    1    0    0    0 -0.10286163250E+02  0.15336486507E+02  0.19705386984E+02  0.97994162687E+02  0.94199472779E+02 0.  0.
         13    1    3    3    0    0  0.17764260123E+02 -0.22071394906E+02  0.38330001727E+02  0.47664615883E+02  0.10566000000E+00 0.  1.
         22    1    1    0    0    0  0.10286163250E+02 -0.15336486507E+02 -0.19705386984E+02  0.27005837313E+02  0.00000000000E+00 0.  1.
</event>
<event>
 5    1  0.6835449E-004  0.9118800E+02  0.7818608E-02  0.1130116E+00
         25   -1    0    0    0    0  0.00000000000E+00  0.00000000000E+00  0.99999998245E-14  0.12500000000E+03  0.12500000000E+03 0.  0.
        -13    1    3    3    0    0 -0.18893864853E+02  0.15873452466E+02  0.42469983657E+02  0.49118787629E+02  0.10566000000E+00 0.  1.
         23    2    1    0    0    0 -0.25174959397E+02 -0.13602117285E+02  0.72341757462E+01  0.95485097425E+02  0.90808999313E+02 0.  0.
         13    1    3    3    0    0 -0.62810945441E+01 -0.29475569752E+02 -0.35235807911E+02  0.46366309795E+02  0.10566000000E+00 0. -1.
         22    1    1    0    0    0  0.25174959397E+02  0.13602117285E+02 -0.72341757462E+01  0.29514902575E+02  0.00000000000E+00 0. -1.
</event>
<event>
 5    1  0.6835449E-004  0.9118800E+02  0.7818608E-02  0.1130116E+00
         25   -1    0    0    0    0  0.00000000000E+00  0.00000000000E+00  0.99999998245E-14  0.12500000000E+03  0.12500000000E+03 0.  0.
        -13    1    3    3    0    0  0.34126693285E+02 -0.74410814085E+01  0.13431967772E+02  0.37422316996E+02  0.10566000000E+00 0.  1.
         23    2    1    0    0    0 -0.18338884842E+02  0.14477101276E+02  0.19449223256E+02  0.94599778884E+02  0.89582055799E+02 0.  0.
         13    1    3    3    0    0 -0.52465578127E+02  0.21918182685E+02  0.60172554840E+01  0.57177461889E+02  0.10566000000E+00 0. -1.
         22    1    1    0    0    0  0.18338884842E+02 -0.14477101276E+02 -0.19449223256E+02  0.30400221116E+02  0.00000000000E+00 0. -1.
</event>
<event>
 5    1  0.6835449E-004  0.9118800E+02  0.7818608E-02  0.1130116E+00
         25   -1    0    0    0    0  0.00000000000E+00  0.00000000000E+00  0.99999998245E-14  0.12500000000E+03  0.12500000000E+03 0.  0.
        -13    1    3    3    0    0 -0.41347457933E+02 -0.14525183063E+02  0.17865130475E+02  0.47326179557E+02  0.10566000000E+00 0. -1.
         23    2    1    0    0    0 -0.19638252384E+01  0.12473868005E+02  0.26309768420E+02  0.95816821508E+02  0.91264480369E+02 0.  0.
         13    1    3    3    0    0  0.39383632694E+02  0.26999051068E+02  0.84446379450E+01  0.48490641951E+02  0.10566000000E+00 0.  1.
         22    1    1    0    0    0  0.19638252384E+01 -0.12473868005E+02 -0.26309768420E+02  0.29183178492E+02  0.00000000000E+00 0. -1.
</event>
<event>
 5    1  0.6835449E-004  0.9118800E+02  0.7818608E-02  0.1130116E+00
         25   -1    0    0    0    0  0.00000000000E+00  0.00000000000E+00  0.99999998245E-14  0.12500000000E+03  0.12500000000E+03 0.  0.
        -13    1    3    3    0    0 -0.10221178909E+02  0.72523081528E+01 -0.52729070807E+02  0.54198104616E+02  0.10566000000E+00 0.  1.
         23    2    1    0    0    0  0.49095446119E+01 -0.17234147663E+02 -0.25593793207E+02  0.93756413063E+02  0.88397416623E+02 0.  0.
         13    1    3    3    0    0  0.15130723521E+02 -0.24486455816E+02  0.27135277599E+02  0.39558308446E+02  0.10566000000E+00 0. -1.
         22    1    1    0    0    0 -0.49095446119E+01  0.17234147663E+02  0.25593793207E+02  0.31243586937E+02  0.00000000000E+00 0.  1.
</event>
<event>
 5    1  0.6835449E-004  0.9118800E+02  0.7818608E-02  0.1130116E+00
         25   -1    0    0    0    0  0.00000000000E+00  0.00000000000E+00  0.99999998245E-14  0.12500000000E+03  0.12500000000E+03 0.  0.
        -13    1    3    3    0    0 -0.45446603748E+02 -0.18088602948E+02 -0.12019664575E+02  0.50369384048E+02  0.10566000000E+00 0. -1.
         23    2    1    0    0    0 -0.12283932375E+01 -0.48804399866E+01 -0.25943391046E+02  0.98572983835E+02  0.94964445761E+02 0.  0.
         13    1    3    3    0    0  0.44218210510E+02  0.13208162962E+02 -0.13923726471E+02  0.48203599787E+02  0.10566000000E+00 0.  1.
         22    1    1    0    0    0  0.12283932375E+01  0.48804399866E+01  0.25943391046E+02  0.26427016165E+02  0.00000000000E+00 0.  1.
</event>
<event>
 5    1  0.6835449E-004  0.9118800E+02  0.7818608E-02  0.1130116E+00
         25   -1    0    0    0    0  0.00000000000E+00  0.00000000000E+00  0.99999998245E-14  0.12500000000E+03  0.12500000000E+03 0.  0.
        -13    1    3    3    0    0  0.31580341738E+02 -0.21872961188E+02 -0.41644713190E+02  0.56657194743E+02  0.10566000000E+00 0.  1.
         23    2    1    0    0    0  0.31271733591E+02 -0.10492657268E+02 -0.96271417401E+01  0.90638698563E+02  0.83872967283E+02 0.  0.
         13    1    3    3    0    0 -0.30860814721E+00  0.11380303921E+02  0.32017571450E+02  0.33981503820E+02  0.10566000000E+00 0. -1.
         22    1    1    0    0    0 -0.31271733591E+02  0.10492657268E+02  0.96271417401E+01  0.34361301437E+02  0.00000000000E+00 0.  1.
</event>
<event>
 5    1  0.6835449E-004  0.9118800E+02  0.7818608E-02  0.1130116E+00
         25   -1    0    0    0    0  0.00000000000E+00  0.00000000000E+00  0.99999998245E-14  0.12500000000E+03  0.12500000000E+03 0.  0.
        -13    1    3    3    0    0  0.13551553515E+02 -0.39151585135E+02 -0.14676062534E+02  0.43953261503E+02  0.10566000000E+00 0.  1.
         23    2    1    0    0    0 -0.12034581970E+01  0.91693930491E+01 -0.27422574751E+02  0.96059998505E+02  0.91596941141E+02 0.  0.
         13    1    3    3    0    0 -0.14755011712E+02  0.48320978184E+02 -0.12746512218E+02  0.52106737002E+02  0.10566000000E+00 0. -1.
         22    1    1    0    0    0  0.12034581970E+01 -0.91693930491E+01  0.27422574751E+02  0.28940001495E+02  0.00000000000E+00 0. -1.
</event>
<event>
 5    1  0.6835449E-004  0.9118800E+02  0.7818608E-02  0.1130116E+00
         25   -1    0    0    0    0  0.00000000000E+00  0.00000000000E+00  0.99999998245E-14  0.12500000000E+03  0.12500000000E+03 0.  0.
        -13    1    3    3    0    0 -0.11105969163E+02  0.14447807372E+02 -0.32690091479E+02  0.37426393546E+02  0.10566000000E+00 0. -1.
         23    2    1    0    0    0  0.17595340130E+02 -0.24295336120E+02 -0.12722970168E+01  0.94975375254E+02  0.90104627037E+02 0.  0.
         13    1    3    3    0    0  0.28701309293E+02 -0.38743143492E+02  0.31417794462E+02  0.57548981708E+02  0.10566000000E+00 0.  1.
         22    1    1    0    0    0 -0.17595340130E+02  0.24295336120E+02  0.12722970168E+01  0.30024624746E+02  0.00000000000E+00 0.  1.
</event>
<event>
 5    1  0.6835449E-004  0.9118800E+02  0.7818608E-02  0.1130116E+00
         25   -1    0    0    0    0  0.00000000000E+00  0.00000000000E+00  0.99999998245E-14  0.12500000000E+03  0.12500000000E+03 0.  0.
        -13    1    3    3    0    0 -0.27215324055E+02  0.19232573420E+02  0.30122844468E+02  0.44921739355E+02  0.10566000000E+00 0.  1.
         23    2    1    0    0    0  0.15783029837E+02 -0.87348530089E+01  0.21499446921E+02  0.96935290741E+02  0.92783741492E+02 0.  0.
         13    1    3    3    0    0  0.42998353892E+02 -0.27967426428E+02 -0.86233975475E+01  0.52013551386E+02  0.10566000000E+00 0. -1.
         22    1    1    0    0    0 -0.15783029837E+02  0.87348530089E+01 -0.21499446921E+02  0.28064709259E+02  0.00000000000E+00 0. -1.
</event>
<event>
 5    1  0.6835449E-004  0.9118800E+02  0.7818608E-02  0.1130116E+00
         25   -1    0    0    0    0  0.00000000000E+00  0.00000000000E+00  0.99999998245E-14  0.12500000000E+03  0.12500000000E+03 0.  0.
        -13    1    3    3    0    0  0.64867130988E+00 -0.30544483674E+02 -0.38593470811E+02  0.49222488871E+02  0.10566000000E+00 0.  1.
         23    2    1    0    0    0  0.17668799749E+02 -0.23332122422E+02  0.38153901752E+01  0.95485061012E+02  0.90808949190E+02 0.  0.
         13    1    3    3    0    0  0.17020128439E+02  0.72123612522E+01  0.42408860987E+02  0.46262572141E+02  0.10566000000E+00 0. -1.
         22    1    1    0    0    0 -0.17668799749E+02  0.23332122422E+02 -0.38153901752E+01  0.29514938988E+02  0.00000000000E+00 0.  1.
</event>
<event>
 5    1  0.6835449E-004  0.9118800E+02  0.7818608E-02  0.1130116E+00
         25   -1    0    0    0    0  0.00000000000E+00  0.00000000000E+00  0.99999998245E-14  0.12500000000E+03  0.12500000000E+03 0.  0.
        -13    1    3    3    0    0 -0.21452173862E+02 -0.42195469012E+02  0.73698672831E+01  0.47905944061E+02  0.10566000000E+00 0. -1.
         23    2    1    0    0    0 -0.15964366095E+02  0.34453304914E+01  0.23290056879E+02  0.96554296697E+02  0.92269031501E+02 0.  0.
         13    1    3    3    0    0  0.54878077675E+01  0.45640799503E+02  0.15920189596E+02  0.48648352636E+02  0.10566000000E+00 0.  1.
         22    1    1    0    0    0  0.15964366095E+02 -0.34453304914E+01 -0.23290056879E+02  0.28445703303E+02  0.00000000000E+00 0.  1.
</event>
<event>
 5    1  0.6835449E-004  0.9118800E+02  0.7818608E-02  0.1130116E+00
         25   -1    0    0    0    0  0.00000000000E+00  0.00000000000E+00  0.99999998245E-14  0.12500000000E+03  0.12500000000E+03 0.  0.
        -13    1    3    3    0    0  0.14779100415E+02  0.10968274513E+00 -0.51426116550E+02  0.53507854253E+02  0.10566000000E+00 0. -1.
         23    2    1    0    0    0 -0.24684506385E+00 -0.22424265113E+02 -0.20511784414E+02  0.94608522606E+02  0.89594255684E+02 0.  0.
         13    1    3    3    0    0 -0.15025945478E+02 -0.22533947858E+02  0.30914332136E+02  0.41100668353E+02  0.10566000000E+00 0.  1.
         22    1    1    0    0    0  0.24684506385E+00  0.22424265113E+02  0.20511784414E+02  0.30391477394E+02  0.00000000000E+00 0. -1.
</event>
<event>
 5    1  0.6835449E-004  0.9118800E+02  0.7818608E-02  0.1130116E+00
         25   -1    0    0    0    0  0.00000000000E+00  0.00000000000E+00  0.99999998245E-14  0.12500000000E+03  0.12500000000E+03 0.  0.
        -13    1    3    3    0    0 -0.89776028496E+00 -0.53591094915E+02 -0.31147882649E+02  0.61992041306E+02  0.10566000000E+00 0.  1.
         23    2    1    0    0    0 -0.59997441647E+01 -0.23900202599E+02 -0.14316014369E+02  0.96501493342E+02  0.92197469247E+02 0.  0.
         13    1    3    3    0    0 -0.51019838798E+01  0.29690892315E+02  0.16831868281E+02  0.34509452036E+02  0.10566000000E+00 0. -1.
         22    1    1    0    0    0  0.59997441647E+01  0.23900202599E+02  0.14316014369E+02  0.28498506658E+02  0.00000000000E+00 0.  1.
</event>
<event>
 5    1  0.6835449E-004  0.9118800E+02  0.7818608E-02  0.1130116E+00
         25   -1    0    0    0    0  0.00000000000E+00  0.00000000000E+00  0.99999998245E-14  0.12500000000E+03  0.12500000000E+03 0.  0.
        -13    1    3    3    0    0  0.12505898365E+02  0.37360846800E+02 -0.94880114964E+01  0.40524855259E+02  0.10566000000E+00 0.  1.
         23    2    1    0    0    0  0.12891853984E+02 -0.16332618497E+02 -0.20997034009E+02  0.95439388313E+02  0.90746058197E+02 0.  0.
         13    1    3    3    0    0  0.38595561918E+00 -0.53693465297E+02 -0.11509022513E+02  0.54914533054E+02  0.10566000000E+00 0. -1.
         22    1    1    0    0    0 -0.12891853984E+02  0.16332618497E+02  0.20997034009E+02  0.29560611687E+02  0.00000000000E+00 0. -1.
</event>
<event>
 4    1  0.6835449E-004  0.9118800E+02  0.7818608E-02  0.1130116E+00
         25   -1    0    0    0    0  0.00000000000E+00  0.00000000000E+00  0.99999998245E-14  0.12500000000E+03  0.12500000000E+03 0.  0.
        -13    1    1    0    0    0  0.90711989835E+01  0.21865848582E+02 -0.24317899118E+02  0.33937786709E+02  0.10566000000E+00 0. -1.
         13    1    1    0    0    0 -0.28838485973E+02 -0.13257505381E+02 -0.22910746424E+02  0.39145027627E+02  0.10566000000E+00 0.  1.
         22    1    1    0    0    0  0.19767286989E+02 -0.86083432008E+01  0.47228645542E+02  0.51917185664E+02  0.00000000000E+00 0.  1.
</event>
<event>
 5    1  0.6835449E-004  0.9118800E+02  0.7818608E-02  0.1130116E+00
         25   -1    0    0    0    0  0.00000000000E+00  0.00000000000E+00  0.99999998245E-14  0.12500000000E+03  0.12500000000E+03 0.  0.
        -13    1    3    3    0    0 -0.31245612570E+01 -0.53693979690E+02 -0.12990913917E+02  0.55331558323E+02  0.10566000000E+00 0.  1.
         23    2    1    0    0    0  0.18483803338E+02 -0.22232204551E+02  0.12275127084E+01  0.96061639775E+02  0.91599180912E+02 0.  0.
         13    1    3    3    0    0  0.21608364595E+02  0.31461775139E+02  0.14218426626E+02  0.40730081452E+02  0.10566000000E+00 0. -1.
         22    1    1    0    0    0 -0.18483803338E+02  0.22232204551E+02 -0.12275127084E+01  0.28938360225E+02  0.00000000000E+00 0.  1.
</event>
<event>
 5    1  0.6835449E-004  0.9118800E+02  0.7818608E-02  0.1130116E+00
         25   -1    0    0    0    0  0.00000000000E+00  0.00000000000E+00  0.99999998245E-14  0.12500000000E+03  0.12500000000E+03 0.  0.
        -13    1    3    3    0    0  0.45496347195E+02 -0.32591757125E+02  0.22171683808E+02  0.60197466454E+02  0.10566000000E+00 0. -1.
         23    2    1    0    0    0  0.26502281482E+02 -0.10898957284E+02  0.37626392807E+00  0.96341671923E+02  0.91980530444E+02 0.  0.
         13    1    3    3    0    0 -0.18994065713E+02  0.21692799841E+02 -0.21795419880E+02  0.36144205469E+02  0.10566000000E+00 0.  1.
         22    1    1    0    0    0 -0.26502281482E+02  0.10898957284E+02 -0.37626392807E+00  0.28658328077E+02  0.00000000000E+00 0. -1.
</event>
<event>
 5    1  0.6835449E-004  0.9118800E+02  0.7818608E-02  0.1130116E+00
         25   -1    0    0    0    0  0.00000000000E+00  0.00000000000E+00  0.99999998245E-14  0.12500000000E+03  0.12500000000E+03 0.  0.
        -13    1    3    3    0    0  0.45752548662E+02  0.99535532757E+01 -0.40502327060E+02  0.61909761696E+02  0.10566000000E+00 0. -1.
         23    2    1    0    0    0  0.23390479400E+02  0.98622226315E+01 -0.16452080976E+02  0.94750224295E+02  0.89791737224E+02 0.  0.
         13    1    3    3    0    0 -0.22362069263E+02 -0.91330644274E-01  0.24050246084E+02  0.32840462599E+02  0.10566000000E+00 0.  1.
         22    1    1    0    0    0 -0.23390479400E+02 -0.98622226315E+01  0.16452080976E+02  0.30249775705E+02  0.00000000000E+00 0. -1.
</event>
<event>
 5    1  0.6835449E-004  0.9118800E+02  0.7818608E-02  0.1130116E+00
         25   -1    0    0    0    0  0.00000000000E+00  0.00000000000E+00  0.99999998245E-14  0.12500000000E+03  0.12500000000E+03 0.  0.
        -13    1    3    3    0    0  0.63548321647E+01 -0.30535809835E+02 -0.25994893925E+02  0.40602527610E+02  0.10566000000E+00 0.  1.
         23    2    1    0    0    0  0.26387679782E+01  0.18350365300E+02 -0.29936333002E+02  0.89788027083E+02  0.82595440375E+02 0.  0.
         13    1    3    3    0    0 -0.37160641864E+01  0.48886175135E+02 -0.39414390767E+01  0.49185499473E+02  0.10566000000E+00 0. -1.
         22    1    1    0    0    0 -0.26387679782E+01 -0.18350365300E+02  0.29936333002E+02  0.35211972917E+02  0.00000000000E+00 0. -1.
</event>
<event>
 5    1  0.6835449E-004  0.9118800E+02  0.7818608E-02  0.1130116E+00
         25   -1    0    0    0    0  0.00000000000E+00  0.00000000000E+00  0.99999998245E-14  0.12500000000E+03  0.12500000000E+03 0.  0.
        -13    1    3    3    0    0 -0.20554623808E+02 -0.96340542729E+01  0.56892818972E+02  0.61254482091E+02  0.10566000000E+00 0. -1.
         23    2    1    0    0    0 -0.73326040950E+01 -0.13092537039E+02  0.27408113703E+02  0.93752819236E+02  0.88392334560E+02 0.  0.
         13    1    3    3    0    0  0.13222019713E+02 -0.34584827661E+01 -0.29484705269E+02  0.32498337145E+02  0.10566000000E+00 0.  1.
         22    1    1    0    0    0  0.73326040950E+01  0.13092537039E+02 -0.27408113703E+02  0.31247180764E+02  0.00000000000E+00 0. -1.
</event>
<event>
 5    1  0.6835449E-004  0.9118800E+02  0.7818608E-02  0.1130116E+00
         25   -1    0    0    0    0  0.00000000000E+00  0.00000000000E+00  0.99999998245E-14  0.12500000000E+03  0.12500000000E+03 0.  0.
        -13    1    3    3    0    0 -0.46449463716E+02 -0.21709495359E+02 -0.12868749001E+02  0.52862753741E+02  0.10566000000E+00 0. -1.
         23    2    1    0    0    0  0.15317310159E+01  0.10532725901E+02 -0.94415939994E+01  0.11077227312E+03  0.10985475994E+03 0.  0.
         13    1    3    3    0    0  0.47981194732E+02  0.32242221260E+02  0.34271550013E+01  0.57909519383E+02  0.10566000000E+00 0.  1.
         22    1    1    0    0    0 -0.15317310159E+01 -0.10532725901E+02  0.94415939994E+01  0.14227726876E+02  0.00000000000E+00 0.  1.
</event>
<event>
 5    1  0.6835449E-004  0.9118800E+02  0.7818608E-02  0.1130116E+00
         25   -1    0    0    0    0  0.00000000000E+00  0.00000000000E+00  0.99999998245E-14  0.12500000000E+03  0.12500000000E+03 0.  0.
        -13    1    3    3    0    0  0.27003525579E+02  0.20599466088E+02  0.39860263580E+02  0.52367739816E+02  0.10566000000E+00 0.  1.
         23    2    1    0    0    0  0.16672800498E+02  0.24212383285E+02 -0.19025128533E+01  0.95540853102E+02  0.90885715465E+02 0.  0.
         13    1    3    3    0    0 -0.10330725080E+02  0.36129171974E+01 -0.41762776433E+02  0.43173113286E+02  0.10566000000E+00 0. -1.
         22    1    1    0    0    0 -0.16672800498E+02 -0.24212383285E+02  0.19025128533E+01  0.29459146898E+02  0.00000000000E+00 0.  1.
</event>
<event>
 5    1  0.6835449E-004  0.9118800E+02  0.7818608E-02  0.1130116E+00
         25   -1    0    0    0    0  0.00000000000E+00  0.00000000000E+00  0.99999998245E-14  0.12500000000E+03  0.12500000000E+03 0.  0.
        -13    1    3    3    0    0  0.23735642434E+02 -0.69280790320E+01  0.20356002856E+02  0.32027441627E+02  0.10566000000E+00 0.  1.
         23    2    1    0    0    0 -0.18024160148E+02  0.91786609989E+01 -0.23020471752E+02  0.94355909437E+02  0.89241119217E+02 0.  0.
         13    1    3    3    0    0 -0.41759802582E+02  0.16106740031E+02 -0.43376474608E+02  0.62328467810E+02  0.10566000000E+00 0. -1.
         22    1    1    0    0    0  0.18024160148E+02 -0.91786609989E+01  0.23020471752E+02  0.30644090563E+02  0.00000000000E+00 0. -1.
</event>
<event>
 5    1  0.6835449E-004  0.9118800E+02  0.7818608E-02  0.1130116E+00
         25   -1    0    0    0    0  0.00000000000E+00  0.00000000000E+00  0.99999998245E-14  0.12500000000E+03  0.12500000000E+03 0.  0.
        -13    1    3    3    0    0 -0.10758397509E+02  0.34661879716E+02 -0.29520330539E+02  0.46783010822E+02  0.10566000000E+00 0.  1.
         23    2    1    0    0    0  0.97222370562E+01  0.23397456675E+02  0.13904087352E+02  0.96098676201E+02  0.91649708402E+02 0.  0.
         13    1    3    3    0    0  0.20480634565E+02 -0.11264423040E+02  0.43424417891E+02  0.49315665379E+02  0.10566000000E+00 0. -1.
         22    1    1    0    0    0 -0.97222370562E+01 -0.23397456675E+02 -0.13904087352E+02  0.28901323799E+02  0.00000000000E+00 0. -1.
</event>
<event>
 5    1  0.6835449E-004  0.9118800E+02  0.7818608E-02  0.1130116E+00
         25   -1    0    0    0    0  0.00000000000E+00  0.00000000000E+00  0.99999998245E-14  0.12500000000E+03  0.12500000000E+03 0.  0.
        -13    1    3    3    0    0 -0.29824950870E+02 -0.15006342445E+02 -0.36267318058E+02  0.49295512282E+02  0.10566000000E+00 0.  1.
         23    2    1    0    0    0 -0.21459238854E+02 -0.88061196268E+01  0.12146327495E+02  0.98816418376E+02  0.95284335512E+02 0.  0.
         13    1    3    3    0    0  0.83657120160E+01  0.62002228180E+01  0.48413645553E+02  0.49520906094E+02  0.10566000000E+00 0. -1.
         22    1    1    0    0    0  0.21459238854E+02  0.88061196268E+01 -0.12146327495E+02  0.26183581624E+02  0.00000000000E+00 0.  1.
</event>
<event>
 5    1  0.6835449E-004  0.9118800E+02  0.7818608E-02  0.1130116E+00
         25   -1    0    0    0    0  0.00000000000E+00  0.00000000000E+00  0.99999998245E-14  0.12500000000E+03  0.12500000000E+03 0.  0.
        -13    1    3    3    0    0 -0.73184643099E+01  0.30547332919E+02  0.16398216438E+02  0.35434617745E+02  0.10566000000E+00 0.  1.
         23    2    1    0    0    0  0.12088976456E+02 -0.17165469465E+02 -0.17976510222E+02  0.97360325374E+02  0.93354600012E+02 0.  0.
         13    1    3    3    0    0  0.19407440766E+02 -0.47712802384E+02 -0.34374726660E+02  0.61925707629E+02  0.10566000000E+00 0. -1.
         22    1    1    0    0    0 -0.12088976456E+02  0.17165469465E+02  0.17976510222E+02  0.27639674626E+02  0.00000000000E+00 0. -1.
</event>
<event>
 5    1  0.6835449E-004  0.9118800E+02  0.7818608E-02  0.1130116E+00
         25   -1    0    0    0    0  0.00000000000E+00  0.00000000000E+00  0.99999998245E-14  0.12500000000E+03  0.12500000000E+03 0.  0.
        -13    1    3    3    0    0  0.51966914930E+01 -0.26727531636E+02  0.40567976651E+02  0.48858350805E+02  0.10566000000E+00 0.  1.
         23    2    1    0    0    0  0.26485106916E+02 -0.14275492107E+02  0.17331626482E+01  0.94862740403E+02  0.89948235674E+02 0.  0.
         13    1    3    3    0    0  0.21288415422E+02  0.12452039529E+02 -0.38834814003E+02  0.46004389598E+02  0.10566000000E+00 0. -1.
         22    1    1    0    0    0 -0.26485106916E+02  0.14275492107E+02 -0.17331626482E+01  0.30137259597E+02  0.00000000000E+00 0. -1.
</event>
<event>
 5    1  0.6835449E-004  0.9118800E+02  0.7818608E-02  0.1130116E+00
         25   -1    0    0    0    0  0.00000000000E+00  0.00000000000E+00  0.99999998245E-14  0.12500000000E+03  0.12500000000E+03 0.  0.
        -13    1    3    3    0    0 -0.50258648689E+02 -0.31863716056E+02 -0.11067773404E+02  0.60528794314E+02  0.10566000000E+00 0.  1.
         23    2    1    0    0    0 -0.28558008680E+02 -0.52544411585E+01 -0.72080394556E+01  0.95081362924E+02  0.90251541433E+02 0.  0.
         13    1    3    3    0    0  0.21700640009E+02  0.26609274898E+02  0.38597339482E+01  0.34552568610E+02  0.10566000000E+00 0. -1.
         22    1    1    0    0    0  0.28558008680E+02  0.52544411585E+01  0.72080394556E+01  0.29918637076E+02  0.00000000000E+00 0.  1.
</event>
<event>
 5    1  0.6835449E-004  0.9118800E+02  0.7818608E-02  0.1130116E+00
         25   -1    0    0    0    0  0.00000000000E+00  0.00000000000E+00  0.99999998245E-14  0.12500000000E+03  0.12500000000E+03 0.  0.
        -13    1    3    3    0    0 -0.20139795075E+02 -0.30645341587E+02  0.14289970971E+02  0.39356863964E+02  0.10566000000E+00 0. -1.
         23    2    1    0    0    0  0.18477898542E+02  0.99056615152E+01  0.20475160110E+02  0.95694931392E+02  0.91097381126E+02 0.  0.
         13    1    3    3    0    0  0.38617693617E+02  0.40551003102E+02  0.61851891390E+01  0.56338067429E+02  0.10566000000E+00 0.  1.
         22    1    1    0    0    0 -0.18477898542E+02 -0.99056615152E+01 -0.20475160110E+02  0.29305068608E+02  0.00000000000E+00 0.  1.
</event>
<event>
 5    1  0.6835449E-004  0.9118800E+02  0.7818608E-02  0.1130116E+00
         25   -1    0    0    0    0  0.00000000000E+00  0.00000000000E+00  0.99999998245E-14  0.12500000000E+03  0.12500000000E+03 0.  0.
        -13    1    3    3    0    0 -0.54071992894E+02  0.16115910694E+02 -0.92071738489E+01  0.57168926939E+02  0.10566000000E+00 0. -1.
         23    2    1    0    0    0 -0.21849521703E+02 -0.61217157495E+01 -0.16435978836E+02  0.96981820140E+02  0.92846405611E+02 0.  0.
         13    1    3    3    0    0  0.32222471190E+02 -0.22237626443E+02 -0.72288049871E+01  0.39812893201E+02  0.10566000000E+00 0.  1.
         22    1    1    0    0    0  0.21849521703E+02  0.61217157495E+01  0.16435978836E+02  0.28018179860E+02  0.00000000000E+00 0. -1.
</event>
<event>
 5    1  0.6835449E-004  0.9118800E+02  0.7818608E-02  0.1130116E+00
         25   -1    0    0    0    0  0.00000000000E+00  0.00000000000E+00  0.99999998245E-14  0.12500000000E+03  0.12500000000E+03 0.  0.
        -13    1    3    3    0    0 -0.19094148174E+02  0.10155054640E+00 -0.28545177938E+02  0.34342905447E+02  0.10566000000E+00 0.  1.
         23    2    1    0    0    0  0.97397972623E+01 -0.19484939219E+00  0.26654804364E+02  0.96620778504E+02  0.92359052756E+02 0.  0.
         13    1    3    3    0    0  0.28833945436E+02 -0.29639993859E+00  0.55199982302E+02  0.62277873057E+02  0.10566000000E+00 0. -1.
         22    1    1    0    0    0 -0.97397972623E+01  0.19484939219E+00 -0.26654804364E+02  0.28379221496E+02  0.00000000000E+00 0. -1.
</event>
<event>
 5    1  0.6835449E-004  0.9118800E+02  0.7818608E-02  0.1130116E+00
         25   -1    0    0    0    0  0.00000000000E+00  0.00000000000E+00  0.99999998245E-14  0.12500000000E+03  0.12500000000E+03 0.  0.
        -13    1    3    3    0    0 -0.90640883410E+01 -0.68835305233E+01  0.36208044158E+02  0.37954898441E+02  0.10566000000E+00 0. -1.
         23    2    1    0    0    0 -0.20366433983E+02 -0.11760687658E+02 -0.19153840528E+02  0.94668910103E+02  0.89678467459E+02 0.  0.
         13    1    3    3    0    0 -0.11302345642E+02 -0.48771571346E+01 -0.55361884686E+02  0.56714011661E+02  0.10566000000E+00 0.  1.
         22    1    1    0    0    0  0.20366433983E+02  0.11760687658E+02  0.19153840528E+02  0.30331089897E+02  0.00000000000E+00 0. -1.
</event>
<event>
 5    1  0.6835449E-004  0.9118800E+02  0.7818608E-02  0.1130116E+00
         25   -1    0    0    0    0  0.00000000000E+00  0.00000000000E+00  0.99999998245E-14  0.12500000000E+03  0.12500000000E+03 0.  0.
        -13    1    3    3    0    0 -0.11402979395E+02  0.33858196563E+02  0.81223463455E+01  0.36638628355E+02  0.10566000000E+00 0.  1.
         23    2    1    0    0    0 -0.15576487381E+02 -0.24539136290E+02  0.65480098473E+01  0.95206165034E+02  0.90424229378E+02 0.  0.
         13    1    3    3    0    0 -0.41735079860E+01 -0.58397332853E+02 -0.15743364983E+01  0.58567536679E+02  0.10566000000E+00 0. -1.
         22    1    1    0    0    0  0.15576487381E+02  0.24539136290E+02 -0.65480098473E+01  0.29793834966E+02  0.00000000000E+00 0. -1.
</event>
<event>
 5    1  0.6835449E-004  0.9118800E+02  0.7818608E-02  0.1130116E+00
         25   -1    0    0    0    0  0.00000000000E+00  0.00000000000E+00  0.99999998245E-14  0.12500000000E+03  0.12500000000E+03 0.  0.
        -13    1    3    3    0    0  0.44791032731E+02  0.29653090723E+02 -0.42145352109E+01  0.53882426389E+02  0.10566000000E+00 0. -1.
         23    2    1    0    0    0  0.33902295588E+01  0.28595703001E+02 -0.69169268757E+01  0.95384940250E+02  0.90671026588E+02 0.  0.
         13    1    3    3    0    0 -0.41400803172E+02 -0.10573877218E+01 -0.27023916648E+01  0.41502513861E+02  0.10566000000E+00 0.  1.
         22    1    1    0    0    0 -0.33902295588E+01 -0.28595703001E+02  0.69169268757E+01  0.29615059750E+02  0.00000000000E+00 0. -1.
</event>
<event>
 5    1  0.6835449E-004  0.9118800E+02  0.7818608E-02  0.1130116E+00
         25   -1    0    0    0    0  0.00000000000E+00  0.00000000000E+00  0.99999998245E-14  0.12500000000E+03  0.12500000000E+03 0.  0.
        -13    1    3    3    0    0 -0.48870722383E+02  0.98104547579E+00  0.44570734418E+01  0.49083465894E+02  0.10566000000E+00 0. -1.
         23    2    1    0    0    0 -0.31189405232E+02 -0.53360090716E+01  0.30408202010E+02  0.81114800433E+02  0.68218033601E+02 0.  0.
         13    1    3    3    0    0  0.17681317152E+02 -0.63170545474E+01  0.25951128568E+02  0.32031334539E+02  0.10566000000E+00 0.  1.
         22    1    1    0    0    0  0.31189405232E+02  0.53360090716E+01 -0.30408202010E+02  0.43885199567E+02  0.00000000000E+00 0. -1.
</event>
<event>
 5    1  0.6835449E-004  0.9118800E+02  0.7818608E-02  0.1130116E+00
         25   -1    0    0    0    0  0.00000000000E+00  0.00000000000E+00  0.99999998245E-14  0.12500000000E+03  0.12500000000E+03 0.  0.
        -13    1    3    3    0    0  0.31665557986E+02 -0.11150325512E+02 -0.15587416309E+02  0.37013727627E+02  0.10566000000E+00 0.  1.
         23    2    1    0    0    0 -0.26410569864E+02 -0.58258696009E+01 -0.11906732597E+02  0.95449547579E+02  0.90760051205E+02 0.  0.
         13    1    3    3    0    0 -0.58076127850E+02  0.53244559110E+01  0.36806837129E+01  0.58435819952E+02  0.10566000000E+00 0. -1.
         22    1    1    0    0    0  0.26410569864E+02  0.58258696009E+01  0.11906732597E+02  0.29550452421E+02  0.00000000000E+00 0. -1.
</event>
<event>
 5    1  0.6835449E-004  0.9118800E+02  0.7818608E-02  0.1130116E+00
         25   -1    0    0    0    0  0.00000000000E+00  0.00000000000E+00  0.99999998245E-14  0.12500000000E+03  0.12500000000E+03 0.  0.
        -13    1    3    3    0    0 -0.50422180111E+02  0.13603917092E+02 -0.31765792630E+02  0.61127240677E+02  0.10566000000E+00 0. -1.
         23    2    1    0    0    0 -0.17530264859E+02  0.36498459425E+01 -0.21555633196E+02  0.96977207778E+02  0.92840195737E+02 0.  0.
         13    1    3    3    0    0  0.32891915252E+02 -0.99540711498E+01  0.10210159433E+02  0.35849967101E+02  0.10566000000E+00 0.  1.
         22    1    1    0    0    0  0.17530264859E+02 -0.36498459425E+01  0.21555633196E+02  0.28022792222E+02  0.00000000000E+00 0. -1.
</event>
<event>
 5    1  0.6835449E-004  0.9118800E+02  0.7818608E-02  0.1130116E+00
         25   -1    0    0    0    0  0.00000000000E+00  0.00000000000E+00  0.99999998245E-14  0.12500000000E+03  0.12500000000E+03 0.  0.
        -13    1    3    3    0    0  0.25790457355E+02  0.56227331912E+02  0.10432772965E+01  0.61868894738E+02  0.10566000000E+00 0.  1.
         23    2    1    0    0    0  0.12820327538E+02  0.26293091728E+02 -0.57396283257E+01  0.95190088828E+02  0.90402003335E+02 0.  0.
         13    1    3    3    0    0 -0.12970129817E+02 -0.29934240184E+02 -0.67829056222E+01  0.33321194090E+02  0.10566000000E+00 0. -1.
         22    1    1    0    0    0 -0.12820327538E+02 -0.26293091728E+02  0.57396283257E+01  0.29809911172E+02  0.00000000000E+00 0.  1.
</event>
<event>
 5    1  0.6835449E-004  0.9118800E+02  0.7818608E-02  0.1130116E+00
         25   -1    0    0    0    0  0.00000000000E+00  0.00000000000E+00  0.99999998245E-14  0.12500000000E+03  0.12500000000E+03 0.  0.
        -13    1    3    3    0    0 -0.10644073657E+02 -0.22831231861E+02  0.26781715648E+02  0.36767280419E+02  0.10566000000E+00 0. -1.
         23    2    1    0    0    0 -0.25802425559E+02  0.15543323039E+02 -0.11214792390E+02  0.92857635056E+02  0.87117212788E+02 0.  0.
         13    1    3    3    0    0 -0.15158351902E+02  0.38374554900E+02 -0.37996508038E+02  0.56090354637E+02  0.10566000000E+00 0.  1.
         22    1    1    0    0    0  0.25802425559E+02 -0.15543323039E+02  0.11214792390E+02  0.32142364944E+02  0.00000000000E+00 0.  1.
</event>
<event>
 5    1  0.6835449E-004  0.9118800E+02  0.7818608E-02  0.1130116E+00
         25   -1    0    0    0    0  0.00000000000E+00  0.00000000000E+00  0.99999998245E-14  0.12500000000E+03  0.12500000000E+03 0.  0.
        -13    1    3    3    0    0  0.11011262981E+02  0.35436502553E+02 -0.85035179371E+01  0.38069864814E+02  0.10566000000E+00 0.  1.
         23    2    1    0    0    0  0.19615359909E+02 -0.21395026511E+02 -0.34104098705E+01  0.95774319525E+02  0.91206249135E+02 0.  0.
         13    1    3    3    0    0  0.86040969275E+01 -0.56831529064E+02  0.50931080666E+01  0.57704454711E+02  0.10566000000E+00 0. -1.
         22    1    1    0    0    0 -0.19615359909E+02  0.21395026511E+02  0.34104098705E+01  0.29225680475E+02  0.00000000000E+00 0. -1.
</event>
<event>
 5    1  0.6835449E-004  0.9118800E+02  0.7818608E-02  0.1130116E+00
         25   -1    0    0    0    0  0.00000000000E+00  0.00000000000E+00  0.99999998245E-14  0.12500000000E+03  0.12500000000E+03 0.  0.
        -13    1    3    3    0    0 -0.37667991941E+02  0.41834992889E+02 -0.60648778927E+01  0.56620121465E+02  0.10566000000E+00 0. -1.
         23    2    1    0    0    0 -0.36832381511E+01  0.24651611913E+02 -0.15230687599E+02  0.95789692608E+02  0.91227315821E+02 0.  0.
         13    1    3    3    0    0  0.33984753790E+02 -0.17183380975E+02 -0.91658097062E+01  0.39169571143E+02  0.10566000000E+00 0.  1.
         22    1    1    0    0    0  0.36832381511E+01 -0.24651611913E+02  0.15230687599E+02  0.29210307392E+02  0.00000000000E+00 0. -1.
</event>
<event>
 5    1  0.6835449E-004  0.9118800E+02  0.7818608E-02  0.1130116E+00
         25   -1    0    0    0    0  0.00000000000E+00  0.00000000000E+00  0.99999998245E-14  0.12500000000E+03  0.12500000000E+03 0.  0.
        -13    1    3    3    0    0 -0.28028727273E+02 -0.29979086492E+02  0.33728174606E+02  0.53122086798E+02  0.10566000000E+00 0.  1.
         23    2    1    0    0    0 -0.13712785570E+02 -0.23941214598E+02 -0.68490528035E+01  0.96572341482E+02  0.92293474149E+02 0.  0.
         13    1    3    3    0    0  0.14315941702E+02  0.60378718940E+01 -0.40577227410E+02  0.43450254684E+02  0.10566000000E+00 0. -1.
         22    1    1    0    0    0  0.13712785570E+02  0.23941214598E+02  0.68490528035E+01  0.28427658518E+02  0.00000000000E+00 0.  1.
</event>
<event>
 5    1  0.6835449E-004  0.9118800E+02  0.7818608E-02  0.1130116E+00
         25   -1    0    0    0    0  0.00000000000E+00  0.00000000000E+00  0.99999998245E-14  0.12500000000E+03  0.12500000000E+03 0.  0.
        -13    1    3    3    0    0  0.36225537077E+02  0.20097829740E+02  0.23660579875E+02  0.47707929119E+02  0.10566000000E+00 0. -1.
         23    2    1    0    0    0  0.23445518832E+02  0.43868506974E+01 -0.18719819286E+02  0.94678910863E+02  0.89692406121E+02 0.  0.
         13    1    3    3    0    0 -0.12780018245E+02 -0.15710979043E+02 -0.42380399162E+02  0.46970981744E+02  0.10566000000E+00 0.  1.
         22    1    1    0    0    0 -0.23445518832E+02 -0.43868506974E+01  0.18719819286E+02  0.30321089137E+02  0.00000000000E+00 0.  1.
</event>
<event>
 5    1  0.6835449E-004  0.9118800E+02  0.7818608E-02  0.1130116E+00
         25   -1    0    0    0    0  0.00000000000E+00  0.00000000000E+00  0.99999998245E-14  0.12500000000E+03  0.12500000000E+03 0.  0.
        -13    1    3    3    0    0 -0.31304013584E+02  0.40945103832E+02 -0.10105142237E+02  0.52522070198E+02  0.10566000000E+00 0. -1.
         23    2    1    0    0    0 -0.18668564989E+01  0.83639037189E+01 -0.24748765409E+02  0.98809516463E+02  0.95275280718E+02 0.  0.
         13    1    3    3    0    0  0.29437157086E+02 -0.32581200113E+02 -0.14643623173E+02  0.46287446265E+02  0.10566000000E+00 0.  1.
         22    1    1    0    0    0  0.18668564989E+01 -0.83639037189E+01  0.24748765409E+02  0.26190483537E+02  0.00000000000E+00 0. -1.
</event>
<event>
 5    1  0.6835449E-004  0.9118800E+02  0.7818608E-02  0.1130116E+00
         25   -1    0    0    0    0  0.00000000000E+00  0.00000000000E+00  0.99999998245E-14  0.12500000000E+03  0.12500000000E+03 0.  0.
        -13    1    3    3    0    0 -0.44646323554E+00  0.79739358701E+01  0.36116161503E+02  0.36988799229E+02  0.10566000000E+00 0.  1.
         23    2    1    0    0    0  0.26257381733E+02  0.50596183004E+01 -0.14712600101E+02  0.94479344133E+02  0.89413846988E+02 0.  0.
         13    1    3    3    0    0  0.26703844968E+02 -0.29143175696E+01 -0.50828761605E+02  0.57490544903E+02  0.10566000000E+00 0. -1.
         22    1    1    0    0    0 -0.26257381733E+02 -0.50596183004E+01  0.14712600101E+02  0.30520655867E+02  0.00000000000E+00 0. -1.
</event>
<event>
 5    1  0.6835449E-004  0.9118800E+02  0.7818608E-02  0.1130116E+00
         25   -1    0    0    0    0  0.00000000000E+00  0.00000000000E+00  0.99999998245E-14  0.12500000000E+03  0.12500000000E+03 0.  0.
        -13    1    3    3    0    0 -0.12428310494E+02 -0.31942425599E+02  0.27972708707E+02  0.44240988363E+02  0.10566000000E+00 0. -1.
         23    2    1    0    0    0 -0.16829599753E+01  0.18833722739E+02  0.21217467867E+02  0.96579542418E+02  0.92303226404E+02 0.  0.
         13    1    3    3    0    0  0.10745350519E+02  0.50776148338E+02 -0.67552408394E+01  0.52338554055E+02  0.10566000000E+00 0.  1.
         22    1    1    0    0    0  0.16829599753E+01 -0.18833722739E+02 -0.21217467867E+02  0.28420457582E+02  0.00000000000E+00 0. -1.
</event>
<event>
 5    1  0.6835449E-004  0.9118800E+02  0.7818608E-02  0.1130116E+00
         25   -1    0    0    0    0  0.00000000000E+00  0.00000000000E+00  0.99999998245E-14  0.12500000000E+03  0.12500000000E+03 0.  0.
        -13    1    3    3    0    0  0.26923738167E+01 -0.62240533373E+02 -0.21494231966E+01  0.62335897005E+02  0.10566000000E+00 0.  1.
         23    2    1    0    0    0  0.29547647743E+01 -0.26390777674E+02  0.16831247661E+01  0.98391041169E+02  0.94724655144E+02 0.  0.
         13    1    3    3    0    0  0.26239095758E+00  0.35849755700E+02  0.38325479627E+01  0.36055144164E+02  0.10566000000E+00 0. -1.
         22    1    1    0    0    0 -0.29547647743E+01  0.26390777674E+02 -0.16831247661E+01  0.26608958831E+02  0.00000000000E+00 0.  1.
</event>
<event>
 5    1  0.6835449E-004  0.9118800E+02  0.7818608E-02  0.1130116E+00
         25   -1    0    0    0    0  0.00000000000E+00  0.00000000000E+00  0.99999998245E-14  0.12500000000E+03  0.12500000000E+03 0.  0.
        -13    1    3    3    0    0 -0.21060531454E+01 -0.34088089869E+02 -0.19432072302E+02  0.39294400730E+02  0.10566000000E+00 0.  1.
         23    2    1    0    0    0  0.42118389625E+01  0.23177597600E+02 -0.14988513807E+02  0.97078750671E+02  0.92976812527E+02 0.  0.
         13    1    3    3    0    0  0.63178921079E+01  0.57265687469E+02  0.44435584947E+01  0.57784349941E+02  0.10566000000E+00 0. -1.
         22    1    1    0    0    0 -0.42118389625E+01 -0.23177597600E+02  0.14988513807E+02  0.27921249329E+02  0.00000000000E+00 0. -1.
</event>
<event>
 5    1  0.6835449E-004  0.9118800E+02  0.7818608E-02  0.1130116E+00
         25   -1    0    0    0    0  0.00000000000E+00  0.00000000000E+00  0.99999998245E-14  0.12500000000E+03  0.12500000000E+03 0.  0.
        -13    1    3    3    0    0 -0.12602332519E+02  0.31452314949E+02 -0.47638870639E+02  0.58459730245E+02  0.10566000000E+00 0.  1.
         23    2    1    0    0    0  0.75039832812E+01  0.21787246866E+02 -0.16979154877E+02  0.96376834706E+02  0.92028303671E+02 0.  0.
         13    1    3    3    0    0  0.20106315800E+02 -0.96650680835E+01  0.30659715761E+02  0.37917104461E+02  0.10566000000E+00 0. -1.
         22    1    1    0    0    0 -0.75039832812E+01 -0.21787246866E+02  0.16979154877E+02  0.28623165294E+02  0.00000000000E+00 0.  1.
</event>
<event>
 5    1  0.6835449E-004  0.9118800E+02  0.7818608E-02  0.1130116E+00
         25   -1    0    0    0    0  0.00000000000E+00  0.00000000000E+00  0.99999998245E-14  0.12500000000E+03  0.12500000000E+03 0.  0.
        -13    1    3    3    0    0 -0.21507014985E+02  0.26574150733E+02 -0.22829094478E+02  0.41108586688E+02  0.10566000000E+00 0. -1.
         23    2    1    0    0    0  0.13947521509E+02  0.13452079243E+02  0.19256894065E+02  0.97681146414E+02  0.93783189344E+02 0.  0.
         13    1    3    3    0    0  0.35454536494E+02 -0.13122071491E+02  0.42085988544E+02  0.56572559726E+02  0.10566000000E+00 0.  1.
         22    1    1    0    0    0 -0.13947521509E+02 -0.13452079243E+02 -0.19256894065E+02  0.27318853586E+02  0.00000000000E+00 0.  1.
</event>
<event>
 5    1  0.6835449E-004  0.9118800E+02  0.7818608E-02  0.1130116E+00
         25   -1    0    0    0    0  0.00000000000E+00  0.00000000000E+00  0.99999998245E-14  0.12500000000E+03  0.12500000000E+03 0.  0.
        -13    1    3    3    0    0  0.22391995691E+02  0.30686638180E+02  0.22604762935E+02  0.44204724920E+02  0.10566000000E+00 0.  1.
         23    2    1    0    0    0  0.12556610863E+02 -0.17691997855E+02  0.22736808354E+02  0.93573296090E+02  0.88138096318E+02 0.  0.
         13    1    3    3    0    0 -0.98353848280E+01 -0.48378636036E+02  0.13204541932E+00  0.49368571171E+02  0.10566000000E+00 0. -1.
         22    1    1    0    0    0 -0.12556610863E+02  0.17691997855E+02 -0.22736808354E+02  0.31426703910E+02  0.00000000000E+00 0. -1.
</event>
<event>
 5    1  0.6835449E-004  0.9118800E+02  0.7818608E-02  0.1130116E+00
         25   -1    0    0    0    0  0.00000000000E+00  0.00000000000E+00  0.99999998245E-14  0.12500000000E+03  0.12500000000E+03 0.  0.
        -13    1    3    3    0    0  0.21224587345E+02  0.27888142075E+02  0.46566246712E+02  0.58280855118E+02  0.10566000000E+00 0.  1.
         23    2    1    0    0    0  0.22485796570E+02  0.31800437965E+01  0.18383977153E+02  0.95781951778E+02  0.91216708692E+02 0.  0.
         13    1    3    3    0    0  0.12612092244E+01 -0.24708098278E+02 -0.28182269559E+02  0.37501096661E+02  0.10566000000E+00 0. -1.
         22    1    1    0    0    0 -0.22485796570E+02 -0.31800437965E+01 -0.18383977153E+02  0.29218048222E+02  0.00000000000E+00 0.  1.
</event>
<event>
 5    1  0.6835449E-004  0.9118800E+02  0.7818608E-02  0.1130116E+00
         25   -1    0    0    0    0  0.00000000000E+00  0.00000000000E+00  0.99999998245E-14  0.12500000000E+03  0.12500000000E+03 0.  0.
        -13    1    3    3    0    0 -0.43085987390E+02  0.59759233886E+01  0.12551708690E+02  0.45273287100E+02  0.10566000000E+00 0.  1.
         23    2    1    0    0    0 -0.10914751886E+02  0.68129923341E+01 -0.26299124949E+02  0.95722147511E+02  0.91134718290E+02 0.  0.
         13    1    3    3    0    0  0.32171235505E+02  0.83706894547E+00 -0.38850833639E+02  0.50448860411E+02  0.10566000000E+00 0. -1.
         22    1    1    0    0    0  0.10914751886E+02 -0.68129923341E+01  0.26299124949E+02  0.29277852489E+02  0.00000000000E+00 0. -1.
</event>
<event>
 5    1  0.6835449E-004  0.9118800E+02  0.7818608E-02  0.1130116E+00
         25   -1    0    0    0    0  0.00000000000E+00  0.00000000000E+00  0.99999998245E-14  0.12500000000E+03  0.12500000000E+03 0.  0.
        -13    1    3    3    0    0 -0.40377707505E+02  0.29234416531E+01 -0.13187722845E+02  0.42577376297E+02  0.10566000000E+00 0. -1.
         23    2    1    0    0    0 -0.30927095453E+01  0.32184094022E+02  0.26746765307E+01  0.92557209508E+02  0.86685075861E+02 0.  0.
         13    1    3    3    0    0  0.37284997960E+02  0.29260652369E+02  0.15862399375E+02  0.49979833212E+02  0.10566000000E+00 0.  1.
         22    1    1    0    0    0  0.30927095453E+01 -0.32184094022E+02 -0.26746765307E+01  0.32442790492E+02  0.00000000000E+00 0. -1.
</event>
<event>
 5    1  0.6835449E-004  0.9118800E+02  0.7818608E-02  0.1130116E+00
         25   -1    0    0    0    0  0.00000000000E+00  0.00000000000E+00  0.99999998245E-14  0.12500000000E+03  0.12500000000E+03 0.  0.
        -13    1    3    3    0    0 -0.32445681386E+02  0.20367381129E+02  0.23456214172E+02  0.44919456830E+02  0.10566000000E+00 0.  1.
         23    2    1    0    0    0  0.16064136265E+02  0.22922103940E+02  0.84488493519E+01  0.95761970341E+02  0.91189322759E+02 0.  0.
         13    1    3    3    0    0  0.48509817651E+02  0.25547228113E+01 -0.15007364820E+02  0.50842513510E+02  0.10566000000E+00 0. -1.
         22    1    1    0    0    0 -0.16064136265E+02 -0.22922103940E+02 -0.84488493519E+01  0.29238029659E+02  0.00000000000E+00 0.  1.
</event>
<event>
 5    1  0.6835449E-004  0.9118800E+02  0.7818608E-02  0.1130116E+00
         25   -1    0    0    0    0  0.00000000000E+00  0.00000000000E+00  0.99999998245E-14  0.12500000000E+03  0.12500000000E+03 0.  0.
        -13    1    3    3    0    0  0.67159026682E+01 -0.23744523302E+02 -0.22108273119E+02  0.33131444880E+02  0.10566000000E+00 0.  1.
         23    2    1    0    0    0 -0.34918490275E+02 -0.65001022993E+00  0.76099562338E+01  0.89255980777E+02  0.81786277542E+02 0.  0.
         13    1    3    3    0    0 -0.41634392943E+02  0.23094513072E+02  0.29718229353E+02  0.56124535897E+02  0.10566000000E+00 0. -1.
         22    1    1    0    0    0  0.34918490275E+02  0.65001022993E+00 -0.76099562338E+01  0.35744019223E+02  0.00000000000E+00 0. -1.
</event>
<event>
 5    1  0.6835449E-004  0.9118800E+02  0.7818608E-02  0.1130116E+00
         25   -1    0    0    0    0  0.00000000000E+00  0.00000000000E+00  0.99999998245E-14  0.12500000000E+03  0.12500000000E+03 0.  0.
        -13    1    3    3    0    0 -0.23303429389E+02  0.37542637755E+02 -0.23630410950E+01  0.44250362689E+02  0.10566000000E+00 0.  1.
         23    2    1    0    0    0 -0.14852905631E+02 -0.41710513328E+01  0.25553811547E+02  0.95150313913E+02  0.90346989315E+02 0.  0.
         13    1    3    3    0    0  0.84505237579E+01 -0.41713689088E+02  0.27916852642E+02  0.50899951224E+02  0.10566000000E+00 0. -1.
         22    1    1    0    0    0  0.14852905631E+02  0.41710513328E+01 -0.25553811547E+02  0.29849686087E+02  0.00000000000E+00 0. -1.
</event>
<event>
 5    1  0.6835449E-004  0.9118800E+02  0.7818608E-02  0.1130116E+00
         25   -1    0    0    0    0  0.00000000000E+00  0.00000000000E+00  0.99999998245E-14  0.12500000000E+03  0.12500000000E+03 0.  0.
        -13    1    3    3    0    0  0.10761462993E+02 -0.36037187256E+02 -0.38700603436E+01  0.37808418139E+02  0.10566000000E+00 0.  1.
         23    2    1    0    0    0 -0.17965620699E+02  0.64405744503E+01  0.22520203391E+02  0.95480445683E+02  0.90802595892E+02 0.  0.
         13    1    3    3    0    0 -0.28727083691E+02  0.42477761707E+02  0.26390263734E+02  0.57672027544E+02  0.10566000000E+00 0. -1.
         22    1    1    0    0    0  0.17965620699E+02 -0.64405744503E+01 -0.22520203391E+02  0.29519554317E+02  0.00000000000E+00 0. -1.
</event>
<event>
 5    1  0.6835449E-004  0.9118800E+02  0.7818608E-02  0.1130116E+00
         25   -1    0    0    0    0  0.00000000000E+00  0.00000000000E+00  0.99999998245E-14  0.12500000000E+03  0.12500000000E+03 0.  0.
        -13    1    3    3    0    0  0.12254150477E+01 -0.25645909399E+02  0.32123046805E+02  0.41123176081E+02  0.10566000000E+00 0.  1.
         23    2    1    0    0    0  0.11052548059E+02 -0.18540459937E+02 -0.20563746338E+02  0.95187668043E+02  0.90398656023E+02 0.  0.
         13    1    3    3    0    0  0.98271330117E+01  0.71054494621E+01 -0.52686793143E+02  0.54064491962E+02  0.10566000000E+00 0. -1.
         22    1    1    0    0    0 -0.11052548059E+02  0.18540459937E+02  0.20563746338E+02  0.29812331957E+02  0.00000000000E+00 0. -1.
</event>
<event>
 5    1  0.6835449E-004  0.9118800E+02  0.7818608E-02  0.1130116E+00
         25   -1    0    0    0    0  0.00000000000E+00  0.00000000000E+00  0.99999998245E-14  0.12500000000E+03  0.12500000000E+03 0.  0.
        -13    1    3    3    0    0 -0.39573298041E+02  0.16187298921E+02 -0.22679231072E+02  0.48398690584E+02  0.10566000000E+00 0.  1.
         23    2    1    0    0    0 -0.73681349340E+01 -0.21358909831E+02 -0.13410694249E+02  0.98725693885E+02  0.95165242979E+02 0.  0.
         13    1    3    3    0    0  0.32205163107E+02 -0.37546208752E+02  0.92685368226E+01  0.50327003301E+02  0.10566000000E+00 0. -1.
         22    1    1    0    0    0  0.73681349340E+01  0.21358909831E+02  0.13410694249E+02  0.26274306115E+02  0.00000000000E+00 0. -1.
</event>
<event>
 5    1  0.6835449E-004  0.9118800E+02  0.7818608E-02  0.1130116E+00
         25   -1    0    0    0    0  0.00000000000E+00  0.00000000000E+00  0.99999998245E-14  0.12500000000E+03  0.12500000000E+03 0.  0.
        -13    1    3    3    0    0  0.16641076699E+02  0.48155098810E+02  0.13168155946E+02  0.52623668346E+02  0.10566000000E+00 0. -1.
         23    2    1    0    0    0  0.26023014947E+02  0.54384817729E+01  0.10422739936E+02  0.96444652012E+02  0.92120372356E+02 0.  0.
         13    1    3    3    0    0  0.93819382478E+01 -0.42716617037E+02 -0.27454160103E+01  0.43820983666E+02  0.10566000000E+00 0.  1.
         22    1    1    0    0    0 -0.26023014947E+02 -0.54384817729E+01 -0.10422739936E+02  0.28555347988E+02  0.00000000000E+00 0. -1.
</event>
<event>
 5    1  0.6835449E-004  0.9118800E+02  0.7818608E-02  0.1130116E+00
         25   -1    0    0    0    0  0.00000000000E+00  0.00000000000E+00  0.99999998245E-14  0.12500000000E+03  0.12500000000E+03 0.  0.
        -13    1    3    3    0    0  0.44875783747E+01  0.37054578265E+02 -0.18109673531E+01  0.37369384486E+02  0.10566000000E+00 0.  1.
         23    2    1    0    0    0 -0.20238479910E+02 -0.95221761927E+01  0.20529878550E+02  0.94639765782E+02  0.89637834899E+02 0.  0.
         13    1    3    3    0    0 -0.24726058284E+02 -0.46576754457E+02  0.22340845903E+02  0.57270381296E+02  0.10566000000E+00 0. -1.
         22    1    1    0    0    0  0.20238479910E+02  0.95221761927E+01 -0.20529878550E+02  0.30360234218E+02  0.00000000000E+00 0. -1.
</event>
<event>
 5    1  0.6835449E-004  0.9118800E+02  0.7818608E-02  0.1130116E+00
         25   -1    0    0    0    0  0.00000000000E+00  0.00000000000E+00  0.99999998245E-14  0.12500000000E+03  0.12500000000E+03 0.  0.
        -13    1    3    3    0    0 -0.84386351294E+01  0.20467102331E+01  0.45192326326E+02  0.46019095041E+02  0.10566000000E+00 0.  1.
         23    2    1    0    0    0 -0.12544897310E+01  0.25893620945E+02 -0.15998402233E+01  0.99026689874E+02  0.95559784787E+02 0.  0.
         13    1    3    3    0    0  0.71841453983E+01  0.23846910712E+02 -0.46792166549E+02  0.53007594833E+02  0.10566000000E+00 0. -1.
         22    1    1    0    0    0  0.12544897310E+01 -0.25893620945E+02  0.15998402233E+01  0.25973310126E+02  0.00000000000E+00 0. -1.
</event>
<event>
 5    1  0.6835449E-004  0.9118800E+02  0.7818608E-02  0.1130116E+00
         25   -1    0    0    0    0  0.00000000000E+00  0.00000000000E+00  0.99999998245E-14  0.12500000000E+03  0.12500000000E+03 0.  0.
        -13    1    3    3    0    0 -0.14936263077E+02 -0.24242034806E+02 -0.23670636730E+02  0.37028076016E+02  0.10566000000E+00 0. -1.
         23    2    1    0    0    0  0.22091477680E+02 -0.25284134403E+02  0.12852847090E+02  0.89048414265E+02  0.81468420668E+02 0.  0.
         13    1    3    3    0    0  0.37027740757E+02 -0.10420995969E+01  0.36523483820E+02  0.52020338248E+02  0.10566000000E+00 0.  1.
         22    1    1    0    0    0 -0.22091477680E+02  0.25284134403E+02 -0.12852847090E+02  0.35951585735E+02  0.00000000000E+00 0.  1.
</event>
<event>
 5    1  0.6835449E-004  0.9118800E+02  0.7818608E-02  0.1130116E+00
         25   -1    0    0    0    0  0.00000000000E+00  0.00000000000E+00  0.99999998245E-14  0.12500000000E+03  0.12500000000E+03 0.  0.
        -13    1    3    3    0    0 -0.50966193418E+02  0.23956259672E+02  0.19879560587E+02  0.59721548390E+02  0.10566000000E+00 0.  1.
         23    2    1    0    0    0 -0.27569872917E+02  0.22971608067E+00  0.15612705829E+02  0.93315504652E+02  0.87771727584E+02 0.  0.
         13    1    3    3    0    0  0.23396320501E+02 -0.23726543591E+02 -0.42668547574E+01  0.33593956262E+02  0.10566000000E+00 0. -1.
         22    1    1    0    0    0  0.27569872917E+02 -0.22971608067E+00 -0.15612705829E+02  0.31684495348E+02  0.00000000000E+00 0.  1.
</event>
<event>
 5    1  0.6835449E-004  0.9118800E+02  0.7818608E-02  0.1130116E+00
         25   -1    0    0    0    0  0.00000000000E+00  0.00000000000E+00  0.99999998245E-14  0.12500000000E+03  0.12500000000E+03 0.  0.
        -13    1    3    3    0    0  0.26811977188E+02 -0.20542373009E+02 -0.36237661834E+02  0.49538374103E+02  0.10566000000E+00 0.  1.
         23    2    1    0    0    0  0.27416243451E+02  0.89675420255E+01 -0.15712849082E+00  0.96153996736E+02  0.91725128422E+02 0.  0.
         13    1    3    3    0    0  0.60426626315E+00  0.29509915034E+02  0.36080533343E+02  0.46615622633E+02  0.10566000000E+00 0. -1.
         22    1    1    0    0    0 -0.27416243451E+02 -0.89675420255E+01  0.15712849082E+00  0.28846003264E+02  0.00000000000E+00 0.  1.
</event>
<event>
 5    1  0.6835449E-004  0.9118800E+02  0.7818608E-02  0.1130116E+00
         25   -1    0    0    0    0  0.00000000000E+00  0.00000000000E+00  0.99999998245E-14  0.12500000000E+03  0.12500000000E+03 0.  0.
        -13    1    3    3    0    0 -0.24118439440E+01 -0.26793626205E+02  0.17724989312E+02  0.32216483460E+02  0.10566000000E+00 0. -1.
         23    2    1    0    0    0  0.12378739246E+02  0.25304331065E+02 -0.12437758686E+02  0.94206490991E+02  0.89031582866E+02 0.  0.
         13    1    3    3    0    0  0.14790583190E+02  0.52097957270E+02 -0.30162747998E+02  0.61990007530E+02  0.10566000000E+00 0.  1.
         22    1    1    0    0    0 -0.12378739246E+02 -0.25304331065E+02  0.12437758686E+02  0.30793509009E+02  0.00000000000E+00 0.  1.
</event>
<event>
 5    1  0.6835449E-004  0.9118800E+02  0.7818608E-02  0.1130116E+00
         25   -1    0    0    0    0  0.00000000000E+00  0.00000000000E+00  0.99999998245E-14  0.12500000000E+03  0.12500000000E+03 0.  0.
        -13    1    3    3    0    0  0.36515229888E+02  0.81168759364E+01  0.24785230822E+02  0.44872759216E+02  0.10566000000E+00 0.  1.
         23    2    1    0    0    0  0.53409266469E+01 -0.27552913552E+02  0.38273679795E+01  0.96674441077E+02  0.92431651880E+02 0.  0.
         13    1    3    3    0    0 -0.31174303241E+02 -0.35669789488E+02 -0.20957862842E+02  0.51801681861E+02  0.10566000000E+00 0. -1.
         22    1    1    0    0    0 -0.53409266469E+01  0.27552913552E+02 -0.38273679795E+01  0.28325558923E+02  0.00000000000E+00 0. -1.
</event>
<event>
 5    1  0.6835449E-004  0.9118800E+02  0.7818608E-02  0.1130116E+00
         25   -1    0    0    0    0  0.00000000000E+00  0.00000000000E+00  0.99999998245E-14  0.12500000000E+03  0.12500000000E+03 0.  0.
        -13    1    3    3    0    0 -0.36982110100E+02 -0.15564282515E+02  0.33956640079E+02  0.52564131564E+02  0.10566000000E+00 0. -1.
         23    2    1    0    0    0  0.51305159804E+00  0.40359692043E+01  0.29627759527E+02  0.95094207853E+02  0.90269330136E+02 0.  0.
         13    1    3    3    0    0  0.37495161698E+02  0.19600251719E+02 -0.43288805517E+01  0.42530076288E+02  0.10566000000E+00 0.  1.
         22    1    1    0    0    0 -0.51305159804E+00 -0.40359692043E+01 -0.29627759527E+02  0.29905792147E+02  0.00000000000E+00 0.  1.
</event>
<event>
 5    1  0.6835449E-004  0.9118800E+02  0.7818608E-02  0.1130116E+00
         25   -1    0    0    0    0  0.00000000000E+00  0.00000000000E+00  0.99999998245E-14  0.12500000000E+03  0.12500000000E+03 0.  0.
        -13    1    3    3    0    0  0.72048097965E+01  0.27827094053E+02 -0.22076201343E+02  0.36243982637E+02  0.10566000000E+00 0.  1.
         23    2    1    0    0    0  0.13578227318E+02 -0.21884676076E+02  0.11731335945E+02  0.96699265962E+02  0.92465217733E+02 0.  0.
         13    1    3    3    0    0  0.63734175211E+01 -0.49711770130E+02  0.33807537288E+02  0.60455283324E+02  0.10566000000E+00 0. -1.
         22    1    1    0    0    0 -0.13578227318E+02  0.21884676076E+02 -0.11731335945E+02  0.28300734038E+02  0.00000000000E+00 0. -1.
</event>
<event>
 5    1  0.6835449E-004  0.9118800E+02  0.7818608E-02  0.1130116E+00
         25   -1    0    0    0    0  0.00000000000E+00  0.00000000000E+00  0.99999998245E-14  0.12500000000E+03  0.12500000000E+03 0.  0.
        -13    1    3    3    0    0 -0.31227122151E+02  0.25755849764E+02 -0.75234247637E+00  0.40485480584E+02  0.10566000000E+00 0. -1.
         23    2    1    0    0    0 -0.57105936986E+01 -0.20527490193E+02  0.18548280266E+02  0.96750620629E+02  0.92534615994E+02 0.  0.
         13    1    3    3    0    0  0.25516528453E+02 -0.46283339957E+02  0.19300622743E+02  0.56265140044E+02  0.10566000000E+00 0.  1.
         22    1    1    0    0    0  0.57105936986E+01  0.20527490193E+02 -0.18548280266E+02  0.28249379371E+02  0.00000000000E+00 0.  1.
</event>
<event>
 5    1  0.6835449E-004  0.9118800E+02  0.7818608E-02  0.1130116E+00
         25   -1    0    0    0    0  0.00000000000E+00  0.00000000000E+00  0.99999998245E-14  0.12500000000E+03  0.12500000000E+03 0.  0.
        -13    1    3    3    0    0  0.14878225815E+02  0.39756231341E+02  0.63446981549E+01  0.42920693057E+02  0.10566000000E+00 0. -1.
         23    2    1    0    0    0  0.17071105823E+01  0.32324672671E+01 -0.29207216964E+02  0.95564908800E+02  0.90918794537E+02 0.  0.
         13    1    3    3    0    0 -0.13171115232E+02 -0.36523764073E+02 -0.35551915119E+02  0.52644215743E+02  0.10566000000E+00 0.  1.
         22    1    1    0    0    0 -0.17071105823E+01 -0.32324672671E+01  0.29207216964E+02  0.29435091200E+02  0.00000000000E+00 0.  1.
</event>
<event>
 5    1  0.6835449E-004  0.9118800E+02  0.7818608E-02  0.1130116E+00
         25   -1    0    0    0    0  0.00000000000E+00  0.00000000000E+00  0.99999998245E-14  0.12500000000E+03  0.12500000000E+03 0.  0.
        -13    1    3    3    0    0  0.19873222606E+02 -0.10545025484E+02  0.10932084012E+02  0.25013279755E+02  0.10566000000E+00 0.  1.
         23    2    1    0    0    0 -0.24913552732E+02  0.24623292263E+02  0.22831377055E+02  0.83187760047E+02  0.71916201317E+02 0.  0.
         13    1    3    3    0    0 -0.44786775338E+02  0.35168317747E+02  0.11899293044E+02  0.58174480293E+02  0.10566000000E+00 0. -1.
         22    1    1    0    0    0  0.24913552732E+02 -0.24623292263E+02 -0.22831377055E+02  0.41812239953E+02  0.00000000000E+00 0. -1.
</event>
<event>
 5    1  0.6835449E-004  0.9118800E+02  0.7818608E-02  0.1130116E+00
         25   -1    0    0    0    0  0.00000000000E+00  0.00000000000E+00  0.99999998245E-14  0.12500000000E+03  0.12500000000E+03 0.  0.
        -13    1    3    3    0    0 -0.20587297680E+02 -0.18152835518E+02 -0.24638411541E+02  0.36883936211E+02  0.10566000000E+00 0.  1.
         23    2    1    0    0    0  0.19149255211E+01 -0.76672425010E+01  0.28440713976E+02  0.95481738555E+02  0.90804375658E+02 0.  0.
         13    1    3    3    0    0  0.22502223201E+02  0.10485593017E+02  0.53079125516E+02  0.58597802344E+02  0.10566000000E+00 0. -1.
         22    1    1    0    0    0 -0.19149255211E+01  0.76672425010E+01 -0.28440713976E+02  0.29518261445E+02  0.00000000000E+00 0. -1.
</event>
<event>
 5    1  0.6835449E-004  0.9118800E+02  0.7818608E-02  0.1130116E+00
         25   -1    0    0    0    0  0.00000000000E+00  0.00000000000E+00  0.99999998245E-14  0.12500000000E+03  0.12500000000E+03 0.  0.
        -13    1    3    3    0    0  0.94259555760E+01  0.31255397795E+02  0.39027068157E+02  0.50880956583E+02  0.10566000000E+00 0.  1.
         23    2    1    0    0    0 -0.15756018435E+01 -0.10388860410E+02  0.27634526984E+02  0.95435189441E+02  0.90740274190E+02 0.  0.
         13    1    3    3    0    0 -0.11001557419E+02 -0.41644258205E+02 -0.11392541173E+02  0.44554232858E+02  0.10566000000E+00 0. -1.
         22    1    1    0    0    0  0.15756018435E+01  0.10388860410E+02 -0.27634526984E+02  0.29564810559E+02  0.00000000000E+00 0.  1.
</event>
<event>
 5    1  0.6835449E-004  0.9118800E+02  0.7818608E-02  0.1130116E+00
         25   -1    0    0    0    0  0.00000000000E+00  0.00000000000E+00  0.99999998245E-14  0.12500000000E+03  0.12500000000E+03 0.  0.
        -13    1    3    3    0    0 -0.83816909969E+01 -0.23564006241E+02  0.15444524924E+02  0.29394891533E+02  0.10566000000E+00 0. -1.
         23    2    1    0    0    0 -0.16424496286E+02  0.33068291946E+02  0.92969554802E+01  0.86924950536E+02  0.78142418916E+02 0.  0.
         13    1    3    3    0    0 -0.80428052893E+01  0.56632298187E+02 -0.61475694435E+01  0.57530059003E+02  0.10566000000E+00 0.  1.
         22    1    1    0    0    0  0.16424496286E+02 -0.33068291946E+02 -0.92969554802E+01  0.38075049464E+02  0.00000000000E+00 0.  1.
</event>
<event>
 5    1  0.6835449E-004  0.9118800E+02  0.7818608E-02  0.1130116E+00
         25   -1    0    0    0    0  0.00000000000E+00  0.00000000000E+00  0.99999998245E-14  0.12500000000E+03  0.12500000000E+03 0.  0.
        -13    1    3    3    0    0  0.23360456937E+02 -0.22150163096E+02 -0.15390546582E+02  0.35682219124E+02  0.10566000000E+00 0. -1.
         23    2    1    0    0    0 -0.57961205427E+01  0.24540801094E+02  0.11893530490E+02  0.97119863716E+02  0.93032069358E+02 0.  0.
         13    1    3    3    0    0 -0.29156577480E+02  0.46690964190E+02  0.27284077071E+02  0.61437644592E+02  0.10566000000E+00 0.  1.
         22    1    1    0    0    0  0.57961205427E+01 -0.24540801094E+02 -0.11893530490E+02  0.27880136284E+02  0.00000000000E+00 0.  1.
</event>
<event>
 5    1  0.6835449E-004  0.9118800E+02  0.7818608E-02  0.1130116E+00
         25   -1    0    0    0    0  0.00000000000E+00  0.00000000000E+00  0.99999998245E-14  0.12500000000E+03  0.12500000000E+03 0.  0.
        -13    1    3    3    0    0 -0.28659218583E+02 -0.30738886028E+01  0.25820142132E+02  0.38697422456E+02  0.10566000000E+00 0.  1.
         23    2    1    0    0    0  0.12772175169E+02 -0.20991791672E+02 -0.12062215144E+02  0.97627005821E+02  0.93710999649E+02 0.  0.
         13    1    3    3    0    0  0.41431393752E+02 -0.17917903069E+02 -0.37882357277E+02  0.58929583365E+02  0.10566000000E+00 0. -1.
         22    1    1    0    0    0 -0.12772175169E+02  0.20991791672E+02  0.12062215144E+02  0.27372994179E+02  0.00000000000E+00 0. -1.
</event>
<event>
 5    1  0.6835449E-004  0.9118800E+02  0.7818608E-02  0.1130116E+00
         25   -1    0    0    0    0  0.00000000000E+00  0.00000000000E+00  0.99999998245E-14  0.12500000000E+03  0.12500000000E+03 0.  0.
        -13    1    3    3    0    0 -0.40129730425E+02  0.23915392911E+02  0.28714849971E+02  0.54835162578E+02  0.10566000000E+00 0.  1.
         23    2    1    0    0    0 -0.22481058868E+02  0.17293737794E+02 -0.74997626064E+01  0.95662007330E+02  0.91052192904E+02 0.  0.
         13    1    3    3    0    0  0.17648671557E+02 -0.66216551168E+01 -0.36214612578E+02  0.40826844752E+02  0.10566000000E+00 0. -1.
         22    1    1    0    0    0  0.22481058868E+02 -0.17293737794E+02  0.74997626064E+01  0.29337992670E+02  0.00000000000E+00 0.  1.
</event>
<event>
 5    1  0.6835449E-004  0.9118800E+02  0.7818608E-02  0.1130116E+00
         25   -1    0    0    0    0  0.00000000000E+00  0.00000000000E+00  0.99999998245E-14  0.12500000000E+03  0.12500000000E+03 0.  0.
        -13    1    3    3    0    0 -0.50312483393E+02 -0.31857924984E+02  0.83515613841E+01  0.60133460827E+02  0.10566000000E+00 0. -1.
         23    2    1    0    0    0 -0.15908682831E+02 -0.23794325066E+02  0.29846220923E+00  0.96375793907E+02  0.92026889965E+02 0.  0.
         13    1    3    3    0    0  0.34403800561E+02  0.80635999184E+01 -0.80530991749E+01  0.36242333080E+02  0.10566000000E+00 0.  1.
         22    1    1    0    0    0  0.15908682831E+02  0.23794325066E+02 -0.29846220923E+00  0.28624206093E+02  0.00000000000E+00 0. -1.
</event>
<event>
 5    1  0.6835449E-004  0.9118800E+02  0.7818608E-02  0.1130116E+00
         25   -1    0    0    0    0  0.00000000000E+00  0.00000000000E+00  0.99999998245E-14  0.12500000000E+03  0.12500000000E+03 0.  0.
        -13    1    3    3    0    0 -0.11686857198E+02 -0.73229919660E+01 -0.22428451765E+02  0.26329744684E+02  0.10566000000E+00 0.  1.
         23    2    1    0    0    0 -0.28875595958E+02  0.18484167416E+02  0.24700149485E+02  0.82744090691E+02  0.71140864998E+02 0.  0.
         13    1    3    3    0    0 -0.17188738760E+02  0.25807159382E+02  0.47128601250E+02  0.56414346007E+02  0.10566000000E+00 0. -1.
         22    1    1    0    0    0  0.28875595958E+02 -0.18484167416E+02 -0.24700149485E+02  0.42255909309E+02  0.00000000000E+00 0. -1.
</event>
<event>
 5    1  0.6835449E-004  0.9118800E+02  0.7818608E-02  0.1130116E+00
         25   -1    0    0    0    0  0.00000000000E+00  0.00000000000E+00  0.99999998245E-14  0.12500000000E+03  0.12500000000E+03 0.  0.
        -13    1    3    3    0    0 -0.16687203884E+02  0.28711555640E+02  0.24327923681E+02  0.41166433358E+02  0.10566000000E+00 0.  1.
         23    2    1    0    0    0 -0.17399827337E+02 -0.52112626008E+01 -0.20644322155E+02  0.97502740382E+02  0.93545096587E+02 0.  0.
         13    1    3    3    0    0 -0.71262345290E+00 -0.33922818240E+02 -0.44972245836E+02  0.56336307024E+02  0.10566000000E+00 0. -1.
         22    1    1    0    0    0  0.17399827337E+02  0.52112626008E+01  0.20644322155E+02  0.27497259618E+02  0.00000000000E+00 0. -1.
</event>
<event>
 5    1  0.6835449E-004  0.9118800E+02  0.7818608E-02  0.1130116E+00
         25   -1    0    0    0    0  0.00000000000E+00  0.00000000000E+00  0.99999998245E-14  0.12500000000E+03  0.12500000000E+03 0.  0.
        -13    1    3    3    0    0  0.54055746617E+02  0.63074250114E+01 -0.28589424098E+02  0.61474984237E+02  0.10566000000E+00 0.  1.
         23    2    1    0    0    0  0.26724443645E+02  0.10090971299E+02 -0.10047857295E+02  0.94718272405E+02  0.89747245648E+02 0.  0.
         13    1    3    3    0    0 -0.27331302973E+02  0.37835462881E+01  0.18541566803E+02  0.33243288168E+02  0.10566000000E+00 0. -1.
         22    1    1    0    0    0 -0.26724443645E+02 -0.10090971299E+02  0.10047857295E+02  0.30281727595E+02  0.00000000000E+00 0.  1.
</event>
<event>
 5    1  0.6835449E-004  0.9118800E+02  0.7818608E-02  0.1130116E+00
         25   -1    0    0    0    0  0.00000000000E+00  0.00000000000E+00  0.99999998245E-14  0.12500000000E+03  0.12500000000E+03 0.  0.
        -13    1    3    3    0    0  0.31063466742E+02 -0.18561108568E+02 -0.21296494283E+02  0.41988159642E+02  0.10566000000E+00 0. -1.
         23    2    1    0    0    0  0.17999444330E+02  0.17855598133E+02  0.15419297425E+02  0.95325817383E+02  0.90589482534E+02 0.  0.
         13    1    3    3    0    0 -0.13064022412E+02  0.36416706702E+02  0.36715791708E+02  0.53337657741E+02  0.10566000000E+00 0.  1.
         22    1    1    0    0    0 -0.17999444330E+02 -0.17855598133E+02 -0.15419297425E+02  0.29674182617E+02  0.00000000000E+00 0.  1.
</event>
<event>
 5    1  0.6835449E-004  0.9118800E+02  0.7818608E-02  0.1130116E+00
         25   -1    0    0    0    0  0.00000000000E+00  0.00000000000E+00  0.99999998245E-14  0.12500000000E+03  0.12500000000E+03 0.  0.
        -13    1    3    3    0    0 -0.30695391927E+02 -0.15226671431E+02 -0.29407280687E+02  0.45153714464E+02  0.10566000000E+00 0. -1.
         23    2    1    0    0    0 -0.47323327780E+01 -0.14747354746E+02  0.19241676299E+02  0.10029936130E+03  0.97210289190E+02 0.  0.
         13    1    3    3    0    0  0.25963059149E+02  0.47931668553E+00  0.48648956986E+02  0.55145646834E+02  0.10566000000E+00 0.  1.
         22    1    1    0    0    0  0.47323327780E+01  0.14747354746E+02 -0.19241676299E+02  0.24700638702E+02  0.00000000000E+00 0.  1.
</event>
<event>
 5    1  0.6835449E-004  0.9118800E+02  0.7818608E-02  0.1130116E+00
         25   -1    0    0    0    0  0.00000000000E+00  0.00000000000E+00  0.99999998245E-14  0.12500000000E+03  0.12500000000E+03 0.  0.
        -13    1    3    3    0    0 -0.31432615264E+02 -0.41481113155E+02 -0.18007396069E+02  0.55072402600E+02  0.10566000000E+00 0. -1.
         23    2    1    0    0    0 -0.29653660219E+02 -0.58550202132E+01 -0.59039493199E+00  0.94768073295E+02  0.89816581564E+02 0.  0.
         13    1    3    3    0    0  0.17789550443E+01  0.35626092942E+02  0.17417001137E+02  0.39695670696E+02  0.10566000000E+00 0.  1.
         22    1    1    0    0    0  0.29653660219E+02  0.58550202132E+01  0.59039493199E+00  0.30231926705E+02  0.00000000000E+00 0. -1.
</event>
<event>
 5    1  0.6835449E-004  0.9118800E+02  0.7818608E-02  0.1130116E+00
         25   -1    0    0    0    0  0.00000000000E+00  0.00000000000E+00  0.99999998245E-14  0.12500000000E+03  0.12500000000E+03 0.  0.
        -13    1    3    3    0    0 -0.24809027442E+02  0.73884481271E+01 -0.51114380680E+02  0.57295445584E+02  0.10566000000E+00 0. -1.
         23    2    1    0    0    0 -0.88297999518E+01  0.16812135469E+02 -0.76979086575E+01  0.10450924443E+03  0.10248078409E+03 0.  0.
         13    1    3    3    0    0  0.15979227490E+02  0.94236873423E+01  0.43416472022E+02  0.47213798843E+02  0.10566000000E+00 0.  1.
         22    1    1    0    0    0  0.88297999518E+01 -0.16812135469E+02  0.76979086575E+01  0.20490755573E+02  0.00000000000E+00 0. -1.
</event>
<event>
 5    1  0.6835449E-004  0.9118800E+02  0.7818608E-02  0.1130116E+00
         25   -1    0    0    0    0  0.00000000000E+00  0.00000000000E+00  0.99999998245E-14  0.12500000000E+03  0.12500000000E+03 0.  0.
        -13    1    3    3    0    0  0.11189554038E+02  0.72386332073E+01  0.40370007640E+02  0.42512969917E+02  0.10566000000E+00 0.  1.
         23    2    1    0    0    0  0.23879518376E+02  0.21986995038E+02 -0.52585855760E+01  0.92116690085E+02  0.86047501541E+02 0.  0.
         13    1    3    3    0    0  0.12689964338E+02  0.14748361831E+02 -0.45628593216E+02  0.49603720168E+02  0.10566000000E+00 0. -1.
         22    1    1    0    0    0 -0.23879518376E+02 -0.21986995038E+02  0.52585855760E+01  0.32883309915E+02  0.00000000000E+00 0. -1.
</event>
<event>
 5    1  0.6835449E-004  0.9118800E+02  0.7818608E-02  0.1130116E+00
         25   -1    0    0    0    0  0.00000000000E+00  0.00000000000E+00  0.99999998245E-14  0.12500000000E+03  0.12500000000E+03 0.  0.
        -13    1    3    3    0    0 -0.16712403390E+02 -0.44713329766E+02  0.69285182388E+01  0.48234860992E+02  0.10566000000E+00 0.  1.
         23    2    1    0    0    0 -0.20482488976E+02 -0.65397844282E+01 -0.20421708061E+02  0.95346209430E+02  0.90617616155E+02 0.  0.
         13    1    3    3    0    0 -0.37700855859E+01  0.38173545338E+02 -0.27350226300E+02  0.47111348439E+02  0.10566000000E+00 0. -1.
         22    1    1    0    0    0  0.20482488976E+02  0.65397844282E+01  0.20421708061E+02  0.29653790570E+02  0.00000000000E+00 0. -1.
</event>
<event>
 5    1  0.6835449E-004  0.9118800E+02  0.7818608E-02  0.1130116E+00
         25   -1    0    0    0    0  0.00000000000E+00  0.00000000000E+00  0.99999998245E-14  0.12500000000E+03  0.12500000000E+03 0.  0.
        -13    1    3    3    0    0  0.11420674875E+02  0.42932826237E+02  0.68147985353E+01  0.44945656368E+02  0.10566000000E+00 0.  1.
         23    2    1    0    0    0 -0.11970373742E+02 -0.58970305692E+00 -0.20388851276E+02  0.10134956970E+03  0.98551470937E+02 0.  0.
         13    1    3    3    0    0 -0.23391048617E+02 -0.43522529294E+02 -0.27203649812E+02  0.56403913327E+02  0.10566000000E+00 0. -1.
         22    1    1    0    0    0  0.11970373742E+02  0.58970305692E+00  0.20388851276E+02  0.23650430304E+02  0.00000000000E+00 0. -1.
</event>
<event>
 5    1  0.6835449E-004  0.9118800E+02  0.7818608E-02  0.1130116E+00
         25   -1    0    0    0    0  0.00000000000E+00  0.00000000000E+00  0.99999998245E-14  0.12500000000E+03  0.12500000000E+03 0.  0.
        -13    1    3    3    0    0  0.13805600194E+02  0.32451501463E+02  0.27984945894E+02  0.45020694182E+02  0.10566000000E+00 0. -1.
         23    2    1    0    0    0  0.81413232823E+01 -0.19626261972E+02  0.15554244047E+01  0.10369529045E+03  0.10148311492E+03 0.  0.
         13    1    3    3    0    0 -0.56642769113E+01 -0.52077763436E+02 -0.26429521489E+02  0.58674596271E+02  0.10566000000E+00 0.  1.
         22    1    1    0    0    0 -0.81413232823E+01  0.19626261972E+02 -0.15554244047E+01  0.21304709547E+02  0.00000000000E+00 0. -1.
</event>
<event>
 5    1  0.6835449E-004  0.9118800E+02  0.7818608E-02  0.1130116E+00
         25   -1    0    0    0    0  0.00000000000E+00  0.00000000000E+00  0.99999998245E-14  0.12500000000E+03  0.12500000000E+03 0.  0.
        -13    1    3    3    0    0  0.20409141761E+02  0.98033792596E+01  0.34514625345E+02  0.41278442789E+02  0.10566000000E+00 0. -1.
         23    2    1    0    0    0 -0.19606937516E+02 -0.17943596478E+02  0.58440037404E+01  0.97786822438E+02  0.93923935232E+02 0.  0.
         13    1    3    3    0    0 -0.40016079277E+02 -0.27746975738E+02 -0.28670621605E+02  0.56508379649E+02  0.10566000000E+00 0.  1.
         22    1    1    0    0    0  0.19606937516E+02  0.17943596478E+02 -0.58440037404E+01  0.27213177562E+02  0.00000000000E+00 0.  1.
</event>
<event>
 5    1  0.6835449E-004  0.9118800E+02  0.7818608E-02  0.1130116E+00
         25   -1    0    0    0    0  0.00000000000E+00  0.00000000000E+00  0.99999998245E-14  0.12500000000E+03  0.12500000000E+03 0.  0.
        -13    1    3    3    0    0  0.44426985657E+01 -0.28607060978E+02 -0.53717091076E+02  0.61021623594E+02  0.10566000000E+00 0.  1.
         23    2    1    0    0    0 -0.61194332451E+01 -0.18303185977E+02 -0.23979337057E+02  0.94219118177E+02  0.89049309622E+02 0.  0.
         13    1    3    3    0    0 -0.10562131811E+02  0.10303875000E+02  0.29737754019E+02  0.33197494583E+02  0.10566000000E+00 0. -1.
         22    1    1    0    0    0  0.61194332451E+01  0.18303185977E+02  0.23979337057E+02  0.30780881823E+02  0.00000000000E+00 0.  1.
</event>
<event>
 5    1  0.6835449E-004  0.9118800E+02  0.7818608E-02  0.1130116E+00
         25   -1    0    0    0    0  0.00000000000E+00  0.00000000000E+00  0.99999998245E-14  0.12500000000E+03  0.12500000000E+03 0.  0.
        -13    1    3    3    0    0  0.89114238273E+01  0.29234025203E+02  0.20133505367E+02  0.36597963148E+02  0.10566000000E+00 0.  1.
         23    2    1    0    0    0 -0.11995032354E+02 -0.24921576696E+02  0.10356682296E+02  0.95466516387E+02  0.90783418622E+02 0.  0.
         13    1    3    3    0    0 -0.20906456181E+02 -0.54155601899E+02 -0.97768230708E+01  0.58868553239E+02  0.10566000000E+00 0. -1.
         22    1    1    0    0    0  0.11995032354E+02  0.24921576696E+02 -0.10356682296E+02  0.29533483613E+02  0.00000000000E+00 0. -1.
</event>
<event>
 5    1  0.6835449E-004  0.9118800E+02  0.7818608E-02  0.1130116E+00
         25   -1    0    0    0    0  0.00000000000E+00  0.00000000000E+00  0.99999998245E-14  0.12500000000E+03  0.12500000000E+03 0.  0.
        -13    1    3    3    0    0 -0.42113101575E+02  0.17009278484E+02 -0.20091423729E+02  0.49663924032E+02  0.10566000000E+00 0.  1.
         23    2    1    0    0    0 -0.26252025961E+02 -0.64467921244E+01  0.14466207028E+02  0.94340561950E+02  0.89219619409E+02 0.  0.
         13    1    3    3    0    0  0.15861075614E+02 -0.23456070609E+02  0.34557630757E+02  0.44676637917E+02  0.10566000000E+00 0. -1.
         22    1    1    0    0    0  0.26252025961E+02  0.64467921244E+01 -0.14466207028E+02  0.30659438050E+02  0.00000000000E+00 0. -1.
</event>
<event>
 5    1  0.6835449E-004  0.9118800E+02  0.7818608E-02  0.1130116E+00
         25   -1    0    0    0    0  0.00000000000E+00  0.00000000000E+00  0.99999998245E-14  0.12500000000E+03  0.12500000000E+03 0.  0.
        -13    1    3    3    0    0 -0.24529945228E+02 -0.50432689283E+02 -0.23134045198E+02  0.60666049587E+02  0.10566000000E+00 0.  1.
         23    2    1    0    0    0 -0.13700713224E+02 -0.18473529544E+02 -0.19938338356E+02  0.94561238970E+02  0.89528262256E+02 0.  0.
         13    1    3    3    0    0  0.10829232004E+02  0.31959159740E+02  0.31957068421E+01  0.33895189383E+02  0.10566000000E+00 0. -1.
         22    1    1    0    0    0  0.13700713224E+02  0.18473529544E+02  0.19938338356E+02  0.30438761030E+02  0.00000000000E+00 0.  1.
</event>
<event>
 5    1  0.6835449E-004  0.9118800E+02  0.7818608E-02  0.1130116E+00
         25   -1    0    0    0    0  0.00000000000E+00  0.00000000000E+00  0.99999998245E-14  0.12500000000E+03  0.12500000000E+03 0.  0.
        -13    1    3    3    0    0 -0.10835490191E+02  0.32239844035E+02 -0.43489756485E+02  0.55210374698E+02  0.10566000000E+00 0. -1.
         23    2    1    0    0    0  0.15976307910E+02  0.15054382382E+02 -0.23653987876E+02  0.92729456376E+02  0.86933101256E+02 0.  0.
         13    1    3    3    0    0  0.26811798101E+02 -0.17185461653E+02  0.19835768609E+02  0.37519081678E+02  0.10566000000E+00 0.  1.
         22    1    1    0    0    0 -0.15976307910E+02 -0.15054382382E+02  0.23653987876E+02  0.32270543624E+02  0.00000000000E+00 0. -1.
</event>
<event>
 5    1  0.6835449E-004  0.9118800E+02  0.7818608E-02  0.1130116E+00
         25   -1    0    0    0    0  0.00000000000E+00  0.00000000000E+00  0.99999998245E-14  0.12500000000E+03  0.12500000000E+03 0.  0.
        -13    1    3    3    0    0  0.18651442906E+02 -0.57291835527E+02  0.30987619734E+00  0.60252285665E+02  0.10566000000E+00 0.  1.
         23    2    1    0    0    0  0.77891532044E+01 -0.28500784525E+02 -0.11613279786E+02  0.93253600306E+02  0.87683522263E+02 0.  0.
         13    1    3    3    0    0 -0.10862289702E+02  0.28791051003E+02 -0.11923155983E+02  0.33001314641E+02  0.10566000000E+00 0. -1.
         22    1    1    0    0    0 -0.77891532044E+01  0.28500784525E+02  0.11613279786E+02  0.31746399694E+02  0.00000000000E+00 0.  1.
</event>
<event>
 5    1  0.6835449E-004  0.9118800E+02  0.7818608E-02  0.1130116E+00
         25   -1    0    0    0    0  0.00000000000E+00  0.00000000000E+00  0.99999998245E-14  0.12500000000E+03  0.12500000000E+03 0.  0.
        -13    1    3    3    0    0  0.44693033771E+01 -0.76147286109E+01  0.24743654222E+02  0.26272007019E+02  0.10566000000E+00 0.  1.
         23    2    1    0    0    0 -0.15885953623E+02  0.19573055700E+02 -0.26932829508E+02  0.88110362738E+02  0.80016190141E+02 0.  0.
         13    1    3    3    0    0 -0.20355257000E+02  0.27187784311E+02 -0.51676483731E+02  0.61838355720E+02  0.10566000000E+00 0. -1.
         22    1    1    0    0    0  0.15885953623E+02 -0.19573055700E+02  0.26932829508E+02  0.36889637262E+02  0.00000000000E+00 0. -1.
</event>
<event>
 5    1  0.6835449E-004  0.9118800E+02  0.7818608E-02  0.1130116E+00
         25   -1    0    0    0    0  0.00000000000E+00  0.00000000000E+00  0.99999998245E-14  0.12500000000E+03  0.12500000000E+03 0.  0.
        -13    1    3    3    0    0  0.62996844553E+01 -0.25003566543E+02 -0.21606862716E+02  0.33641225372E+02  0.10566000000E+00 0.  1.
         23    2    1    0    0    0  0.55186645696E+00  0.23361363193E+02  0.17256048865E+02  0.95951263895E+02  0.91448433414E+02 0.  0.
         13    1    3    3    0    0 -0.57478179984E+01  0.48364929736E+02  0.38862911581E+02  0.62310038523E+02  0.10566000000E+00 0. -1.
         22    1    1    0    0    0 -0.55186645696E+00 -0.23361363193E+02 -0.17256048865E+02  0.29048736105E+02  0.00000000000E+00 0. -1.
</event>
<event>
 5    1  0.6835449E-004  0.9118800E+02  0.7818608E-02  0.1130116E+00
         25   -1    0    0    0    0  0.00000000000E+00  0.00000000000E+00  0.99999998245E-14  0.12500000000E+03  0.12500000000E+03 0.  0.
        -13    1    3    3    0    0  0.48830629513E+02  0.75210275061E+01 -0.20173652110E+01  0.49447721482E+02  0.10566000000E+00 0. -1.
         23    2    1    0    0    0  0.39494239685E+02 -0.11192906750E+02 -0.22045732937E+02  0.78405038143E+02  0.63057589041E+02 0.  0.
         13    1    3    3    0    0 -0.93363898283E+01 -0.18713934256E+02 -0.20028367726E+02  0.28957316660E+02  0.10566000000E+00 0.  1.
         22    1    1    0    0    0 -0.39494239685E+02  0.11192906750E+02  0.22045732937E+02  0.46594961857E+02  0.00000000000E+00 0.  1.
</event>
<event>
 5    1  0.6835449E-004  0.9118800E+02  0.7818608E-02  0.1130116E+00
         25   -1    0    0    0    0  0.00000000000E+00  0.00000000000E+00  0.99999998245E-14  0.12500000000E+03  0.12500000000E+03 0.  0.
        -13    1    3    3    0    0 -0.58387182398E+02 -0.11230004323E+02 -0.38733634238E+01  0.59583472320E+02  0.10566000000E+00 0.  1.
         23    2    1    0    0    0 -0.24727992436E+02  0.86272531413E+01 -0.55415178009E+00  0.98804386038E+02  0.95268549424E+02 0.  0.
         13    1    3    3    0    0  0.33659189962E+02  0.19857257464E+02  0.33192116437E+01  0.39220913718E+02  0.10566000000E+00 0. -1.
         22    1    1    0    0    0  0.24727992436E+02 -0.86272531413E+01  0.55415178009E+00  0.26195613962E+02  0.00000000000E+00 0.  1.
</event>
<event>
 5    1  0.6835449E-004  0.9118800E+02  0.7818608E-02  0.1130116E+00
         25   -1    0    0    0    0  0.00000000000E+00  0.00000000000E+00  0.99999998245E-14  0.12500000000E+03  0.12500000000E+03 0.  0.
        -13    1    3    3    0    0  0.41473468112E+02  0.32693571397E+02 -0.12384698984E+02  0.54243065003E+02  0.10566000000E+00 0.  1.
         23    2    1    0    0    0 -0.61890133557E+00  0.26876725573E+02 -0.79440787149E+01  0.96966987265E+02  0.92826433823E+02 0.  0.
         13    1    3    3    0    0 -0.42092369448E+02 -0.58168458246E+01  0.44406202690E+01  0.42723922262E+02  0.10566000000E+00 0. -1.
         22    1    1    0    0    0  0.61890133557E+00 -0.26876725573E+02  0.79440787149E+01  0.28033012735E+02  0.00000000000E+00 0.  1.
</event>
<event>
 5    1  0.6835449E-004  0.9118800E+02  0.7818608E-02  0.1130116E+00
         25   -1    0    0    0    0  0.00000000000E+00  0.00000000000E+00  0.99999998245E-14  0.12500000000E+03  0.12500000000E+03 0.  0.
        -13    1    3    3    0    0 -0.98854762747E+01 -0.19232036259E+02  0.38967451230E+02  0.44565314755E+02  0.10566000000E+00 0. -1.
         23    2    1    0    0    0 -0.23031758781E+02 -0.13936395446E+02 -0.10561562124E+02  0.96082330228E+02  0.91627411602E+02 0.  0.
         13    1    3    3    0    0 -0.13146282506E+02  0.52956408136E+01 -0.49529013354E+02  0.51517015472E+02  0.10566000000E+00 0.  1.
         22    1    1    0    0    0  0.23031758781E+02  0.13936395446E+02  0.10561562124E+02  0.28917669772E+02  0.00000000000E+00 0.  1.
</event>
<event>
 5    1  0.6835449E-004  0.9118800E+02  0.7818608E-02  0.1130116E+00
         25   -1    0    0    0    0  0.00000000000E+00  0.00000000000E+00  0.99999998245E-14  0.12500000000E+03  0.12500000000E+03 0.  0.
        -13    1    3    3    0    0 -0.10436720904E+02  0.34133045168E+02 -0.13482221332E+02  0.38154572095E+02  0.10566000000E+00 0.  1.
         23    2    1    0    0    0 -0.86291746357E+01 -0.15995635408E+02 -0.29099660633E+02  0.90690915840E+02  0.83950753182E+02 0.  0.
         13    1    3    3    0    0  0.18075462678E+01 -0.50128680575E+02 -0.15617439300E+02  0.52536343745E+02  0.10566000000E+00 0. -1.
         22    1    1    0    0    0  0.86291746357E+01  0.15995635408E+02  0.29099660633E+02  0.34309084160E+02  0.00000000000E+00 0. -1.
</event>
<event>
 5    1  0.6835449E-004  0.9118800E+02  0.7818608E-02  0.1130116E+00
         25   -1    0    0    0    0  0.00000000000E+00  0.00000000000E+00  0.99999998245E-14  0.12500000000E+03  0.12500000000E+03 0.  0.
        -13    1    3    3    0    0  0.12603194918E+02  0.26429591670E+02  0.34535497012E+02  0.45277760058E+02  0.10566000000E+00 0. -1.
         23    2    1    0    0    0  0.20860676447E+02  0.17574292955E+02 -0.13322372166E+02  0.94643630078E+02  0.89643223501E+02 0.  0.
         13    1    3    3    0    0  0.82574815297E+01 -0.88552987155E+01 -0.47857869178E+02  0.49365870020E+02  0.10566000000E+00 0.  1.
         22    1    1    0    0    0 -0.20860676447E+02 -0.17574292955E+02  0.13322372166E+02  0.30356369922E+02  0.00000000000E+00 0.  1.
</event>
<event>
 5    1  0.6835449E-004  0.9118800E+02  0.7818608E-02  0.1130116E+00
         25   -1    0    0    0    0  0.00000000000E+00  0.00000000000E+00  0.99999998245E-14  0.12500000000E+03  0.12500000000E+03 0.  0.
        -13    1    3    3    0    0 -0.74251211448E+01  0.35894527679E+01 -0.33734967010E+02  0.34728601446E+02  0.10566000000E+00 0. -1.
         23    2    1    0    0    0 -0.59415829256E+01  0.11085910572E+02  0.26616096833E+02  0.95561650327E+02  0.90914314504E+02 0.  0.
         13    1    3    3    0    0  0.14835382192E+01  0.74964578038E+01  0.60351063842E+02  0.60833048881E+02  0.10566000000E+00 0.  1.
         22    1    1    0    0    0  0.59415829256E+01 -0.11085910572E+02 -0.26616096833E+02  0.29438349673E+02  0.00000000000E+00 0.  1.
</event>
<event>
 5    1  0.6835449E-004  0.9118800E+02  0.7818608E-02  0.1130116E+00
         25   -1    0    0    0    0  0.00000000000E+00  0.00000000000E+00  0.99999998245E-14  0.12500000000E+03  0.12500000000E+03 0.  0.
        -13    1    3    3    0    0 -0.19859883538E+02  0.11646183748E+02  0.28262232178E+02  0.36452894285E+02  0.10566000000E+00 0. -1.
         23    2    1    0    0    0  0.23536303869E+02  0.10008501825E+02 -0.12958694116E+02  0.96328490416E+02  0.91962615252E+02 0.  0.
         13    1    3    3    0    0  0.43396187407E+02 -0.16376819234E+01 -0.41220926294E+02  0.59875596132E+02  0.10566000000E+00 0.  1.
         22    1    1    0    0    0 -0.23536303869E+02 -0.10008501825E+02  0.12958694116E+02  0.28671509584E+02  0.00000000000E+00 0.  1.
</event>
<event>
 5    1  0.6835449E-004  0.9118800E+02  0.7818608E-02  0.1130116E+00
         25   -1    0    0    0    0  0.00000000000E+00  0.00000000000E+00  0.99999998245E-14  0.12500000000E+03  0.12500000000E+03 0.  0.
        -13    1    3    3    0    0 -0.27717608929E+02  0.27940051089E+02 -0.54272154494E+00  0.39360106838E+02  0.10566000000E+00 0.  1.
         23    2    1    0    0    0  0.26470469032E+02  0.12181326783E+02 -0.17810509375E+01  0.95806805666E+02  0.91250761183E+02 0.  0.
         13    1    3    3    0    0  0.54188077961E+02 -0.15758724306E+02 -0.12383293926E+01  0.56446698828E+02  0.10566000000E+00 0. -1.
         22    1    1    0    0    0 -0.26470469032E+02 -0.12181326783E+02  0.17810509375E+01  0.29193194334E+02  0.00000000000E+00 0. -1.
</event>
<event>
 5    1  0.6835449E-004  0.9118800E+02  0.7818608E-02  0.1130116E+00
         25   -1    0    0    0    0  0.00000000000E+00  0.00000000000E+00  0.99999998245E-14  0.12500000000E+03  0.12500000000E+03 0.  0.
        -13    1    3    3    0    0  0.16023556982E+02 -0.30175484635E+02 -0.47611982990E+02  0.58602272478E+02  0.10566000000E+00 0.  1.
         23    2    1    0    0    0  0.93295712956E+01 -0.88552358442E+01 -0.41182411305E+02  0.81855509004E+02  0.69562038864E+02 0.  0.
         13    1    3    3    0    0 -0.66939856864E+01  0.21320248791E+02  0.64295716843E+01  0.23253236526E+02  0.10566000000E+00 0. -1.
         22    1    1    0    0    0 -0.93295712956E+01  0.88552358442E+01  0.41182411305E+02  0.43144490996E+02  0.00000000000E+00 0.  1.
</event>
<event>
 5    1  0.6835449E-004  0.9118800E+02  0.7818608E-02  0.1130116E+00
         25   -1    0    0    0    0  0.00000000000E+00  0.00000000000E+00  0.99999998245E-14  0.12500000000E+03  0.12500000000E+03 0.  0.
        -13    1    3    3    0    0  0.29822184416E+02  0.21261961800E+02 -0.72024910810E+01  0.37327211854E+02  0.10566000000E+00 0. -1.
         23    2    1    0    0    0 -0.61461179678E+01 -0.11347089998E+02  0.25882814435E+02  0.96078532185E+02  0.91622230088E+02 0.  0.
         13    1    3    3    0    0 -0.35968302384E+02 -0.32609051798E+02  0.33085305516E+02  0.58751320331E+02  0.10566000000E+00 0.  1.
         22    1    1    0    0    0  0.61461179678E+01  0.11347089998E+02 -0.25882814435E+02  0.28921467815E+02  0.00000000000E+00 0.  1.
</event>
<event>
 5    1  0.6835449E-004  0.9118800E+02  0.7818608E-02  0.1130116E+00
         25   -1    0    0    0    0  0.00000000000E+00  0.00000000000E+00  0.99999998245E-14  0.12500000000E+03  0.12500000000E+03 0.  0.
        -13    1    3    3    0    0  0.38981055314E+02 -0.14104828135E+02  0.28680838050E+02  0.50409031784E+02  0.10566000000E+00 0. -1.
         23    2    1    0    0    0 -0.90394973190E+01  0.42382926508E+01  0.20143673000E+02  0.10251793608E+03  0.10002241758E+03 0.  0.
         13    1    3    3    0    0 -0.48020552633E+02  0.18343120786E+02 -0.85371650503E+01  0.52108904292E+02  0.10566000000E+00 0.  1.
         22    1    1    0    0    0  0.90394973190E+01 -0.42382926508E+01 -0.20143673000E+02  0.22482063924E+02  0.00000000000E+00 0.  1.
</event>
<event>
 5    1  0.6835449E-004  0.9118800E+02  0.7818608E-02  0.1130116E+00
         25   -1    0    0    0    0  0.00000000000E+00  0.00000000000E+00  0.99999998245E-14  0.12500000000E+03  0.12500000000E+03 0.  0.
        -13    1    3    3    0    0 -0.34218385720E+02  0.75788799176E+01 -0.13500054309E+02  0.37557954850E+02  0.10566000000E+00 0. -1.
         23    2    1    0    0    0  0.11142447881E+02  0.44971100204E+01  0.25082551464E+02  0.97187906744E+02  0.93123448637E+02 0.  0.
         13    1    3    3    0    0  0.45360833602E+02 -0.30817698972E+01  0.38582605773E+02  0.59629951895E+02  0.10566000000E+00 0.  1.
         22    1    1    0    0    0 -0.11142447881E+02 -0.44971100204E+01 -0.25082551464E+02  0.27812093256E+02  0.00000000000E+00 0.  1.
</event>
<event>
 5    1  0.6835449E-004  0.9118800E+02  0.7818608E-02  0.1130116E+00
         25   -1    0    0    0    0  0.00000000000E+00  0.00000000000E+00  0.99999998245E-14  0.12500000000E+03  0.12500000000E+03 0.  0.
        -13    1    3    3    0    0 -0.80691664444E+01  0.44286097809E+02  0.84434991936E+01  0.45800368436E+02  0.10566000000E+00 0.  1.
         23    2    1    0    0    0 -0.25422773275E+02 -0.22142651277E+01  0.14249903005E+02  0.95771929474E+02  0.91202973463E+02 0.  0.
         13    1    3    3    0    0 -0.17353606830E+02 -0.46500362937E+02  0.58064038110E+01  0.49971561037E+02  0.10566000000E+00 0. -1.
         22    1    1    0    0    0  0.25422773275E+02  0.22142651277E+01 -0.14249903005E+02  0.29228070526E+02  0.00000000000E+00 0. -1.
</event>
<event>
 5    1  0.6835449E-004  0.9118800E+02  0.7818608E-02  0.1130116E+00
         25   -1    0    0    0    0  0.00000000000E+00  0.00000000000E+00  0.99999998245E-14  0.12500000000E+03  0.12500000000E+03 0.  0.
        -13    1    3    3    0    0 -0.45584559066E+02  0.13857301101E+02 -0.14473060873E+02  0.49794151003E+02  0.10566000000E+00 0.  1.
         23    2    1    0    0    0 -0.17107729410E+02 -0.22076645769E+02 -0.46095925947E+01  0.96692738779E+02  0.92456393477E+02 0.  0.
         13    1    3    3    0    0  0.28476829656E+02 -0.35933946870E+02  0.98634682781E+01  0.46898587776E+02  0.10566000000E+00 0. -1.
         22    1    1    0    0    0  0.17107729410E+02  0.22076645769E+02  0.46095925947E+01  0.28307261221E+02  0.00000000000E+00 0.  1.
</event>
<event>
 5    1  0.6835449E-004  0.9118800E+02  0.7818608E-02  0.1130116E+00
         25   -1    0    0    0    0  0.00000000000E+00  0.00000000000E+00  0.99999998245E-14  0.12500000000E+03  0.12500000000E+03 0.  0.
        -13    1    3    3    0    0  0.40934928084E+02 -0.20038891390E+02  0.22618205320E+02  0.50880446944E+02  0.10566000000E+00 0.  1.
         23    2    1    0    0    0  0.10096389254E+01 -0.27532406532E+02  0.18722901969E+02  0.91689343472E+02  0.85424445377E+02 0.  0.
         13    1    3    3    0    0 -0.39925289158E+02 -0.74935151426E+01 -0.38953033512E+01  0.40808896527E+02  0.10566000000E+00 0. -1.
         22    1    1    0    0    0 -0.10096389254E+01  0.27532406532E+02 -0.18722901969E+02  0.33310656528E+02  0.00000000000E+00 0.  1.
</event>
<event>
 5    1  0.6835449E-004  0.9118800E+02  0.7818608E-02  0.1130116E+00
         25   -1    0    0    0    0  0.00000000000E+00  0.00000000000E+00  0.99999998245E-14  0.12500000000E+03  0.12500000000E+03 0.  0.
        -13    1    3    3    0    0 -0.44302623534E+02 -0.22353826002E+02 -0.31569274495E+02  0.58813656961E+02  0.10566000000E+00 0.  1.
         23    2    1    0    0    0 -0.28710927932E+02 -0.21696297745E+02 -0.63702228824E+01  0.88453776417E+02  0.80550878979E+02 0.  0.
         13    1    3    3    0    0  0.15591695602E+02  0.65752825651E+00  0.25199051613E+02  0.29640119456E+02  0.10566000000E+00 0. -1.
         22    1    1    0    0    0  0.28710927932E+02  0.21696297745E+02  0.63702228824E+01  0.36546223583E+02  0.00000000000E+00 0.  1.
</event>
<event>
 5    1  0.6835449E-004  0.9118800E+02  0.7818608E-02  0.1130116E+00
         25   -1    0    0    0    0  0.00000000000E+00  0.00000000000E+00  0.99999998245E-14  0.12500000000E+03  0.12500000000E+03 0.  0.
        -13    1    3    3    0    0 -0.15019075132E+02 -0.31690556897E+02 -0.13105812603E+01  0.35094056499E+02  0.10566000000E+00 0.  1.
         23    2    1    0    0    0  0.27807877932E+02  0.89403517041E+01 -0.85356358317E+01  0.94568683191E+02  0.89538655327E+02 0.  0.
         13    1    3    3    0    0  0.42826953064E+02  0.40630908602E+02 -0.72250545715E+01  0.59474626692E+02  0.10566000000E+00 0. -1.
         22    1    1    0    0    0 -0.27807877932E+02 -0.89403517041E+01  0.85356358317E+01  0.30431316809E+02  0.00000000000E+00 0. -1.
</event>
<event>
 5    1  0.6835449E-004  0.9118800E+02  0.7818608E-02  0.1130116E+00
         25   -1    0    0    0    0  0.00000000000E+00  0.00000000000E+00  0.99999998245E-14  0.12500000000E+03  0.12500000000E+03 0.  0.
        -13    1    3    3    0    0 -0.13557927355E+02  0.21870942287E+02  0.21117198134E+02  0.33288177057E+02  0.10566000000E+00 0. -1.
         23    2    1    0    0    0  0.17001209822E+02 -0.26774181220E+02  0.56115145439E+01  0.92791507162E+02  0.87022277553E+02 0.  0.
         13    1    3    3    0    0  0.30559137178E+02 -0.48645123507E+02 -0.15505683590E+02  0.59503330105E+02  0.10566000000E+00 0.  1.
         22    1    1    0    0    0 -0.17001209822E+02  0.26774181220E+02 -0.56115145439E+01  0.32208492838E+02  0.00000000000E+00 0.  1.
</event>
<event>
 5    1  0.6835449E-004  0.9118800E+02  0.7818608E-02  0.1130116E+00
         25   -1    0    0    0    0  0.00000000000E+00  0.00000000000E+00  0.99999998245E-14  0.12500000000E+03  0.12500000000E+03 0.  0.
        -13    1    3    3    0    0 -0.13029814723E+01  0.23675416113E+00 -0.36678396975E+02  0.36702449264E+02  0.10566000000E+00 0. -1.
         23    2    1    0    0    0  0.23514796916E+00  0.24477717372E+02  0.16713280133E+02  0.95359695091E+02  0.90636216673E+02 0.  0.
         13    1    3    3    0    0  0.15381294415E+01  0.24240963211E+02  0.53391677108E+02  0.58657245827E+02  0.10566000000E+00 0.  1.
         22    1    1    0    0    0 -0.23514796916E+00 -0.24477717372E+02 -0.16713280133E+02  0.29640304909E+02  0.00000000000E+00 0.  1.
</event>
<event>
 5    1  0.6835449E-004  0.9118800E+02  0.7818608E-02  0.1130116E+00
         25   -1    0    0    0    0  0.00000000000E+00  0.00000000000E+00  0.99999998245E-14  0.12500000000E+03  0.12500000000E+03 0.  0.
        -13    1    3    3    0    0 -0.19430792675E+02  0.25814773096E+02  0.12026757875E+02  0.34476256800E+02  0.10566000000E+00 0.  1.
         23    2    1    0    0    0  0.13894523649E+01 -0.26658013959E+02 -0.11879235437E+02  0.95781914493E+02  0.91216657597E+02 0.  0.
         13    1    3    3    0    0  0.20820245040E+02 -0.52472787055E+02 -0.23905993312E+02  0.61305657692E+02  0.10566000000E+00 0. -1.
         22    1    1    0    0    0 -0.13894523649E+01  0.26658013959E+02  0.11879235437E+02  0.29218085507E+02  0.00000000000E+00 0. -1.
</event>
<event>
 5    1  0.6835449E-004  0.9118800E+02  0.7818608E-02  0.1130116E+00
         25   -1    0    0    0    0  0.00000000000E+00  0.00000000000E+00  0.99999998245E-14  0.12500000000E+03  0.12500000000E+03 0.  0.
        -13    1    3    3    0    0 -0.22453078833E+02 -0.87706489104E+01 -0.34349313867E+02  0.41963693338E+02  0.10566000000E+00 0.  1.
         23    2    1    0    0    0  0.18526641822E+02  0.18464890845E+02 -0.15081695136E+02  0.94806520915E+02  0.89870074155E+02 0.  0.
         13    1    3    3    0    0  0.40979720655E+02  0.27235539755E+02  0.19267618731E+02  0.52842827577E+02  0.10566000000E+00 0. -1.
         22    1    1    0    0    0 -0.18526641822E+02 -0.18464890845E+02  0.15081695136E+02  0.30193479085E+02  0.00000000000E+00 0. -1.
</event>
<event>
 5    1  0.6835449E-004  0.9118800E+02  0.7818608E-02  0.1130116E+00
         25   -1    0    0    0    0  0.00000000000E+00  0.00000000000E+00  0.99999998245E-14  0.12500000000E+03  0.12500000000E+03 0.  0.
        -13    1    3    3    0    0  0.15611927991E+02  0.27873817808E+02 -0.17209601594E+02  0.36288614824E+02  0.10566000000E+00 0.  1.
         23    2    1    0    0    0 -0.29274747513E+02 -0.47031038405E+01  0.27253667594E+01  0.95224882004E+02  0.90450099508E+02 0.  0.
         13    1    3    3    0    0 -0.44886675504E+02 -0.32576921648E+02  0.19934968353E+02  0.58936267180E+02  0.10566000000E+00 0. -1.
         22    1    1    0    0    0  0.29274747513E+02  0.47031038405E+01 -0.27253667594E+01  0.29775117996E+02  0.00000000000E+00 0. -1.
</event>
<event>
 5    1  0.6835449E-004  0.9118800E+02  0.7818608E-02  0.1130116E+00
         25   -1    0    0    0    0  0.00000000000E+00  0.00000000000E+00  0.99999998245E-14  0.12500000000E+03  0.12500000000E+03 0.  0.
        -13    1    3    3    0    0  0.54953555556E+02  0.28517386943E+01 -0.19171115617E+02  0.58271506930E+02  0.10566000000E+00 0. -1.
         23    2    1    0    0    0  0.23884741598E+02 -0.12819056755E+02 -0.22638300676E+00  0.97891692296E+02  0.94063399227E+02 0.  0.
         13    1    3    3    0    0 -0.31068813958E+02 -0.15670795449E+02  0.18944732611E+02  0.39620185367E+02  0.10566000000E+00 0.  1.
         22    1    1    0    0    0 -0.23884741598E+02  0.12819056755E+02  0.22638300676E+00  0.27108307704E+02  0.00000000000E+00 0. -1.
</event>
<event>
 5    1  0.6835449E-004  0.9118800E+02  0.7818608E-02  0.1130116E+00
         25   -1    0    0    0    0  0.00000000000E+00  0.00000000000E+00  0.99999998245E-14  0.12500000000E+03  0.12500000000E+03 0.  0.
        -13    1    3    3    0    0 -0.32301708119E+02  0.91712954914E+01 -0.25221305801E+02  0.41995695479E+02  0.10566000000E+00 0.  1.
         23    2    1    0    0    0  0.18755526599E+02 -0.69343688258E+01 -0.21464031525E+02  0.95664698769E+02  0.91055887741E+02 0.  0.
         13    1    3    3    0    0  0.51057234718E+02 -0.16105664317E+02  0.37572742759E+01  0.53669003290E+02  0.10566000000E+00 0. -1.
         22    1    1    0    0    0 -0.18755526599E+02  0.69343688258E+01  0.21464031525E+02  0.29335301231E+02  0.00000000000E+00 0. -1.
</event>
<event>
 5    1  0.6835449E-004  0.9118800E+02  0.7818608E-02  0.1130116E+00
         25   -1    0    0    0    0  0.00000000000E+00  0.00000000000E+00  0.99999998245E-14  0.12500000000E+03  0.12500000000E+03 0.  0.
        -13    1    3    3    0    0  0.68837342328E+01  0.55041355278E+02 -0.15338552939E+02  0.57551880578E+02  0.10566000000E+00 0. -1.
         23    2    1    0    0    0 -0.57841371314E+01  0.21207927877E+02 -0.21558031202E+02  0.94210697369E+02  0.89037488410E+02 0.  0.
         13    1    3    3    0    0 -0.12667871364E+02 -0.33833427401E+02 -0.62194782631E+01  0.36658816791E+02  0.10566000000E+00 0.  1.
         22    1    1    0    0    0  0.57841371314E+01 -0.21207927877E+02  0.21558031202E+02  0.30789302631E+02  0.00000000000E+00 0. -1.
</event>
<event>
 5    1  0.6835449E-004  0.9118800E+02  0.7818608E-02  0.1130116E+00
         25   -1    0    0    0    0  0.00000000000E+00  0.00000000000E+00  0.99999998245E-14  0.12500000000E+03  0.12500000000E+03 0.  0.
        -13    1    3    3    0    0 -0.86057466382E+01 -0.40162740984E+02 -0.39225554898E+02  0.56795774135E+02  0.10566000000E+00 0. -1.
         23    2    1    0    0    0 -0.11637415818E+01 -0.40361529258E+01 -0.29852586703E+02  0.94853329243E+02  0.89935156144E+02 0.  0.
         13    1    3    3    0    0  0.74420050563E+01  0.36126588058E+02  0.93729681952E+01  0.38057555108E+02  0.10566000000E+00 0.  1.
         22    1    1    0    0    0  0.11637415818E+01  0.40361529258E+01  0.29852586703E+02  0.30146670757E+02  0.00000000000E+00 0. -1.
</event>
<event>
 5    1  0.6835449E-004  0.9118800E+02  0.7818608E-02  0.1130116E+00
         25   -1    0    0    0    0  0.00000000000E+00  0.00000000000E+00  0.99999998245E-14  0.12500000000E+03  0.12500000000E+03 0.  0.
        -13    1    3    3    0    0  0.30017177655E+02 -0.35488482697E+02 -0.26403643181E+02  0.53456775958E+02  0.10566000000E+00 0. -1.
         23    2    1    0    0    0  0.60117646285E+01  0.61963959494E+01 -0.21526916913E+02  0.10180636319E+03  0.99129162194E+02 0.  0.
         13    1    3    3    0    0 -0.24005413027E+02  0.41684878646E+02  0.48767262678E+01  0.48349587232E+02  0.10566000000E+00 0.  1.
         22    1    1    0    0    0 -0.60117646285E+01 -0.61963959494E+01  0.21526916913E+02  0.23193636811E+02  0.00000000000E+00 0. -1.
</event>
<event>
 5    1  0.6835449E-004  0.9118800E+02  0.7818608E-02  0.1130116E+00
         25   -1    0    0    0    0  0.00000000000E+00  0.00000000000E+00  0.99999998245E-14  0.12500000000E+03  0.12500000000E+03 0.  0.
        -13    1    3    3    0    0  0.16637638137E+02  0.12707652441E+02 -0.31559861240E+02  0.37872568422E+02  0.10566000000E+00 0. -1.
         23    2    1    0    0    0  0.21840336936E+01 -0.28300687259E+02  0.67507409287E+01  0.95823444247E+02  0.91273550724E+02 0.  0.
         13    1    3    3    0    0 -0.14453604443E+02 -0.41008339700E+02  0.38310602169E+02  0.57950875825E+02  0.10566000000E+00 0.  1.
         22    1    1    0    0    0 -0.21840336936E+01  0.28300687259E+02 -0.67507409287E+01  0.29176555753E+02  0.00000000000E+00 0.  1.
</event>
<event>
 5    1  0.6835449E-004  0.9118800E+02  0.7818608E-02  0.1130116E+00
         25   -1    0    0    0    0  0.00000000000E+00  0.00000000000E+00  0.99999998245E-14  0.12500000000E+03  0.12500000000E+03 0.  0.
        -13    1    3    3    0    0  0.67020234813E+01 -0.44902397644E+02  0.32759922592E+02  0.55985409931E+02  0.10566000000E+00 0. -1.
         23    2    1    0    0    0  0.22108546069E+02 -0.18170016620E+02  0.87685116850E+01  0.95069679079E+02  0.90235357647E+02 0.  0.
         13    1    3    3    0    0  0.15406522588E+02  0.26732381024E+02 -0.23991410907E+02  0.39084269148E+02  0.10566000000E+00 0.  1.
         22    1    1    0    0    0 -0.22108546069E+02  0.18170016620E+02 -0.87685116850E+01  0.29930320921E+02  0.00000000000E+00 0. -1.
</event>
<event>
 5    1  0.6835449E-004  0.9118800E+02  0.7818608E-02  0.1130116E+00
         25   -1    0    0    0    0  0.00000000000E+00  0.00000000000E+00  0.99999998245E-14  0.12500000000E+03  0.12500000000E+03 0.  0.
        -13    1    3    3    0    0  0.47282009389E+02 -0.19719394253E+02 -0.17554589932E+02  0.54153649122E+02  0.10566000000E+00 0. -1.
         23    2    1    0    0    0  0.12289704416E+02 -0.27058786902E+02  0.25491683476E+01  0.95171942026E+02  0.90376908038E+02 0.  0.
         13    1    3    3    0    0 -0.34992304973E+02 -0.73393926489E+01  0.20103758279E+02  0.41018292904E+02  0.10566000000E+00 0.  1.
         22    1    1    0    0    0 -0.12289704416E+02  0.27058786902E+02 -0.25491683476E+01  0.29828057974E+02  0.00000000000E+00 0. -1.
</event>
<event>
 5    1  0.6835449E-004  0.9118800E+02  0.7818608E-02  0.1130116E+00
         25   -1    0    0    0    0  0.00000000000E+00  0.00000000000E+00  0.99999998245E-14  0.12500000000E+03  0.12500000000E+03 0.  0.
        -13    1    3    3    0    0  0.25938171767E+02 -0.37295278110E+02 -0.39967980033E+02  0.60507661629E+02  0.10566000000E+00 0.  1.
         23    2    1    0    0    0  0.13740832484E+02 -0.17806489090E+02 -0.56600958033E+01  0.10180693605E+03  0.99129884553E+02 0.  0.
         13    1    3    3    0    0 -0.12197339282E+02  0.19488789020E+02  0.34307884229E+02  0.41299274417E+02  0.10566000000E+00 0. -1.
         22    1    1    0    0    0 -0.13740832484E+02  0.17806489090E+02  0.56600958033E+01  0.23193063954E+02  0.00000000000E+00 0.  1.
</event>
<event>
 5    1  0.6835449E-004  0.9118800E+02  0.7818608E-02  0.1130116E+00
         25   -1    0    0    0    0  0.00000000000E+00  0.00000000000E+00  0.99999998245E-14  0.12500000000E+03  0.12500000000E+03 0.  0.
        -13    1    3    3    0    0 -0.38068607752E+00  0.23499411492E+02 -0.77301071023E+01  0.24741321351E+02  0.10566000000E+00 0.  1.
         23    2    1    0    0    0 -0.21880400130E+02 -0.32940517505E+02 -0.40056164351E+01  0.85252364015E+02  0.75419433861E+02 0.  0.
         13    1    3    3    0    0 -0.21499714053E+02 -0.56439928997E+02  0.37244906673E+01  0.60511042664E+02  0.10566000000E+00 0. -1.
         22    1    1    0    0    0  0.21880400130E+02  0.32940517505E+02  0.40056164351E+01  0.39747635985E+02  0.00000000000E+00 0. -1.
</event>
<event>
 5    1  0.6835449E-004  0.9118800E+02  0.7818608E-02  0.1130116E+00
         25   -1    0    0    0    0  0.00000000000E+00  0.00000000000E+00  0.99999998245E-14  0.12500000000E+03  0.12500000000E+03 0.  0.
        -13    1    3    3    0    0 -0.10980087614E+02 -0.27958813818E+02  0.29227122625E+02  0.41910541097E+02  0.10566000000E+00 0.  1.
         23    2    1    0    0    0  0.12742606165E+02  0.28483254502E+01 -0.17796350845E+02  0.10292745884E+03  0.10053290362E+03 0.  0.
         13    1    3    3    0    0  0.23722693779E+02  0.30807139268E+02 -0.47023473469E+02  0.61016917746E+02  0.10566000000E+00 0. -1.
         22    1    1    0    0    0 -0.12742606165E+02 -0.28483254502E+01  0.17796350845E+02  0.22072541157E+02  0.00000000000E+00 0. -1.
</event>
<event>
 5    1  0.6835449E-004  0.9118800E+02  0.7818608E-02  0.1130116E+00
         25   -1    0    0    0    0  0.00000000000E+00  0.00000000000E+00  0.99999998245E-14  0.12500000000E+03  0.12500000000E+03 0.  0.
        -13    1    3    3    0    0  0.34118210654E+02 -0.26686696342E+02  0.23959552359E+02  0.49500539120E+02  0.10566000000E+00 0. -1.
         23    2    1    0    0    0 -0.54231595769E+01 -0.57783303491E+01  0.29392110282E+02  0.94558319556E+02  0.89524186056E+02 0.  0.
         13    1    3    3    0    0 -0.39541370231E+02  0.20908365993E+02  0.54325579233E+01  0.45057780436E+02  0.10566000000E+00 0.  1.
         22    1    1    0    0    0  0.54231595769E+01  0.57783303491E+01 -0.29392110282E+02  0.30441680444E+02  0.00000000000E+00 0.  1.
</event>
<event>
 5    1  0.6835449E-004  0.9118800E+02  0.7818608E-02  0.1130116E+00
         25   -1    0    0    0    0  0.00000000000E+00  0.00000000000E+00  0.99999998245E-14  0.12500000000E+03  0.12500000000E+03 0.  0.
        -13    1    3    3    0    0 -0.23281160793E+02 -0.12720604868E+02 -0.46950203008E+02  0.53927348930E+02  0.10566000000E+00 0.  1.
         23    2    1    0    0    0 -0.59404926450E+01 -0.27057975220E+02 -0.13648318517E+02  0.94117965186E+02  0.88907206100E+02 0.  0.
         13    1    3    3    0    0  0.17340668148E+02 -0.14337370352E+02  0.33301884490E+02  0.40190616257E+02  0.10566000000E+00 0. -1.
         22    1    1    0    0    0  0.59404926450E+01  0.27057975220E+02  0.13648318517E+02  0.30882034814E+02  0.00000000000E+00 0.  1.
</event>
<event>
 5    1  0.6835449E-004  0.9118800E+02  0.7818608E-02  0.1130116E+00
         25   -1    0    0    0    0  0.00000000000E+00  0.00000000000E+00  0.99999998245E-14  0.12500000000E+03  0.12500000000E+03 0.  0.
        -13    1    3    3    0    0 -0.13746972803E+02 -0.52621495676E+02  0.39543616475E+01  0.54531176482E+02  0.10566000000E+00 0.  1.
         23    2    1    0    0    0 -0.17549945045E+02 -0.14423395052E+02  0.18623247116E+02  0.95625517383E+02  0.91002084293E+02 0.  0.
         13    1    3    3    0    0 -0.38029722422E+01  0.38198100624E+02  0.14668885468E+02  0.41094340901E+02  0.10566000000E+00 0. -1.
         22    1    1    0    0    0  0.17549945045E+02  0.14423395052E+02 -0.18623247116E+02  0.29374482617E+02  0.00000000000E+00 0.  1.
</event>
<event>
 5    1  0.6835449E-004  0.9118800E+02  0.7818608E-02  0.1130116E+00
         25   -1    0    0    0    0  0.00000000000E+00  0.00000000000E+00  0.99999998245E-14  0.12500000000E+03  0.12500000000E+03 0.  0.
        -13    1    3    3    0    0 -0.29087411174E+02  0.13632237300E+02 -0.16543036110E+02  0.36133067824E+02  0.10566000000E+00 0.  1.
         23    2    1    0    0    0  0.20390055092E+02 -0.13067218039E+02 -0.21556480376E+02  0.92577964590E+02  0.86714999553E+02 0.  0.
         13    1    3    3    0    0  0.49477466265E+02 -0.26699455339E+02 -0.50134442655E+01  0.56444896766E+02  0.10566000000E+00 0. -1.
         22    1    1    0    0    0 -0.20390055092E+02  0.13067218039E+02  0.21556480376E+02  0.32422035410E+02  0.00000000000E+00 0. -1.
</event>
<event>
 5    1  0.6835449E-004  0.9118800E+02  0.7818608E-02  0.1130116E+00
         25   -1    0    0    0    0  0.00000000000E+00  0.00000000000E+00  0.99999998245E-14  0.12500000000E+03  0.12500000000E+03 0.  0.
        -13    1    3    3    0    0  0.23654362527E+02 -0.66668804732E+01 -0.57123378165E+02  0.62185751252E+02  0.10566000000E+00 0.  1.
         23    2    1    0    0    0  0.99098204406E+01 -0.73890240421E+01 -0.26849727955E+02  0.95441412268E+02  0.90748846092E+02 0.  0.
         13    1    3    3    0    0 -0.13744542086E+02 -0.72214356895E+00  0.30273650211E+02  0.33255661016E+02  0.10566000000E+00 0. -1.
         22    1    1    0    0    0 -0.99098204406E+01  0.73890240421E+01  0.26849727955E+02  0.29558587732E+02  0.00000000000E+00 0.  1.
</event>
<event>
 5    1  0.6835449E-004  0.9118800E+02  0.7818608E-02  0.1130116E+00
         25   -1    0    0    0    0  0.00000000000E+00  0.00000000000E+00  0.99999998245E-14  0.12500000000E+03  0.12500000000E+03 0.  0.
        -13    1    3    3    0    0 -0.74744376739E+00 -0.13428726694E+02 -0.55956657030E+02  0.57550395332E+02  0.10566000000E+00 0.  1.
         23    2    1    0    0    0 -0.16112364431E+02  0.15688553423E+01 -0.24211440781E+02  0.95875037178E+02  0.91344180409E+02 0.  0.
         13    1    3    3    0    0 -0.15364920664E+02  0.14997582036E+02  0.31745216249E+02  0.38324641847E+02  0.10566000000E+00 0. -1.
         22    1    1    0    0    0  0.16112364431E+02 -0.15688553423E+01  0.24211440781E+02  0.29124962822E+02  0.00000000000E+00 0.  1.
</event>
<event>
 5    1  0.6835449E-004  0.9118800E+02  0.7818608E-02  0.1130116E+00
         25   -1    0    0    0    0  0.00000000000E+00  0.00000000000E+00  0.99999998245E-14  0.12500000000E+03  0.12500000000E+03 0.  0.
        -13    1    3    3    0    0  0.26897290674E+02 -0.20886851349E+02 -0.49772132207E+02  0.60307554363E+02  0.10566000000E+00 0. -1.
         23    2    1    0    0    0  0.60256860038E+01  0.10795357136E+01 -0.24446712883E+02  0.99798490919E+02  0.96564086128E+02 0.  0.
         13    1    3    3    0    0 -0.20871604670E+02  0.21966387062E+02  0.25325419323E+02  0.39490936555E+02  0.10566000000E+00 0.  1.
         22    1    1    0    0    0 -0.60256860038E+01 -0.10795357136E+01  0.24446712883E+02  0.25201509081E+02  0.00000000000E+00 0. -1.
</event>
<event>
 5    1  0.6835449E-004  0.9118800E+02  0.7818608E-02  0.1130116E+00
         25   -1    0    0    0    0  0.00000000000E+00  0.00000000000E+00  0.99999998245E-14  0.12500000000E+03  0.12500000000E+03 0.  0.
        -13    1    3    3    0    0 -0.25880499495E+02  0.45404335467E+02  0.29389888788E+02  0.59959408439E+02  0.10566000000E+00 0.  1.
         23    2    1    0    0    0 -0.18628113907E+02  0.11411329927E+02  0.18470908231E+02  0.96392316953E+02  0.92049330461E+02 0.  0.
         13    1    3    3    0    0  0.72523855875E+01 -0.33993005540E+02 -0.10918980558E+02  0.36432908514E+02  0.10566000000E+00 0. -1.
         22    1    1    0    0    0  0.18628113907E+02 -0.11411329927E+02 -0.18470908231E+02  0.28607683047E+02  0.00000000000E+00 0.  1.
</event>
<event>
 5    1  0.6835449E-004  0.9118800E+02  0.7818608E-02  0.1130116E+00
         25   -1    0    0    0    0  0.00000000000E+00  0.00000000000E+00  0.99999998245E-14  0.12500000000E+03  0.12500000000E+03 0.  0.
        -13    1    3    3    0    0 -0.17468846139E+02 -0.23179449893E+02 -0.20089483688E+02  0.35299376789E+02  0.10566000000E+00 0.  1.
         23    2    1    0    0    0 -0.44675710020E+01  0.22744759563E+02  0.17420485983E+02  0.96004196681E+02  0.91520758138E+02 0.  0.
         13    1    3    3    0    0  0.13001275137E+02  0.45924209456E+02  0.37509969671E+02  0.60704819892E+02  0.10566000000E+00 0. -1.
         22    1    1    0    0    0  0.44675710020E+01 -0.22744759563E+02 -0.17420485983E+02  0.28995803319E+02  0.00000000000E+00 0. -1.
</event>
<event>
 5    1  0.6835449E-004  0.9118800E+02  0.7818608E-02  0.1130116E+00
         25   -1    0    0    0    0  0.00000000000E+00  0.00000000000E+00  0.99999998245E-14  0.12500000000E+03  0.12500000000E+03 0.  0.
        -13    1    3    3    0    0 -0.58432548007E+01  0.10762225013E+02  0.32255085975E+02  0.34501751393E+02  0.10566000000E+00 0.  1.
         23    2    1    0    0    0  0.25870190350E+02 -0.75544752492E+01 -0.14897315538E+02  0.94206058140E+02  0.89030975144E+02 0.  0.
         13    1    3    3    0    0  0.31713445150E+02 -0.18316700262E+02 -0.47152401513E+02  0.59704306748E+02  0.10566000000E+00 0. -1.
         22    1    1    0    0    0 -0.25870190350E+02  0.75544752492E+01  0.14897315538E+02  0.30793941860E+02  0.00000000000E+00 0. -1.
</event>
<event>
 5    1  0.6835449E-004  0.9118800E+02  0.7818608E-02  0.1130116E+00
         25   -1    0    0    0    0  0.00000000000E+00  0.00000000000E+00  0.99999998245E-14  0.12500000000E+03  0.12500000000E+03 0.  0.
        -13    1    3    3    0    0  0.31435186079E+02 -0.35246487139E+02 -0.38041867590E+02  0.60643883725E+02  0.10566000000E+00 0. -1.
         23    2    1    0    0    0  0.21575858317E+02 -0.17642009047E+02 -0.95868786289E+01  0.95526853117E+02  0.90866458495E+02 0.  0.
         13    1    3    3    0    0 -0.98593277622E+01  0.17604478092E+02  0.28454988961E+02  0.34882969393E+02  0.10566000000E+00 0.  1.
         22    1    1    0    0    0 -0.21575858317E+02  0.17642009047E+02  0.95868786289E+01  0.29473146883E+02  0.00000000000E+00 0. -1.
</event>
<event>
 5    1  0.6835449E-004  0.9118800E+02  0.7818608E-02  0.1130116E+00
         25   -1    0    0    0    0  0.00000000000E+00  0.00000000000E+00  0.99999998245E-14  0.12500000000E+03  0.12500000000E+03 0.  0.
        -13    1    3    3    0    0  0.14758941036E+02 -0.25628277585E+02 -0.15686958546E+02  0.33477257727E+02  0.10566000000E+00 0. -1.
         23    2    1    0    0    0 -0.11038992317E+02  0.14883500598E+02  0.23223448631E+02  0.95289622895E+02  0.90539525753E+02 0.  0.
         13    1    3    3    0    0 -0.25797933353E+02  0.40511778183E+02  0.38910407177E+02  0.61812365167E+02  0.10566000000E+00 0.  1.
         22    1    1    0    0    0  0.11038992317E+02 -0.14883500598E+02 -0.23223448631E+02  0.29710377105E+02  0.00000000000E+00 0.  1.
</event>
<event>
 5    1  0.6835449E-004  0.9118800E+02  0.7818608E-02  0.1130116E+00
         25   -1    0    0    0    0  0.00000000000E+00  0.00000000000E+00  0.99999998245E-14  0.12500000000E+03  0.12500000000E+03 0.  0.
        -13    1    3    3    0    0  0.27469728279E+02 -0.45922929693E+02  0.20281344403E+02  0.57226266156E+02  0.10566000000E+00 0.  1.
         23    2    1    0    0    0  0.34045420076E+01 -0.19075006632E+02  0.24761374285E+02  0.93558428144E+02  0.88117007643E+02 0.  0.
         13    1    3    3    0    0 -0.24065186271E+02  0.26847923061E+02  0.44800298819E+01  0.36332161988E+02  0.10566000000E+00 0. -1.
         22    1    1    0    0    0 -0.34045420076E+01  0.19075006632E+02 -0.24761374285E+02  0.31441571856E+02  0.00000000000E+00 0.  1.
</event>
<event>
 5    1  0.6835449E-004  0.9118800E+02  0.7818608E-02  0.1130116E+00
         25   -1    0    0    0    0  0.00000000000E+00  0.00000000000E+00  0.99999998245E-14  0.12500000000E+03  0.12500000000E+03 0.  0.
        -13    1    3    3    0    0 -0.31359665768E+02 -0.51924818945E+02  0.13807806929E+02  0.62211591812E+02  0.10566000000E+00 0.  1.
         23    2    1    0    0    0 -0.13245997104E+02 -0.23961340879E+02  0.10436382557E+02  0.95699481628E+02  0.91103624554E+02 0.  0.
         13    1    3    3    0    0  0.18113668665E+02  0.27963478065E+02 -0.33714243716E+01  0.33487889816E+02  0.10566000000E+00 0. -1.
         22    1    1    0    0    0  0.13245997104E+02  0.23961340879E+02 -0.10436382557E+02  0.29300518372E+02  0.00000000000E+00 0.  1.
</event>
<event>
 5    1  0.6835449E-004  0.9118800E+02  0.7818608E-02  0.1130116E+00
         25   -1    0    0    0    0  0.00000000000E+00  0.00000000000E+00  0.99999998245E-14  0.12500000000E+03  0.12500000000E+03 0.  0.
        -13    1    3    3    0    0  0.23880009783E+02  0.24715902315E+02  0.37407663037E+02  0.50798377065E+02  0.10566000000E+00 0.  1.
         23    2    1    0    0    0 -0.15784951103E+02  0.17707849961E+02  0.15677950273E+02  0.96565324754E+02  0.92283970377E+02 0.  0.
         13    1    3    3    0    0 -0.39664960886E+02 -0.70080523545E+01 -0.21729712765E+02  0.45766947689E+02  0.10566000000E+00 0. -1.
         22    1    1    0    0    0  0.15784951103E+02 -0.17707849961E+02 -0.15677950273E+02  0.28434675246E+02  0.00000000000E+00 0. -1.
</event>
<event>
 5    1  0.6835449E-004  0.9118800E+02  0.7818608E-02  0.1130116E+00
         25   -1    0    0    0    0  0.00000000000E+00  0.00000000000E+00  0.99999998245E-14  0.12500000000E+03  0.12500000000E+03 0.  0.
        -13    1    3    3    0    0  0.16693751253E+02 -0.40602461841E+02 -0.93141209430E+00  0.43910362455E+02  0.10566000000E+00 0.  1.
         23    2    1    0    0    0  0.37835213990E+01 -0.52680382383E+01 -0.31782687411E+02  0.92562267648E+02  0.86692369399E+02 0.  0.
         13    1    3    3    0    0 -0.12910229854E+02  0.35334423602E+02 -0.30851275317E+02  0.48651905193E+02  0.10566000000E+00 0. -1.
         22    1    1    0    0    0 -0.37835213990E+01  0.52680382383E+01  0.31782687411E+02  0.32437732352E+02  0.00000000000E+00 0. -1.
</event>
<event>
 5    1  0.6835449E-004  0.9118800E+02  0.7818608E-02  0.1130116E+00
         25   -1    0    0    0    0  0.00000000000E+00  0.00000000000E+00  0.99999998245E-14  0.12500000000E+03  0.12500000000E+03 0.  0.
        -13    1    3    3    0    0  0.23077811424E+02  0.29380079097E+02  0.38749002846E+02  0.53826302246E+02  0.10566000000E+00 0.  1.
         23    2    1    0    0    0  0.27037013770E+02  0.10014153295E+02  0.13396188956E+01  0.96136910099E+02  0.91701840357E+02 0.  0.
         13    1    3    3    0    0  0.39592023461E+01 -0.19365925801E+02 -0.37409383950E+02  0.42310607853E+02  0.10566000000E+00 0. -1.
         22    1    1    0    0    0 -0.27037013770E+02 -0.10014153295E+02 -0.13396188956E+01  0.28863089901E+02  0.00000000000E+00 0.  1.
</event>
<event>
 5    1  0.6835449E-004  0.9118800E+02  0.7818608E-02  0.1130116E+00
         25   -1    0    0    0    0  0.00000000000E+00  0.00000000000E+00  0.99999998245E-14  0.12500000000E+03  0.12500000000E+03 0.  0.
        -13    1    3    3    0    0 -0.23872111258E+02 -0.75379843132E+01 -0.34805707529E+02  0.42873620608E+02  0.10566000000E+00 0. -1.
         23    2    1    0    0    0 -0.17550281352E+02 -0.22891064334E+02  0.12911744947E+02  0.93397367840E+02  0.87888235618E+02 0.  0.
         13    1    3    3    0    0  0.63218299061E+01 -0.15353080021E+02  0.47717452476E+02  0.50523747232E+02  0.10566000000E+00 0.  1.
         22    1    1    0    0    0  0.17550281352E+02  0.22891064334E+02 -0.12911744947E+02  0.31602632160E+02  0.00000000000E+00 0. -1.
</event>
<event>
 5    1  0.6835449E-004  0.9118800E+02  0.7818608E-02  0.1130116E+00
         25   -1    0    0    0    0  0.00000000000E+00  0.00000000000E+00  0.99999998245E-14  0.12500000000E+03  0.12500000000E+03 0.  0.
        -13    1    3    3    0    0 -0.15179510493E+02  0.22123757105E+02  0.25715314149E+02  0.37164051355E+02  0.10566000000E+00 0.  1.
         23    2    1    0    0    0 -0.78218371424E+01  0.93850553922E+01 -0.28845789888E+02  0.93673653337E+02  0.88280311136E+02 0.  0.
         13    1    3    3    0    0  0.73576733504E+01 -0.12738701713E+02 -0.54561104037E+02  0.56509601983E+02  0.10566000000E+00 0. -1.
         22    1    1    0    0    0  0.78218371424E+01 -0.93850553922E+01  0.28845789888E+02  0.31326346663E+02  0.00000000000E+00 0. -1.
</event>
<event>
 5    1  0.6835449E-004  0.9118800E+02  0.7818608E-02  0.1130116E+00
         25   -1    0    0    0    0  0.00000000000E+00  0.00000000000E+00  0.99999998245E-14  0.12500000000E+03  0.12500000000E+03 0.  0.
        -13    1    3    3    0    0  0.34064916493E+02 -0.20561421863E+01 -0.61275318983E+01  0.34672814532E+02  0.10566000000E+00 0.  1.
         23    2    1    0    0    0 -0.27143517438E+02 -0.69489270409E+01  0.32677433243E+01  0.96791202217E+02  0.92589419235E+02 0.  0.
         13    1    3    3    0    0 -0.61208433932E+02 -0.48927848546E+01  0.93952752226E+01  0.62118387685E+02  0.10566000000E+00 0. -1.
         22    1    1    0    0    0  0.27143517438E+02  0.69489270409E+01 -0.32677433243E+01  0.28208797783E+02  0.00000000000E+00 0. -1.
</event>
<event>
 5    1  0.6835449E-004  0.9118800E+02  0.7818608E-02  0.1130116E+00
         25   -1    0    0    0    0  0.00000000000E+00  0.00000000000E+00  0.99999998245E-14  0.12500000000E+03  0.12500000000E+03 0.  0.
        -13    1    3    3    0    0 -0.14243703580E+02 -0.29860676957E+02  0.28949526437E+02  0.43961680643E+02  0.10566000000E+00 0.  1.
         23    2    1    0    0    0 -0.16958490086E+02 -0.17853724585E+02 -0.19272713996E+02  0.93730472144E+02  0.88360726774E+02 0.  0.
         13    1    3    3    0    0 -0.27147865069E+01  0.12006952372E+02 -0.48222240433E+02  0.49768791501E+02  0.10566000000E+00 0. -1.
         22    1    1    0    0    0  0.16958490086E+02  0.17853724585E+02  0.19272713996E+02  0.31269527856E+02  0.00000000000E+00 0.  1.
</event>
<event>
 5    1  0.6835449E-004  0.9118800E+02  0.7818608E-02  0.1130116E+00
         25   -1    0    0    0    0  0.00000000000E+00  0.00000000000E+00  0.99999998245E-14  0.12500000000E+03  0.12500000000E+03 0.  0.
        -13    1    3    3    0    0 -0.95093548870E+01 -0.33976508083E+02  0.15634667591E+02  0.38591254535E+02  0.10566000000E+00 0.  1.
         23    2    1    0    0    0 -0.28279905893E+01  0.24777755429E+02  0.10481049087E+02  0.97948436555E+02  0.94138775957E+02 0.  0.
         13    1    3    3    0    0  0.66813642977E+01  0.58754263511E+02 -0.51536185031E+01  0.59357182020E+02  0.10566000000E+00 0. -1.
         22    1    1    0    0    0  0.28279905893E+01 -0.24777755429E+02 -0.10481049087E+02  0.27051563445E+02  0.00000000000E+00 0.  1.
</event>
<event>
 5    1  0.6835449E-004  0.9118800E+02  0.7818608E-02  0.1130116E+00
         25   -1    0    0    0    0  0.00000000000E+00  0.00000000000E+00  0.99999998245E-14  0.12500000000E+03  0.12500000000E+03 0.  0.
        -13    1    3    3    0    0  0.23127762102E+02  0.13690332851E+02 -0.53340529763E+02  0.59728903161E+02  0.10566000000E+00 0.  1.
         23    2    1    0    0    0  0.52252871766E+01 -0.55009618390E+01 -0.27162305601E+02  0.96797960131E+02  0.92598542282E+02 0.  0.
         13    1    3    3    0    0 -0.17902474925E+02 -0.19191294690E+02  0.26178224162E+02  0.37069056970E+02  0.10566000000E+00 0. -1.
         22    1    1    0    0    0 -0.52252871766E+01  0.55009618390E+01  0.27162305601E+02  0.28202039869E+02  0.00000000000E+00 0.  1.
</event>
<event>
 5    1  0.6835449E-004  0.9118800E+02  0.7818608E-02  0.1130116E+00
         25   -1    0    0    0    0  0.00000000000E+00  0.00000000000E+00  0.99999998245E-14  0.12500000000E+03  0.12500000000E+03 0.  0.
        -13    1    3    3    0    0 -0.42506251150E+02 -0.12276786431E+02  0.17572502775E+02  0.47605723287E+02  0.10566000000E+00 0. -1.
         23    2    1    0    0    0 -0.16342103931E+01  0.10640085165E+02  0.27468212716E+02  0.95497715923E+02  0.90826367212E+02 0.  0.
         13    1    3    3    0    0  0.40872040757E+02  0.22916871596E+02  0.98957099415E+01  0.47891992636E+02  0.10566000000E+00 0.  1.
         22    1    1    0    0    0  0.16342103931E+01 -0.10640085165E+02 -0.27468212716E+02  0.29502284077E+02  0.00000000000E+00 0. -1.
</event>
<event>
 5    1  0.6835449E-004  0.9118800E+02  0.7818608E-02  0.1130116E+00
         25   -1    0    0    0    0  0.00000000000E+00  0.00000000000E+00  0.99999998245E-14  0.12500000000E+03  0.12500000000E+03 0.  0.
        -13    1    3    3    0    0 -0.18467713146E+02 -0.31453249652E+02  0.23862406366E+02  0.43586568391E+02  0.10566000000E+00 0. -1.
         23    2    1    0    0    0 -0.27411437108E+02 -0.78090969970E+00 -0.14877346935E+02  0.93801728316E+02  0.88461472285E+02 0.  0.
         13    1    3    3    0    0 -0.89437239618E+01  0.30672339952E+02 -0.38739753301E+02  0.50215159925E+02  0.10566000000E+00 0.  1.
         22    1    1    0    0    0  0.27411437108E+02  0.78090969970E+00  0.14877346935E+02  0.31198271684E+02  0.00000000000E+00 0. -1.
</event>
<event>
 5    1  0.6835449E-004  0.9118800E+02  0.7818608E-02  0.1130116E+00
         25   -1    0    0    0    0  0.00000000000E+00  0.00000000000E+00  0.99999998245E-14  0.12500000000E+03  0.12500000000E+03 0.  0.
        -13    1    3    3    0    0  0.30987507414E+02  0.52268934420E+01  0.19642066010E+02  0.37058979370E+02  0.10566000000E+00 0. -1.
         23    2    1    0    0    0 -0.25204906576E+02  0.13152113450E+02  0.19427436515E+01  0.96503690474E+02  0.92200448039E+02 0.  0.
         13    1    3    3    0    0 -0.56192413990E+02  0.79252200077E+01 -0.17699322358E+02  0.59444711104E+02  0.10566000000E+00 0.  1.
         22    1    1    0    0    0  0.25204906576E+02 -0.13152113450E+02 -0.19427436515E+01  0.28496309526E+02  0.00000000000E+00 0.  1.
</event>
<event>
 5    1  0.6835449E-004  0.9118800E+02  0.7818608E-02  0.1130116E+00
         25   -1    0    0    0    0  0.00000000000E+00  0.00000000000E+00  0.99999998245E-14  0.12500000000E+03  0.12500000000E+03 0.  0.
        -13    1    3    3    0    0 -0.23687090226E+00  0.36137848553E+02  0.11406669186E+02  0.37896219756E+02  0.10566000000E+00 0.  1.
         23    2    1    0    0    0  0.33431408479E+00 -0.21476989247E+02  0.19388338153E+02  0.96064200558E+02  0.91602675395E+02 0.  0.
         13    1    3    3    0    0  0.57118498705E+00 -0.57614837800E+02  0.79816689662E+01  0.58167980802E+02  0.10566000000E+00 0. -1.
         22    1    1    0    0    0 -0.33431408479E+00  0.21476989247E+02 -0.19388338153E+02  0.28935799442E+02  0.00000000000E+00 0. -1.
</event>
<event>
 5    1  0.6835449E-004  0.9118800E+02  0.7818608E-02  0.1130116E+00
         25   -1    0    0    0    0  0.00000000000E+00  0.00000000000E+00  0.99999998245E-14  0.12500000000E+03  0.12500000000E+03 0.  0.
        -13    1    3    3    0    0  0.14603744598E+02  0.21660546672E+02  0.23388578799E+02  0.35064018889E+02  0.10566000000E+00 0. -1.
         23    2    1    0    0    0  0.35382257501E+01 -0.77433810638E+01 -0.28242328908E+02  0.95502404608E+02  0.90832819796E+02 0.  0.
         13    1    3    3    0    0 -0.11065518848E+02 -0.29403927735E+02 -0.51630907707E+02  0.60438385719E+02  0.10566000000E+00 0.  1.
         22    1    1    0    0    0 -0.35382257501E+01  0.77433810638E+01  0.28242328908E+02  0.29497595392E+02  0.00000000000E+00 0.  1.
</event>
<event>
 5    1  0.6835449E-004  0.9118800E+02  0.7818608E-02  0.1130116E+00
         25   -1    0    0    0    0  0.00000000000E+00  0.00000000000E+00  0.99999998245E-14  0.12500000000E+03  0.12500000000E+03 0.  0.
        -13    1    3    3    0    0  0.38198913402E+02 -0.25746001556E+02  0.18581211782E+02  0.49671784511E+02  0.10566000000E+00 0. -1.
         23    2    1    0    0    0  0.39164202596E+02  0.58840201393E+01  0.18432113386E+02  0.81317059831E+02  0.68587644351E+02 0.  0.
         13    1    3    3    0    0  0.96528919403E+00  0.31630021695E+02 -0.14909839655E+00  0.31645275319E+02  0.10566000000E+00 0.  1.
         22    1    1    0    0    0 -0.39164202596E+02 -0.58840201393E+01 -0.18432113386E+02  0.43682940169E+02  0.00000000000E+00 0. -1.
</event>
<event>
 5    1  0.6835449E-004  0.9118800E+02  0.7818608E-02  0.1130116E+00
         25   -1    0    0    0    0  0.00000000000E+00  0.00000000000E+00  0.99999998245E-14  0.12500000000E+03  0.12500000000E+03 0.  0.
        -13    1    3    3    0    0  0.37157441705E+02 -0.39226514358E+02 -0.20802277834E+02  0.57897675513E+02  0.10566000000E+00 0.  1.
         23    2    1    0    0    0  0.25804811273E+02 -0.77287264439E+01  0.13247643127E+01  0.98030081613E+02  0.94247124112E+02 0.  0.
         13    1    3    3    0    0 -0.11352630431E+02  0.31497787914E+02  0.22127042147E+02  0.40132406100E+02  0.10566000000E+00 0. -1.
         22    1    1    0    0    0 -0.25804811273E+02  0.77287264439E+01 -0.13247643127E+01  0.26969918387E+02  0.00000000000E+00 0.  1.
</event>
<event>
 5    1  0.6835449E-004  0.9118800E+02  0.7818608E-02  0.1130116E+00
         25   -1    0    0    0    0  0.00000000000E+00  0.00000000000E+00  0.99999998245E-14  0.12500000000E+03  0.12500000000E+03 0.  0.
        -13    1    3    3    0    0  0.67442582948E+01 -0.74567962686E+01 -0.50304074547E+02  0.51299121928E+02  0.10566000000E+00 0.  1.
         23    2    1    0    0    0  0.10348870237E+02  0.21487713322E+02 -0.16235233195E+02  0.96148592133E+02  0.91717762911E+02 0.  0.
         13    1    3    3    0    0  0.36046119423E+01  0.28944509590E+02  0.34068841351E+02  0.44849470206E+02  0.10566000000E+00 0. -1.
         22    1    1    0    0    0 -0.10348870237E+02 -0.21487713322E+02  0.16235233195E+02  0.28851407867E+02  0.00000000000E+00 0. -1.
</event>
<event>
 5    1  0.6835449E-004  0.9118800E+02  0.7818608E-02  0.1130116E+00
         25   -1    0    0    0    0  0.00000000000E+00  0.00000000000E+00  0.99999998245E-14  0.12500000000E+03  0.12500000000E+03 0.  0.
        -13    1    3    3    0    0 -0.85298307545E+01  0.35607405767E+02 -0.23394287264E+02  0.43450537382E+02  0.10566000000E+00 0.  1.
         23    2    1    0    0    0  0.25723894809E+02  0.14308915500E+02  0.79231745715E+01  0.94516553308E+02  0.89465850060E+02 0.  0.
         13    1    3    3    0    0  0.34253725564E+02 -0.21298490268E+02  0.31317461835E+02  0.51066015926E+02  0.10566000000E+00 0. -1.
         22    1    1    0    0    0 -0.25723894809E+02 -0.14308915500E+02 -0.79231745715E+01  0.30483446692E+02  0.00000000000E+00 0. -1.
</event>
<event>
 5    1  0.6835449E-004  0.9118800E+02  0.7818608E-02  0.1130116E+00
         25   -1    0    0    0    0  0.00000000000E+00  0.00000000000E+00  0.99999998245E-14  0.12500000000E+03  0.12500000000E+03 0.  0.
        -13    1    3    3    0    0 -0.23053567664E+02  0.42753826057E+02  0.63741688449E+01  0.48989772576E+02  0.10566000000E+00 0.  1.
         23    2    1    0    0    0 -0.67857337812E+00  0.10232356521E+02  0.28826709792E+02  0.94403582249E+02  0.89307869542E+02 0.  0.
         13    1    3    3    0    0  0.22374994285E+02 -0.32521469535E+02  0.22452540947E+02  0.45413809673E+02  0.10566000000E+00 0. -1.
         22    1    1    0    0    0  0.67857337812E+00 -0.10232356521E+02 -0.28826709792E+02  0.30596417751E+02  0.00000000000E+00 0.  1.
</event>
<event>
 5    1  0.6835449E-004  0.9118800E+02  0.7818608E-02  0.1130116E+00
         25   -1    0    0    0    0  0.00000000000E+00  0.00000000000E+00  0.99999998245E-14  0.12500000000E+03  0.12500000000E+03 0.  0.
        -13    1    3    3    0    0  0.12549395530E+02 -0.23853793781E+02  0.18239189448E+02  0.32544892098E+02  0.10566000000E+00 0. -1.
         23    2    1    0    0    0 -0.14644039454E+02  0.19437824434E+02 -0.17588245216E+02  0.94972957521E+02  0.90101272912E+02 0.  0.
         13    1    3    3    0    0 -0.27193434984E+02  0.43291618214E+02 -0.35827434664E+02  0.62428065423E+02  0.10566000000E+00 0.  1.
         22    1    1    0    0    0  0.14644039454E+02 -0.19437824434E+02  0.17588245216E+02  0.30027042479E+02  0.00000000000E+00 0.  1.
</event>
<event>
 5    1  0.6835449E-004  0.9118800E+02  0.7818608E-02  0.1130116E+00
         25   -1    0    0    0    0  0.00000000000E+00  0.00000000000E+00  0.99999998245E-14  0.12500000000E+03  0.12500000000E+03 0.  0.
        -13    1    3    3    0    0 -0.20746962036E+02 -0.20414154057E+01 -0.44783405461E+02  0.49398060481E+02  0.10566000000E+00 0.  1.
         23    2    1    0    0    0 -0.21831149638E+02  0.14342977733E+02  0.18256201643E+01  0.98815023511E+02  0.95282505622E+02 0.  0.
         13    1    3    3    0    0 -0.10841876019E+01  0.16384393138E+02  0.46609025625E+02  0.49416963029E+02  0.10566000000E+00 0. -1.
         22    1    1    0    0    0  0.21831149638E+02 -0.14342977733E+02 -0.18256201643E+01  0.26184976489E+02  0.00000000000E+00 0.  1.
</event>
<event>
 5    1  0.6835449E-004  0.9118800E+02  0.7818608E-02  0.1130116E+00
         25   -1    0    0    0    0  0.00000000000E+00  0.00000000000E+00  0.99999998245E-14  0.12500000000E+03  0.12500000000E+03 0.  0.
        -13    1    3    3    0    0 -0.92147156833E+01  0.36622256241E+02  0.20114506235E+02  0.42786740497E+02  0.10566000000E+00 0.  1.
         23    2    1    0    0    0  0.96068201379E+01  0.21496834299E+01 -0.22318400928E+02  0.10060690360E+03  0.97604948133E+02 0.  0.
         13    1    3    3    0    0  0.18821535821E+02 -0.34472572811E+02 -0.42432907163E+02  0.57820163102E+02  0.10566000000E+00 0. -1.
         22    1    1    0    0    0 -0.96068201379E+01 -0.21496834299E+01  0.22318400928E+02  0.24393096400E+02  0.00000000000E+00 0. -1.
</event>
<event>
 5    1  0.6835449E-004  0.9118800E+02  0.7818608E-02  0.1130116E+00
         25   -1    0    0    0    0  0.00000000000E+00  0.00000000000E+00  0.99999998245E-14  0.12500000000E+03  0.12500000000E+03 0.  0.
        -13    1    3    3    0    0 -0.26870244427E+02  0.39673681964E+02  0.30398568554E+02  0.56745882761E+02  0.10566000000E+00 0. -1.
         23    2    1    0    0    0  0.81293855347E+00  0.28130511577E+02  0.42474944357E+01  0.96539013375E+02  0.92248324341E+02 0.  0.
         13    1    3    3    0    0  0.27683182980E+02 -0.11543170387E+02 -0.26151074118E+02  0.39793130614E+02  0.10566000000E+00 0.  1.
         22    1    1    0    0    0 -0.81293855347E+00 -0.28130511577E+02 -0.42474944357E+01  0.28460986625E+02  0.00000000000E+00 0. -1.
</event>
<event>
 5    1  0.6835449E-004  0.9118800E+02  0.7818608E-02  0.1130116E+00
         25   -1    0    0    0    0  0.00000000000E+00  0.00000000000E+00  0.99999998245E-14  0.12500000000E+03  0.12500000000E+03 0.  0.
        -13    1    3    3    0    0  0.30611688635E+02  0.30056069767E+00  0.30535119896E+02  0.43238530605E+02  0.10566000000E+00 0.  1.
         23    2    1    0    0    0 -0.14687860076E+02  0.20817444490E+02  0.15443511482E+02  0.95207362057E+02  0.90425884095E+02 0.  0.
         13    1    3    3    0    0 -0.45299548711E+02  0.20516883792E+02 -0.15091608414E+02  0.51968831452E+02  0.10566000000E+00 0. -1.
         22    1    1    0    0    0  0.14687860076E+02 -0.20817444490E+02 -0.15443511482E+02  0.29792637943E+02  0.00000000000E+00 0. -1.
</event>
<event>
 5    1  0.6835449E-004  0.9118800E+02  0.7818608E-02  0.1130116E+00
         25   -1    0    0    0    0  0.00000000000E+00  0.00000000000E+00  0.99999998245E-14  0.12500000000E+03  0.12500000000E+03 0.  0.
        -13    1    3    3    0    0 -0.81613167651E+01 -0.38693110814E+00  0.43942953282E+02  0.44696209171E+02  0.10566000000E+00 0. -1.
         23    2    1    0    0    0 -0.21299700451E+02 -0.17931186656E+02 -0.34812828541E+01  0.96940705204E+02  0.92791035671E+02 0.  0.
         13    1    3    3    0    0 -0.13138383686E+02 -0.17544255547E+02 -0.47424236136E+02  0.52244496033E+02  0.10566000000E+00 0.  1.
         22    1    1    0    0    0  0.21299700451E+02  0.17931186656E+02  0.34812828541E+01  0.28059294796E+02  0.00000000000E+00 0.  1.
</event>
<event>
 4    1  0.6835449E-004  0.9118800E+02  0.7818608E-02  0.1130116E+00
         25   -1    0    0    0    0  0.00000000000E+00  0.00000000000E+00  0.99999998245E-14  0.12500000000E+03  0.12500000000E+03 0.  0.
        -13    1    1    0    0    0 -0.13095936034E+02  0.23237221163E+01  0.44933472772E+01  0.14039393109E+02  0.10566000000E+00 0. -1.
         13    1    1    0    0    0 -0.20855302663E+02 -0.37829291589E+02  0.28528777493E+02  0.51767762755E+02  0.10566000000E+00 0.  1.
         22    1    1    0    0    0  0.33951238696E+02  0.35505569473E+02 -0.33022124771E+02  0.59192844137E+02  0.00000000000E+00 0.  1.
</event>
<event>
 5    1  0.6835449E-004  0.9118800E+02  0.7818608E-02  0.1130116E+00
         25   -1    0    0    0    0  0.00000000000E+00  0.00000000000E+00  0.99999998245E-14  0.12500000000E+03  0.12500000000E+03 0.  0.
        -13    1    3    3    0    0  0.83710975022E+01  0.16977107336E+00 -0.43389592623E+02  0.44190179991E+02  0.10566000000E+00 0.  1.
         23    2    1    0    0    0  0.21193638822E+02  0.19087744150E+02  0.34126551620E+01  0.96274427447E+02  0.91889100886E+02 0.  0.
         13    1    3    3    0    0  0.12822541320E+02  0.18917973077E+02  0.46802247785E+02  0.52084247456E+02  0.10566000000E+00 0. -1.
         22    1    1    0    0    0 -0.21193638822E+02 -0.19087744150E+02 -0.34126551620E+01  0.28725572553E+02  0.00000000000E+00 0. -1.
</event>
<event>
 5    1  0.6835449E-004  0.9118800E+02  0.7818608E-02  0.1130116E+00
         25   -1    0    0    0    0  0.00000000000E+00  0.00000000000E+00  0.99999998245E-14  0.12500000000E+03  0.12500000000E+03 0.  0.
        -13    1    3    3    0    0 -0.32444102673E+02  0.22854221324E+01  0.25924760609E+02  0.41592635517E+02  0.10566000000E+00 0.  1.
         23    2    1    0    0    0  0.51417358999E+01  0.28249649975E+02 -0.37137043343E+01  0.96047076630E+02  0.91579305290E+02 0.  0.
         13    1    3    3    0    0  0.37585838573E+02  0.25964227843E+02 -0.29638464944E+02  0.54454441113E+02  0.10566000000E+00 0. -1.
         22    1    1    0    0    0 -0.51417358999E+01 -0.28249649975E+02  0.37137043343E+01  0.28952923370E+02  0.00000000000E+00 0. -1.
</event>
<event>
 5    1  0.6835449E-004  0.9118800E+02  0.7818608E-02  0.1130116E+00
         25   -1    0    0    0    0  0.00000000000E+00  0.00000000000E+00  0.99999998245E-14  0.12500000000E+03  0.12500000000E+03 0.  0.
        -13    1    3    3    0    0 -0.49436383307E+02 -0.15351878925E+02 -0.16522067563E+02  0.54338071935E+02  0.10566000000E+00 0.  1.
         23    2    1    0    0    0 -0.90698503939E+01 -0.70620653037E+01 -0.25955385717E+02  0.96613083995E+02  0.92348638316E+02 0.  0.
         13    1    3    3    0    0  0.40366532913E+02  0.82898136217E+01 -0.94333181547E+01  0.42275012061E+02  0.10566000000E+00 0. -1.
         22    1    1    0    0    0  0.90698503939E+01  0.70620653037E+01  0.25955385717E+02  0.28386916005E+02  0.00000000000E+00 0.  1.
</event>
<event>
 5    1  0.6835449E-004  0.9118800E+02  0.7818608E-02  0.1130116E+00
         25   -1    0    0    0    0  0.00000000000E+00  0.00000000000E+00  0.99999998245E-14  0.12500000000E+03  0.12500000000E+03 0.  0.
        -13    1    3    3    0    0  0.14321900096E+02 -0.25644200641E+01  0.34731621132E+02  0.37656204577E+02  0.10566000000E+00 0.  1.
         23    2    1    0    0    0 -0.21089165665E+02 -0.18616274465E+02 -0.83196970567E+01  0.95665107082E+02  0.91056448264E+02 0.  0.
         13    1    3    3    0    0 -0.35411065762E+02 -0.16051854400E+02 -0.43051318188E+02  0.58008902505E+02  0.10566000000E+00 0. -1.
         22    1    1    0    0    0  0.21089165665E+02  0.18616274465E+02  0.83196970567E+01  0.29334892918E+02  0.00000000000E+00 0. -1.
</event>
<event>
 5    1  0.6835449E-004  0.9118800E+02  0.7818608E-02  0.1130116E+00
         25   -1    0    0    0    0  0.00000000000E+00  0.00000000000E+00  0.99999998245E-14  0.12500000000E+03  0.12500000000E+03 0.  0.
        -13    1    3    3    0    0 -0.32540843877E+02  0.33378490135E+02 -0.29918796344E+02  0.55391115376E+02  0.10566000000E+00 0.  1.
         23    2    1    0    0    0 -0.24921072454E+02  0.15178677652E+02  0.49000078340E+01  0.95411789776E+02  0.90708034065E+02 0.  0.
         13    1    3    3    0    0  0.76197714229E+01 -0.18199812483E+02  0.34818804178E+02  0.40020674399E+02  0.10566000000E+00 0. -1.
         22    1    1    0    0    0  0.24921072454E+02 -0.15178677652E+02 -0.49000078340E+01  0.29588210224E+02  0.00000000000E+00 0. -1.
</event>
<event>
 5    1  0.6835449E-004  0.9118800E+02  0.7818608E-02  0.1130116E+00
         25   -1    0    0    0    0  0.00000000000E+00  0.00000000000E+00  0.99999998245E-14  0.12500000000E+03  0.12500000000E+03 0.  0.
        -13    1    3    3    0    0  0.58021928976E+01  0.40734875890E+02  0.52013382443E+01  0.41473613777E+02  0.10566000000E+00 0. -1.
         23    2    1    0    0    0  0.28287586865E+02 -0.23200140723E+01 -0.13560846204E+02  0.93544212207E+02  0.88096839056E+02 0.  0.
         13    1    3    3    0    0  0.22485393967E+02 -0.43054889962E+02 -0.18762184448E+02  0.52070598430E+02  0.10566000000E+00 0.  1.
         22    1    1    0    0    0 -0.28287586865E+02  0.23200140723E+01  0.13560846204E+02  0.31455787793E+02  0.00000000000E+00 0. -1.
</event>
<event>
 5    1  0.6835449E-004  0.9118800E+02  0.7818608E-02  0.1130116E+00
         25   -1    0    0    0    0  0.00000000000E+00  0.00000000000E+00  0.99999998245E-14  0.12500000000E+03  0.12500000000E+03 0.  0.
        -13    1    3    3    0    0 -0.81758692992E+01 -0.86812974287E+01 -0.32196381345E+02  0.34334063255E+02  0.10566000000E+00 0. -1.
         23    2    1    0    0    0 -0.34561279172E+02 -0.18774307924E+02  0.93474918415E+01  0.84573124536E+02  0.74285134004E+02 0.  0.
         13    1    3    3    0    0 -0.26385409873E+02 -0.10093010496E+02  0.41543873187E+02  0.50239061281E+02  0.10566000000E+00 0.  1.
         22    1    1    0    0    0  0.34561279172E+02  0.18774307924E+02 -0.93474918415E+01  0.40426875464E+02  0.00000000000E+00 0.  1.
</event>
<event>
 5    1  0.6835449E-004  0.9118800E+02  0.7818608E-02  0.1130116E+00
         25   -1    0    0    0    0  0.00000000000E+00  0.00000000000E+00  0.99999998245E-14  0.12500000000E+03  0.12500000000E+03 0.  0.
        -13    1    3    3    0    0 -0.82575533192E+01 -0.27578850257E+02 -0.18084943155E+02  0.33997889659E+02  0.10566000000E+00 0.  1.
         23    2    1    0    0    0  0.20950731738E+01  0.26893816490E+02  0.10097408364E+02  0.96196799610E+02  0.91783440242E+02 0.  0.
         13    1    3    3    0    0  0.10352626493E+02  0.54472666747E+02  0.28182351519E+02  0.62198909951E+02  0.10566000000E+00 0. -1.
         22    1    1    0    0    0 -0.20950731738E+01 -0.26893816490E+02 -0.10097408364E+02  0.28803200390E+02  0.00000000000E+00 0. -1.
</event>
<event>
 5    1  0.6835449E-004  0.9118800E+02  0.7818608E-02  0.1130116E+00
         25   -1    0    0    0    0  0.00000000000E+00  0.00000000000E+00  0.99999998245E-14  0.12500000000E+03  0.12500000000E+03 0.  0.
        -13    1    3    3    0    0  0.31838083726E+02  0.59578370769E+01  0.18168792401E+02  0.37138599587E+02  0.10566000000E+00 0.  1.
         23    2    1    0    0    0 -0.14473924706E+02 -0.25494997533E+02  0.11138609119E+01  0.95661798253E+02  0.91051905874E+02 0.  0.
         13    1    3    3    0    0 -0.46312008432E+02 -0.31452834610E+02 -0.17054931489E+02  0.58523198666E+02  0.10566000000E+00 0. -1.
         22    1    1    0    0    0  0.14473924706E+02  0.25494997533E+02 -0.11138609119E+01  0.29338201747E+02  0.00000000000E+00 0. -1.
</event>
<event>
 5    1  0.6835449E-004  0.9118800E+02  0.7818608E-02  0.1130116E+00
         25   -1    0    0    0    0  0.00000000000E+00  0.00000000000E+00  0.99999998245E-14  0.12500000000E+03  0.12500000000E+03 0.  0.
        -13    1    3    3    0    0  0.34860589067E+02 -0.24585877939E+01  0.18845605256E+02  0.39704827484E+02  0.10566000000E+00 0.  1.
         23    2    1    0    0    0 -0.61441054969E+01  0.18860868157E+02  0.31637249109E+02  0.87658362233E+02  0.79306938903E+02 0.  0.
         13    1    3    3    0    0 -0.41004694564E+02  0.21319455950E+02  0.12791643853E+02  0.47953534748E+02  0.10566000000E+00 0. -1.
         22    1    1    0    0    0  0.61441054969E+01 -0.18860868157E+02 -0.31637249109E+02  0.37341637767E+02  0.00000000000E+00 0. -1.
</event>
<event>
 5    1  0.6835449E-004  0.9118800E+02  0.7818608E-02  0.1130116E+00
         25   -1    0    0    0    0  0.00000000000E+00  0.00000000000E+00  0.99999998245E-14  0.12500000000E+03  0.12500000000E+03 0.  0.
        -13    1    3    3    0    0  0.16699471163E+02  0.35632432008E+02 -0.18151808235E+02  0.43336380262E+02  0.10566000000E+00 0. -1.
         23    2    1    0    0    0 -0.24048267979E+02  0.20540383851E+01 -0.15726679837E+02  0.96192592530E+02  0.91777710433E+02 0.  0.
         13    1    3    3    0    0 -0.40747739142E+02 -0.33578393623E+02  0.24251283974E+01  0.52856212268E+02  0.10566000000E+00 0.  1.
         22    1    1    0    0    0  0.24048267979E+02 -0.20540383851E+01  0.15726679837E+02  0.28807407470E+02  0.00000000000E+00 0.  1.
</event>
<event>
 5    1  0.6835449E-004  0.9118800E+02  0.7818608E-02  0.1130116E+00
         25   -1    0    0    0    0  0.00000000000E+00  0.00000000000E+00  0.99999998245E-14  0.12500000000E+03  0.12500000000E+03 0.  0.
        -13    1    3    3    0    0 -0.21374059596E+02  0.86358729330E+01  0.52083150420E+02  0.56956952575E+02  0.10566000000E+00 0. -1.
         23    2    1    0    0    0 -0.79079674737E+01  0.20635758628E+02  0.14716687667E+02  0.98449079496E+02  0.94801212407E+02 0.  0.
         13    1    3    3    0    0  0.13466092122E+02  0.11999885695E+02 -0.37366462752E+02  0.41492126921E+02  0.10566000000E+00 0.  1.
         22    1    1    0    0    0  0.79079674737E+01 -0.20635758628E+02 -0.14716687667E+02  0.26550920504E+02  0.00000000000E+00 0. -1.
</event>
<event>
 5    1  0.6835449E-004  0.9118800E+02  0.7818608E-02  0.1130116E+00
         25   -1    0    0    0    0  0.00000000000E+00  0.00000000000E+00  0.99999998245E-14  0.12500000000E+03  0.12500000000E+03 0.  0.
        -13    1    3    3    0    0 -0.48552118454E+02  0.39881593728E+01 -0.27542545678E+02  0.55962635821E+02  0.10566000000E+00 0. -1.
         23    2    1    0    0    0 -0.28275916432E+02  0.76843698692E+01  0.57701750295E+01  0.95135775412E+02  0.90326872264E+02 0.  0.
         13    1    3    3    0    0  0.20276202022E+02  0.36962104964E+01  0.33312720707E+02  0.39173139591E+02  0.10566000000E+00 0.  1.
         22    1    1    0    0    0  0.28275916432E+02 -0.76843698692E+01 -0.57701750295E+01  0.29864224588E+02  0.00000000000E+00 0. -1.
</event>
<event>
 5    1  0.6835449E-004  0.9118800E+02  0.7818608E-02  0.1130116E+00
         25   -1    0    0    0    0  0.00000000000E+00  0.00000000000E+00  0.99999998245E-14  0.12500000000E+03  0.12500000000E+03 0.  0.
        -13    1    3    3    0    0 -0.33765597502E+02 -0.13542967913E+02 -0.70596882505E+01  0.37059113816E+02  0.10566000000E+00 0.  1.
         23    2    1    0    0    0  0.14728260353E+01  0.15796580369E+02 -0.32019186538E+02  0.89265850025E+02  0.81801360051E+02 0.  0.
         13    1    3    3    0    0  0.35238423538E+02  0.29339548282E+02 -0.24959498287E+02  0.52206736209E+02  0.10566000000E+00 0. -1.
         22    1    1    0    0    0 -0.14728260353E+01 -0.15796580369E+02  0.32019186538E+02  0.35734149975E+02  0.00000000000E+00 0. -1.
</event>
<event>
 5    1  0.6835449E-004  0.9118800E+02  0.7818608E-02  0.1130116E+00
         25   -1    0    0    0    0  0.00000000000E+00  0.00000000000E+00  0.99999998245E-14  0.12500000000E+03  0.12500000000E+03 0.  0.
        -13    1    3    3    0    0  0.99936717364E+01 -0.23120172116E+02  0.36226465793E+02  0.44122373252E+02  0.10566000000E+00 0.  1.
         23    2    1    0    0    0 -0.19996271575E+02  0.10674676336E+02 -0.46686532241E+00  0.10232804475E+03  0.99784824431E+02 0.  0.
         13    1    3    3    0    0 -0.29989943311E+02  0.33794848453E+02 -0.36693331116E+02  0.58205671495E+02  0.10566000000E+00 0. -1.
         22    1    1    0    0    0  0.19996271575E+02 -0.10674676336E+02  0.46686532241E+00  0.22671955253E+02  0.00000000000E+00 0. -1.
</event>
<event>
 5    1  0.6835449E-004  0.9118800E+02  0.7818608E-02  0.1130116E+00
         25   -1    0    0    0    0  0.00000000000E+00  0.00000000000E+00  0.99999998245E-14  0.12500000000E+03  0.12500000000E+03 0.  0.
        -13    1    3    3    0    0 -0.60471678891E+01 -0.46027780468E+02 -0.17216102970E+02  0.49512929421E+02  0.10566000000E+00 0. -1.
         23    2    1    0    0    0 -0.25950678751E+02 -0.34029948895E+01 -0.30064687012E+01  0.98655039269E+02  0.95072392509E+02 0.  0.
         13    1    3    3    0    0 -0.19903510862E+02  0.42624785579E+02  0.14209634269E+02  0.49142109848E+02  0.10566000000E+00 0.  1.
         22    1    1    0    0    0  0.25950678751E+02  0.34029948895E+01  0.30064687012E+01  0.26344960731E+02  0.00000000000E+00 0.  1.
</event>
<event>
 5    1  0.6835449E-004  0.9118800E+02  0.7818608E-02  0.1130116E+00
         25   -1    0    0    0    0  0.00000000000E+00  0.00000000000E+00  0.99999998245E-14  0.12500000000E+03  0.12500000000E+03 0.  0.
        -13    1    3    3    0    0 -0.31299290673E+02  0.27506616347E+02 -0.12545094203E+02  0.43516090037E+02  0.10566000000E+00 0.  1.
         23    2    1    0    0    0  0.13697384492E+02  0.21565132538E+02  0.13767432906E+02  0.95979050806E+02  0.91486407195E+02 0.  0.
         13    1    3    3    0    0  0.44996675165E+02 -0.59414838091E+01  0.26312527109E+02  0.52462960769E+02  0.10566000000E+00 0. -1.
         22    1    1    0    0    0 -0.13697384492E+02 -0.21565132538E+02 -0.13767432906E+02  0.29020949194E+02  0.00000000000E+00 0.  1.
</event>
<event>
 5    1  0.6835449E-004  0.9118800E+02  0.7818608E-02  0.1130116E+00
         25   -1    0    0    0    0  0.00000000000E+00  0.00000000000E+00  0.99999998245E-14  0.12500000000E+03  0.12500000000E+03 0.  0.
        -13    1    3    3    0    0 -0.32757621903E+01 -0.54611274491E+02 -0.97834536973E+01  0.55577414925E+02  0.10566000000E+00 0.  1.
         23    2    1    0    0    0 -0.11034504267E+02 -0.24280652710E+02  0.13985244122E+02  0.94885262186E+02  0.89979528486E+02 0.  0.
         13    1    3    3    0    0 -0.77587420766E+01  0.30330621781E+02  0.23768697819E+02  0.39307847261E+02  0.10566000000E+00 0. -1.
         22    1    1    0    0    0  0.11034504267E+02  0.24280652710E+02 -0.13985244122E+02  0.30114737814E+02  0.00000000000E+00 0.  1.
</event>
<event>
 5    1  0.6835449E-004  0.9118800E+02  0.7818608E-02  0.1130116E+00
         25   -1    0    0    0    0  0.00000000000E+00  0.00000000000E+00  0.99999998245E-14  0.12500000000E+03  0.12500000000E+03 0.  0.
        -13    1    3    3    0    0 -0.39746127187E+02 -0.15928400647E+02 -0.11077063587E+02  0.44228735855E+02  0.10566000000E+00 0.  1.
         23    2    1    0    0    0 -0.33346201783E+01 -0.17445477112E+02  0.24221465337E+02  0.94964292143E+02  0.90089250390E+02 0.  0.
         13    1    3    3    0    0  0.36411507009E+02 -0.15170764647E+01  0.35298528924E+02  0.50735556288E+02  0.10566000000E+00 0. -1.
         22    1    1    0    0    0  0.33346201783E+01  0.17445477112E+02 -0.24221465337E+02  0.30035707857E+02  0.00000000000E+00 0.  1.
</event>
<event>
 5    1  0.6835449E-004  0.9118800E+02  0.7818608E-02  0.1130116E+00
         25   -1    0    0    0    0  0.00000000000E+00  0.00000000000E+00  0.99999998245E-14  0.12500000000E+03  0.12500000000E+03 0.  0.
        -13    1    3    3    0    0 -0.21396811492E+02  0.21407495947E+02 -0.33005565725E+02  0.44782618923E+02  0.10566000000E+00 0.  1.
         23    2    1    0    0    0 -0.13660551272E+02  0.20517827634E+02  0.16784880973E+02  0.95178461791E+02  0.90385925053E+02 0.  0.
         13    1    3    3    0    0  0.77362602201E+01 -0.88966831269E+00  0.49790446698E+02  0.50395842868E+02  0.10566000000E+00 0. -1.
         22    1    1    0    0    0  0.13660551272E+02 -0.20517827634E+02 -0.16784880973E+02  0.29821538209E+02  0.00000000000E+00 0. -1.
</event>
<event>
 5    1  0.6835449E-004  0.9118800E+02  0.7818608E-02  0.1130116E+00
         25   -1    0    0    0    0  0.00000000000E+00  0.00000000000E+00  0.99999998245E-14  0.12500000000E+03  0.12500000000E+03 0.  0.
        -13    1    3    3    0    0 -0.21181599564E+02 -0.10036361989E+02  0.32911419819E+02  0.40404968019E+02  0.10566000000E+00 0. -1.
         23    2    1    0    0    0  0.21186590837E+02 -0.20713035525E+02 -0.43235962367E+00  0.95367443466E+02  0.90646902133E+02 0.  0.
         13    1    3    3    0    0  0.42368190401E+02 -0.10676673536E+02 -0.33343779443E+02  0.54962475446E+02  0.10566000000E+00 0.  1.
         22    1    1    0    0    0 -0.21186590837E+02  0.20713035525E+02  0.43235962367E+00  0.29632556534E+02  0.00000000000E+00 0.  1.
</event>
<event>
 5    1  0.6835449E-004  0.9118800E+02  0.7818608E-02  0.1130116E+00
         25   -1    0    0    0    0  0.00000000000E+00  0.00000000000E+00  0.99999998245E-14  0.12500000000E+03  0.12500000000E+03 0.  0.
        -13    1    3    3    0    0  0.74681378109E+01  0.40351847376E+02  0.28485188475E+02  0.49954597341E+02  0.10566000000E+00 0. -1.
         23    2    1    0    0    0 -0.23765773942E+02  0.14070202046E+02  0.53731134898E+01  0.96863672143E+02  0.92687205351E+02 0.  0.
         13    1    3    3    0    0 -0.31233911753E+02 -0.26281645330E+02 -0.23112074985E+02  0.46909074802E+02  0.10566000000E+00 0.  1.
         22    1    1    0    0    0  0.23765773942E+02 -0.14070202046E+02 -0.53731134898E+01  0.28136327857E+02  0.00000000000E+00 0. -1.
</event>
<event>
 5    1  0.6835449E-004  0.9118800E+02  0.7818608E-02  0.1130116E+00
         25   -1    0    0    0    0  0.00000000000E+00  0.00000000000E+00  0.99999998245E-14  0.12500000000E+03  0.12500000000E+03 0.  0.
        -13    1    3    3    0    0 -0.10179375157E+02 -0.76520061823E+00 -0.39061726391E+02  0.40373689988E+02  0.10566000000E+00 0. -1.
         23    2    1    0    0    0 -0.85573765979E+01  0.22283796038E+02  0.13348109721E+02  0.97650991001E+02  0.93742987740E+02 0.  0.
         13    1    3    3    0    0  0.16219985589E+01  0.23048996656E+02  0.52409836111E+02  0.57277301014E+02  0.10566000000E+00 0.  1.
         22    1    1    0    0    0  0.85573765979E+01 -0.22283796038E+02 -0.13348109721E+02  0.27349008999E+02  0.00000000000E+00 0.  1.
</event>
<event>
 5    1  0.6835449E-004  0.9118800E+02  0.7818608E-02  0.1130116E+00
         25   -1    0    0    0    0  0.00000000000E+00  0.00000000000E+00  0.99999998245E-14  0.12500000000E+03  0.12500000000E+03 0.  0.
        -13    1    3    3    0    0  0.20265134605E+02 -0.51900271483E+02 -0.99336679537E+01  0.56595077380E+02  0.10566000000E+00 0.  1.
         23    2    1    0    0    0  0.17564192370E+02 -0.54149773281E+01 -0.11734233906E+02  0.10319369177E+03  0.10086338753E+03 0.  0.
         13    1    3    3    0    0 -0.27009422354E+01  0.46485294155E+02 -0.18005659524E+01  0.46598614394E+02  0.10566000000E+00 0. -1.
         22    1    1    0    0    0 -0.17564192370E+02  0.54149773281E+01  0.11734233906E+02  0.21806308226E+02  0.00000000000E+00 0.  1.
</event>
<event>
 5    1  0.6835449E-004  0.9118800E+02  0.7818608E-02  0.1130116E+00
         25   -1    0    0    0    0  0.00000000000E+00  0.00000000000E+00  0.99999998245E-14  0.12500000000E+03  0.12500000000E+03 0.  0.
        -13    1    3    3    0    0 -0.39422178512E+02  0.69487308485E+01 -0.46037926859E+02  0.61007334744E+02  0.10566000000E+00 0.  1.
         23    2    1    0    0    0 -0.18551737438E+02  0.11952820786E+02 -0.16864071760E+02  0.97225302828E+02  0.93173632037E+02 0.  0.
         13    1    3    3    0    0  0.20870441074E+02  0.50040899372E+01  0.29173855099E+02  0.36217968084E+02  0.10566000000E+00 0. -1.
         22    1    1    0    0    0  0.18551737438E+02 -0.11952820786E+02  0.16864071760E+02  0.27774697172E+02  0.00000000000E+00 0.  1.
</event>
<event>
 5    1  0.6835449E-004  0.9118800E+02  0.7818608E-02  0.1130116E+00
         25   -1    0    0    0    0  0.00000000000E+00  0.00000000000E+00  0.99999998245E-14  0.12500000000E+03  0.12500000000E+03 0.  0.
        -13    1    3    3    0    0  0.89567662006E+01 -0.37234405020E+02 -0.30972079213E+02  0.49253481428E+02  0.10566000000E+00 0.  1.
         23    2    1    0    0    0  0.46187984951E+01 -0.46760791817E+02 -0.44084715377E+01  0.77805301439E+02  0.61857298356E+02 0.  0.
         13    1    3    3    0    0 -0.43379677054E+01 -0.95263867969E+01  0.26563607675E+02  0.28551820011E+02  0.10566000000E+00 0. -1.
         22    1    1    0    0    0 -0.46187984951E+01  0.46760791817E+02  0.44084715377E+01  0.47194698561E+02  0.00000000000E+00 0.  1.
</event>
<event>
 5    1  0.6835449E-004  0.9118800E+02  0.7818608E-02  0.1130116E+00
         25   -1    0    0    0    0  0.00000000000E+00  0.00000000000E+00  0.99999998245E-14  0.12500000000E+03  0.12500000000E+03 0.  0.
        -13    1    3    3    0    0  0.10292548970E+02 -0.38918763974E+02  0.17714276419E+02  0.43981967972E+02  0.10566000000E+00 0. -1.
         23    2    1    0    0    0 -0.27521095121E+02 -0.73802479073E+01 -0.55326136173E+00  0.96501143287E+02  0.92196994645E+02 0.  0.
         13    1    3    3    0    0 -0.37813644091E+02  0.31538516067E+02 -0.18267537781E+02  0.52519175315E+02  0.10566000000E+00 0.  1.
         22    1    1    0    0    0  0.27521095121E+02  0.73802479073E+01  0.55326136173E+00  0.28498856713E+02  0.00000000000E+00 0.  1.
</event>
<event>
 5    1  0.6835449E-004  0.9118800E+02  0.7818608E-02  0.1130116E+00
         25   -1    0    0    0    0  0.00000000000E+00  0.00000000000E+00  0.99999998245E-14  0.12500000000E+03  0.12500000000E+03 0.  0.
        -13    1    3    3    0    0  0.23578917447E+02  0.49473551993E+02 -0.15540832909E+02  0.56966010447E+02  0.10566000000E+00 0.  1.
         23    2    1    0    0    0 -0.61628220029E+01  0.26590039085E+02  0.31138537899E+00  0.97703342431E+02  0.93812768895E+02 0.  0.
         13    1    3    3    0    0 -0.29741739450E+02 -0.22883512907E+02  0.15852218288E+02  0.40737331984E+02  0.10566000000E+00 0. -1.
         22    1    1    0    0    0  0.61628220029E+01 -0.26590039085E+02 -0.31138537899E+00  0.27296657569E+02  0.00000000000E+00 0.  1.
</event>
<event>
 5    1  0.6835449E-004  0.9118800E+02  0.7818608E-02  0.1130116E+00
         25   -1    0    0    0    0  0.00000000000E+00  0.00000000000E+00  0.99999998245E-14  0.12500000000E+03  0.12500000000E+03 0.  0.
        -13    1    3    3    0    0 -0.59152364898E+02  0.70104200057E+01 -0.90588078668E+00  0.59573316558E+02  0.10566000000E+00 0.  1.
         23    2    1    0    0    0 -0.27101201425E+02  0.33702015434E+01 -0.13908016292E+02  0.94352548323E+02  0.89236411183E+02 0.  0.
         13    1    3    3    0    0  0.32051163473E+02 -0.36402184623E+01 -0.13002135505E+02  0.34779231765E+02  0.10566000000E+00 0. -1.
         22    1    1    0    0    0  0.27101201425E+02 -0.33702015434E+01  0.13908016292E+02  0.30647451677E+02  0.00000000000E+00 0.  1.
</event>
<event>
 5    1  0.6835449E-004  0.9118800E+02  0.7818608E-02  0.1130116E+00
         25   -1    0    0    0    0  0.00000000000E+00  0.00000000000E+00  0.99999998245E-14  0.12500000000E+03  0.12500000000E+03 0.  0.
        -13    1    3    3    0    0  0.25906065853E+02  0.12986734927E+02 -0.50333148625E+02  0.58079398642E+02  0.10566000000E+00 0.  1.
         23    2    1    0    0    0  0.94616785975E+01 -0.10156065028E+02 -0.26239019209E+02  0.95315742425E+02  0.90575579524E+02 0.  0.
         13    1    3    3    0    0 -0.16444387255E+02 -0.23142799955E+02  0.24094129416E+02  0.37236343783E+02  0.10566000000E+00 0. -1.
         22    1    1    0    0    0 -0.94616785975E+01  0.10156065028E+02  0.26239019209E+02  0.29684257575E+02  0.00000000000E+00 0.  1.
</event>
<event>
 5    1  0.6835449E-004  0.9118800E+02  0.7818608E-02  0.1130116E+00
         25   -1    0    0    0    0  0.00000000000E+00  0.00000000000E+00  0.99999998245E-14  0.12500000000E+03  0.12500000000E+03 0.  0.
        -13    1    3    3    0    0  0.63238219577E+01 -0.30005093772E+02 -0.20257832097E+02  0.36751697943E+02  0.10566000000E+00 0.  1.
         23    2    1    0    0    0 -0.27630943615E+01  0.28878845767E+00  0.29314545836E+02  0.95554105773E+02  0.90903940747E+02 0.  0.
         13    1    3    3    0    0 -0.90869163193E+01  0.30293882229E+02  0.49572377933E+02  0.58802407830E+02  0.10566000000E+00 0. -1.
         22    1    1    0    0    0  0.27630943615E+01 -0.28878845767E+00 -0.29314545836E+02  0.29445894227E+02  0.00000000000E+00 0. -1.
</event>
<event>
 5    1  0.6835449E-004  0.9118800E+02  0.7818608E-02  0.1130116E+00
         25   -1    0    0    0    0  0.00000000000E+00  0.00000000000E+00  0.99999998245E-14  0.12500000000E+03  0.12500000000E+03 0.  0.
        -13    1    3    3    0    0  0.39529302757E+01 -0.51372719230E+02  0.22799595700E+01  0.51575103670E+02  0.10566000000E+00 0. -1.
         23    2    1    0    0    0 -0.77077091837E+01 -0.21163207216E+02  0.25165077112E+02  0.91227655891E+02  0.84746173794E+02 0.  0.
         13    1    3    3    0    0 -0.11660639459E+02  0.30209512014E+02  0.22885117542E+02  0.39652552221E+02  0.10566000000E+00 0.  1.
         22    1    1    0    0    0  0.77077091837E+01  0.21163207216E+02 -0.25165077112E+02  0.33772344109E+02  0.00000000000E+00 0. -1.
</event>
<event>
 5    1  0.6835449E-004  0.9118800E+02  0.7818608E-02  0.1130116E+00
         25   -1    0    0    0    0  0.00000000000E+00  0.00000000000E+00  0.99999998245E-14  0.12500000000E+03  0.12500000000E+03 0.  0.
        -13    1    3    3    0    0  0.28615349598E+02  0.40827573475E+01 -0.47875785694E+02  0.55925031605E+02  0.10566000000E+00 0.  1.
         23    2    1    0    0    0  0.56578128538E+01  0.20683637267E+02 -0.19718092348E+02  0.95868799154E+02  0.91335643582E+02 0.  0.
         13    1    3    3    0    0 -0.22957536744E+02  0.16600879919E+02  0.28157693346E+02  0.39943767549E+02  0.10566000000E+00 0. -1.
         22    1    1    0    0    0 -0.56578128538E+01 -0.20683637267E+02  0.19718092348E+02  0.29131200846E+02  0.00000000000E+00 0.  1.
</event>
<event>
 5    1  0.6835449E-004  0.9118800E+02  0.7818608E-02  0.1130116E+00
         25   -1    0    0    0    0  0.00000000000E+00  0.00000000000E+00  0.99999998245E-14  0.12500000000E+03  0.12500000000E+03 0.  0.
        -13    1    3    3    0    0 -0.26378232238E+02  0.21974629126E+01  0.24516916784E+02  0.36079500438E+02  0.10566000000E+00 0. -1.
         23    2    1    0    0    0  0.45777688686E+01  0.87939700904E+01 -0.26829447290E+02  0.96397393132E+02  0.92056223489E+02 0.  0.
         13    1    3    3    0    0  0.30956001107E+02  0.65965071778E+01 -0.51346364073E+02  0.60317892694E+02  0.10566000000E+00 0.  1.
         22    1    1    0    0    0 -0.45777688686E+01 -0.87939700904E+01  0.26829447290E+02  0.28602606868E+02  0.00000000000E+00 0.  1.
</event>
<event>
 5    1  0.6835449E-004  0.9118800E+02  0.7818608E-02  0.1130116E+00
         25   -1    0    0    0    0  0.00000000000E+00  0.00000000000E+00  0.99999998245E-14  0.12500000000E+03  0.12500000000E+03 0.  0.
        -13    1    3    3    0    0 -0.16885955754E+02  0.19989411834E+02  0.11703210144E+02  0.28665107341E+02  0.10566000000E+00 0. -1.
         23    2    1    0    0    0 -0.31353227420E+02 -0.29388225304E+02 -0.22212562004E+01  0.81969468568E+02  0.69766518776E+02 0.  0.
         13    1    3    3    0    0 -0.14467271666E+02 -0.49377637138E+02 -0.13924466344E+02  0.53304361227E+02  0.10566000000E+00 0.  1.
         22    1    1    0    0    0  0.31353227420E+02  0.29388225304E+02  0.22212562004E+01  0.43030531432E+02  0.00000000000E+00 0. -1.
</event>
<event>
 5    1  0.6835449E-004  0.9118800E+02  0.7818608E-02  0.1130116E+00
         25   -1    0    0    0    0  0.00000000000E+00  0.00000000000E+00  0.99999998245E-14  0.12500000000E+03  0.12500000000E+03 0.  0.
        -13    1    3    3    0    0 -0.31581220039E+01 -0.24592588186E+02 -0.29695168901E+02  0.38685699533E+02  0.10566000000E+00 0.  1.
         23    2    1    0    0    0  0.13659821220E+02  0.24625021615E+02 -0.44851730935E+01  0.96485105944E+02  0.92175248771E+02 0.  0.
         13    1    3    3    0    0  0.16817943224E+02  0.49217609801E+02  0.25209995808E+02  0.57799406411E+02  0.10566000000E+00 0. -1.
         22    1    1    0    0    0 -0.13659821220E+02 -0.24625021615E+02  0.44851730935E+01  0.28514894056E+02  0.00000000000E+00 0. -1.
</event>
<event>
 5    1  0.6835449E-004  0.9118800E+02  0.7818608E-02  0.1130116E+00
         25   -1    0    0    0    0  0.00000000000E+00  0.00000000000E+00  0.99999998245E-14  0.12500000000E+03  0.12500000000E+03 0.  0.
        -13    1    3    3    0    0  0.34851814709E+01  0.37111762593E+02  0.44819055922E+02  0.58293982111E+02  0.10566000000E+00 0.  1.
         23    2    1    0    0    0  0.14774179334E+02  0.85945594888E+01  0.24657228723E+02  0.94997970800E+02  0.90135967849E+02 0.  0.
         13    1    3    3    0    0  0.11288997863E+02 -0.28517203105E+02 -0.20161827198E+02  0.36703988689E+02  0.10566000000E+00 0. -1.
         22    1    1    0    0    0 -0.14774179334E+02 -0.85945594888E+01 -0.24657228723E+02  0.30002029200E+02  0.00000000000E+00 0.  1.
</event>
<event>
 5    1  0.6835449E-004  0.9118800E+02  0.7818608E-02  0.1130116E+00
         25   -1    0    0    0    0  0.00000000000E+00  0.00000000000E+00  0.99999998245E-14  0.12500000000E+03  0.12500000000E+03 0.  0.
        -13    1    3    3    0    0  0.37779721937E+02  0.35908646293E+02  0.31646432113E+02  0.60977422852E+02  0.10566000000E+00 0.  1.
         23    2    1    0    0    0  0.19098426668E+02  0.89372272113E+01  0.20400023187E+02  0.95660864405E+02  0.91050623838E+02 0.  0.
         13    1    3    3    0    0 -0.18681295269E+02 -0.26971419082E+02 -0.11246408926E+02  0.34683441553E+02  0.10566000000E+00 0. -1.
         22    1    1    0    0    0 -0.19098426668E+02 -0.89372272113E+01 -0.20400023187E+02  0.29339135595E+02  0.00000000000E+00 0.  1.
</event>
<event>
 5    1  0.6835449E-004  0.9118800E+02  0.7818608E-02  0.1130116E+00
         25   -1    0    0    0    0  0.00000000000E+00  0.00000000000E+00  0.99999998245E-14  0.12500000000E+03  0.12500000000E+03 0.  0.
        -13    1    3    3    0    0  0.67335921872E+01  0.22501473662E+02 -0.40790109108E+02  0.47069116688E+02  0.10566000000E+00 0.  1.
         23    2    1    0    0    0  0.29950653412E+02 -0.24228920283E+00 -0.64289532667E+01  0.94366166025E+02  0.89255484461E+02 0.  0.
         13    1    3    3    0    0  0.23217061225E+02 -0.22743762865E+02  0.34361155841E+02  0.47297049337E+02  0.10566000000E+00 0. -1.
         22    1    1    0    0    0 -0.29950653412E+02  0.24228920283E+00  0.64289532667E+01  0.30633833975E+02  0.00000000000E+00 0.  1.
</event>
<event>
 5    1  0.6835449E-004  0.9118800E+02  0.7818608E-02  0.1130116E+00
         25   -1    0    0    0    0  0.00000000000E+00  0.00000000000E+00  0.99999998245E-14  0.12500000000E+03  0.12500000000E+03 0.  0.
        -13    1    3    3    0    0  0.11554808029E+02 -0.31573781824E+02 -0.39275757639E+02  0.51701195241E+02  0.10566000000E+00 0. -1.
         23    2    1    0    0    0 -0.14739195791E+02  0.14366039789E+01 -0.24416621891E+02  0.96443404472E+02  0.92118679529E+02 0.  0.
         13    1    3    3    0    0 -0.26294003819E+02  0.33010385803E+02  0.14859135747E+02  0.44742209231E+02  0.10566000000E+00 0.  1.
         22    1    1    0    0    0  0.14739195791E+02 -0.14366039789E+01  0.24416621891E+02  0.28556595528E+02  0.00000000000E+00 0.  1.
</event>
<event>
 5    1  0.6835449E-004  0.9118800E+02  0.7818608E-02  0.1130116E+00
         25   -1    0    0    0    0  0.00000000000E+00  0.00000000000E+00  0.99999998245E-14  0.12500000000E+03  0.12500000000E+03 0.  0.
        -13    1    3    3    0    0 -0.54804393752E+02 -0.23774343062E+02  0.69902740353E+00  0.59743123168E+02  0.10566000000E+00 0.  1.
         23    2    1    0    0    0 -0.21760910938E+02 -0.13994408778E+02 -0.12014470185E+02  0.96474078179E+02  0.92160292668E+02 0.  0.
         13    1    3    3    0    0  0.33043482813E+02  0.97799342835E+01 -0.12713497589E+02  0.36730955011E+02  0.10566000000E+00 0. -1.
         22    1    1    0    0    0  0.21760910938E+02  0.13994408778E+02  0.12014470185E+02  0.28525921821E+02  0.00000000000E+00 0.  1.
</event>
<event>
 5    1  0.6835449E-004  0.9118800E+02  0.7818608E-02  0.1130116E+00
         25   -1    0    0    0    0  0.00000000000E+00  0.00000000000E+00  0.99999998245E-14  0.12500000000E+03  0.12500000000E+03 0.  0.
        -13    1    3    3    0    0 -0.12350744415E+02  0.39030274440E+02 -0.31632388679E+02  0.51735117551E+02  0.10566000000E+00 0. -1.
         23    2    1    0    0    0  0.20335071689E+02  0.15140582847E+02 -0.15282085984E+02  0.95397727426E+02  0.90688653405E+02 0.  0.
         13    1    3    3    0    0  0.32685816104E+02 -0.23889691594E+02  0.16350302694E+02  0.43662609874E+02  0.10566000000E+00 0.  1.
         22    1    1    0    0    0 -0.20335071689E+02 -0.15140582847E+02  0.15282085984E+02  0.29602272574E+02  0.00000000000E+00 0. -1.
</event>
<event>
 5    1  0.6835449E-004  0.9118800E+02  0.7818608E-02  0.1130116E+00
         25   -1    0    0    0    0  0.00000000000E+00  0.00000000000E+00  0.99999998245E-14  0.12500000000E+03  0.12500000000E+03 0.  0.
        -13    1    3    3    0    0 -0.35460665128E+02  0.13086503347E+02 -0.26880903852E+02  0.46382210998E+02  0.10566000000E+00 0.  1.
         23    2    1    0    0    0 -0.21087524935E+02  0.11516029371E+02  0.18924192923E+02  0.94415237158E+02  0.89324180877E+02 0.  0.
         13    1    3    3    0    0  0.14373140193E+02 -0.15704739764E+01  0.45805096774E+02  0.48033026159E+02  0.10566000000E+00 0. -1.
         22    1    1    0    0    0  0.21087524935E+02 -0.11516029371E+02 -0.18924192923E+02  0.30584762842E+02  0.00000000000E+00 0.  1.
</event>
<event>
 5    1  0.6835449E-004  0.9118800E+02  0.7818608E-02  0.1130116E+00
         25   -1    0    0    0    0  0.00000000000E+00  0.00000000000E+00  0.99999998245E-14  0.12500000000E+03  0.12500000000E+03 0.  0.
        -13    1    3    3    0    0  0.20323257573E+02 -0.19505639200E+02 -0.21100396238E+02  0.35195775945E+02  0.10566000000E+00 0.  1.
         23    2    1    0    0    0  0.71980265448E+00  0.32079785704E+01  0.30197639220E+02  0.94623913076E+02  0.89615725567E+02 0.  0.
         13    1    3    3    0    0 -0.19603454918E+02  0.22713617770E+02  0.51298035458E+02  0.59428137131E+02  0.10566000000E+00 0. -1.
         22    1    1    0    0    0 -0.71980265448E+00 -0.32079785704E+01 -0.30197639220E+02  0.30376086924E+02  0.00000000000E+00 0. -1.
</event>
<event>
 5    1  0.6835449E-004  0.9118800E+02  0.7818608E-02  0.1130116E+00
         25   -1    0    0    0    0  0.00000000000E+00  0.00000000000E+00  0.99999998245E-14  0.12500000000E+03  0.12500000000E+03 0.  0.
        -13    1    3    3    0    0 -0.25986313228E+00 -0.34575505494E+02  0.50602427453E+02  0.61287437025E+02  0.10566000000E+00 0. -1.
         23    2    1    0    0    0  0.17773349577E+01 -0.82781929143E+01  0.27074451337E+02  0.96632530731E+02  0.92374957011E+02 0.  0.
         13    1    3    3    0    0  0.20371980900E+01  0.26297312580E+02 -0.23527976115E+02  0.35345093706E+02  0.10566000000E+00 0.  1.
         22    1    1    0    0    0 -0.17773349577E+01  0.82781929143E+01 -0.27074451337E+02  0.28367469269E+02  0.00000000000E+00 0. -1.
</event>
<event>
 5    1  0.6835449E-004  0.9118800E+02  0.7818608E-02  0.1130116E+00
         25   -1    0    0    0    0  0.00000000000E+00  0.00000000000E+00  0.99999998245E-14  0.12500000000E+03  0.12500000000E+03 0.  0.
        -13    1    3    3    0    0  0.14759860747E+02  0.36955942779E+02  0.19051286213E+02  0.44119812629E+02  0.10566000000E+00 0. -1.
         23    2    1    0    0    0  0.54514712190E+01  0.38448847481E+01 -0.24496031024E+02  0.99611868657E+02  0.96322204938E+02 0.  0.
         13    1    3    3    0    0 -0.93083895284E+01 -0.33111058031E+02 -0.43547317237E+02  0.55492056028E+02  0.10566000000E+00 0.  1.
         22    1    1    0    0    0 -0.54514712190E+01 -0.38448847481E+01  0.24496031024E+02  0.25388131343E+02  0.00000000000E+00 0. -1.
</event>
<event>
 5    1  0.6835449E-004  0.9118800E+02  0.7818608E-02  0.1130116E+00
         25   -1    0    0    0    0  0.00000000000E+00  0.00000000000E+00  0.99999998245E-14  0.12500000000E+03  0.12500000000E+03 0.  0.
        -13    1    3    3    0    0 -0.27635535041E+02  0.26873738093E+02  0.96536961514E+00  0.38559871611E+02  0.10566000000E+00 0. -1.
         23    2    1    0    0    0  0.68780898670E+01 -0.83873476307E+01 -0.27440455552E+02  0.95493486797E+02  0.90820546680E+02 0.  0.
         13    1    3    3    0    0  0.34513624908E+02 -0.35261085723E+02 -0.28405825167E+02  0.56933615186E+02  0.10566000000E+00 0.  1.
         22    1    1    0    0    0 -0.68780898670E+01  0.83873476307E+01  0.27440455552E+02  0.29506513203E+02  0.00000000000E+00 0.  1.
</event>
<event>
 5    1  0.6835449E-004  0.9118800E+02  0.7818608E-02  0.1130116E+00
         25   -1    0    0    0    0  0.00000000000E+00  0.00000000000E+00  0.99999998245E-14  0.12500000000E+03  0.12500000000E+03 0.  0.
        -13    1    3    3    0    0  0.57290539948E+02 -0.12525031131E+02  0.46135880591E+01  0.58824983903E+02  0.10566000000E+00 0.  1.
         23    2    1    0    0    0  0.24693074988E+02 -0.20874691471E+02  0.12671420830E+01  0.92640977372E+02  0.86805785193E+02 0.  0.
         13    1    3    3    0    0 -0.32597464960E+02 -0.83496603394E+01 -0.33464459761E+01  0.33815993469E+02  0.10566000000E+00 0. -1.
         22    1    1    0    0    0 -0.24693074988E+02  0.20874691471E+02 -0.12671420830E+01  0.32359022628E+02  0.00000000000E+00 0.  1.
</event>
<event>
 5    1  0.6835449E-004  0.9118800E+02  0.7818608E-02  0.1130116E+00
         25   -1    0    0    0    0  0.00000000000E+00  0.00000000000E+00  0.99999998245E-14  0.12500000000E+03  0.12500000000E+03 0.  0.
        -13    1    3    3    0    0  0.34603707507E+02  0.97059036906E+01  0.41424915038E+02  0.54842099610E+02  0.10566000000E+00 0.  1.
         23    2    1    0    0    0  0.11350070608E+02  0.18570746748E+02  0.39622226975E+02  0.79793610982E+02  0.65752587368E+02 0.  0.
         13    1    3    3    0    0 -0.23253636899E+02  0.88648430572E+01 -0.18026880631E+01  0.24951511372E+02  0.10566000000E+00 0. -1.
         22    1    1    0    0    0 -0.11350070608E+02 -0.18570746748E+02 -0.39622226975E+02  0.45206389018E+02  0.00000000000E+00 0.  1.
</event>
<event>
 5    1  0.6835449E-004  0.9118800E+02  0.7818608E-02  0.1130116E+00
         25   -1    0    0    0    0  0.00000000000E+00  0.00000000000E+00  0.99999998245E-14  0.12500000000E+03  0.12500000000E+03 0.  0.
        -13    1    3    3    0    0 -0.21042733448E+02 -0.50363622181E+02 -0.27311760852E+02  0.61034699270E+02  0.10566000000E+00 0.  1.
         23    2    1    0    0    0 -0.20101426483E+01 -0.26220992389E+02 -0.73334844467E+01  0.97698697660E+02  0.93806579807E+02 0.  0.
         13    1    3    3    0    0  0.19032590800E+02  0.24142629792E+02  0.19978276405E+02  0.36663998390E+02  0.10566000000E+00 0. -1.
         22    1    1    0    0    0  0.20101426483E+01  0.26220992389E+02  0.73334844467E+01  0.27301302340E+02  0.00000000000E+00 0.  1.
</event>
<event>
 5    1  0.6835449E-004  0.9118800E+02  0.7818608E-02  0.1130116E+00
         25   -1    0    0    0    0  0.00000000000E+00  0.00000000000E+00  0.99999998245E-14  0.12500000000E+03  0.12500000000E+03 0.  0.
        -13    1    3    3    0    0 -0.10310057750E+02  0.26014373742E+01  0.31647912213E+02  0.33386618257E+02  0.10566000000E+00 0.  1.
         23    2    1    0    0    0  0.60332947404E+01 -0.10470723099E+02 -0.26871734179E+02  0.95536008664E+02  0.90879052405E+02 0.  0.
         13    1    3    3    0    0  0.16343352490E+02 -0.13072160473E+02 -0.58519646392E+02  0.62149390407E+02  0.10566000000E+00 0. -1.
         22    1    1    0    0    0 -0.60332947404E+01  0.10470723099E+02  0.26871734179E+02  0.29463991336E+02  0.00000000000E+00 0. -1.
</event>
<event>
 5    1  0.6835449E-004  0.9118800E+02  0.7818608E-02  0.1130116E+00
         25   -1    0    0    0    0  0.00000000000E+00  0.00000000000E+00  0.99999998245E-14  0.12500000000E+03  0.12500000000E+03 0.  0.
        -13    1    3    3    0    0 -0.26741437014E+02  0.21768183974E+02 -0.18546126518E+01  0.34531276247E+02  0.10566000000E+00 0. -1.
         23    2    1    0    0    0  0.28869880582E+02 -0.25458270182E+01  0.49233255882E+01  0.95602884922E+02  0.90970991149E+02 0.  0.
         13    1    3    3    0    0  0.55611317596E+02 -0.24314010993E+02  0.67779382400E+01  0.61071608675E+02  0.10566000000E+00 0.  1.
         22    1    1    0    0    0 -0.28869880582E+02  0.25458270182E+01 -0.49233255882E+01  0.29397115078E+02  0.00000000000E+00 0.  1.
</event>
<event>
 5    1  0.6835449E-004  0.9118800E+02  0.7818608E-02  0.1130116E+00
         25   -1    0    0    0    0  0.00000000000E+00  0.00000000000E+00  0.99999998245E-14  0.12500000000E+03  0.12500000000E+03 0.  0.
        -13    1    3    3    0    0 -0.35689935867E+02  0.24706493044E+02  0.54817387380E+01  0.43752062172E+02  0.10566000000E+00 0.  1.
         23    2    1    0    0    0  0.10901844428E+02  0.20579769320E+02 -0.17501459715E+02  0.95867917868E+02  0.91334437465E+02 0.  0.
         13    1    3    3    0    0  0.46591780295E+02 -0.41267237239E+01 -0.22983198453E+02  0.52115855696E+02  0.10566000000E+00 0. -1.
         22    1    1    0    0    0 -0.10901844428E+02 -0.20579769320E+02  0.17501459715E+02  0.29132082132E+02  0.00000000000E+00 0.  1.
</event>
<event>
 5    1  0.6835449E-004  0.9118800E+02  0.7818608E-02  0.1130116E+00
         25   -1    0    0    0    0  0.00000000000E+00  0.00000000000E+00  0.99999998245E-14  0.12500000000E+03  0.12500000000E+03 0.  0.
        -13    1    3    3    0    0  0.10739182325E+02  0.29892051020E+02  0.35337687850E+02  0.47514504079E+02  0.10566000000E+00 0.  1.
         23    2    1    0    0    0 -0.24796706325E+02  0.15460317847E+02  0.77258884528E+01  0.94774391240E+02  0.89825373977E+02 0.  0.
         13    1    3    3    0    0 -0.35535888650E+02 -0.14431733173E+02 -0.27611799397E+02  0.47259887162E+02  0.10566000000E+00 0. -1.
         22    1    1    0    0    0  0.24796706325E+02 -0.15460317847E+02 -0.77258884528E+01  0.30225608760E+02  0.00000000000E+00 0.  1.
</event>
<event>
 5    1  0.6835449E-004  0.9118800E+02  0.7818608E-02  0.1130116E+00
         25   -1    0    0    0    0  0.00000000000E+00  0.00000000000E+00  0.99999998245E-14  0.12500000000E+03  0.12500000000E+03 0.  0.
        -13    1    3    3    0    0 -0.35529724709E+02 -0.29097564062E+02 -0.27597660605E+02  0.53578648799E+02  0.10566000000E+00 0.  1.
         23    2    1    0    0    0 -0.22293168346E+02 -0.12516416996E+02  0.10639741715E+02  0.97307940613E+02  0.93284431463E+02 0.  0.
         13    1    3    3    0    0  0.13236556363E+02  0.16581147066E+02  0.38237402320E+02  0.43729291814E+02  0.10566000000E+00 0. -1.
         22    1    1    0    0    0  0.22293168346E+02  0.12516416996E+02 -0.10639741715E+02  0.27692059387E+02  0.00000000000E+00 0.  1.
</event>
<event>
 5    1  0.6835449E-004  0.9118800E+02  0.7818608E-02  0.1130116E+00
         25   -1    0    0    0    0  0.00000000000E+00  0.00000000000E+00  0.99999998245E-14  0.12500000000E+03  0.12500000000E+03 0.  0.
        -13    1    3    3    0    0  0.35784692564E+02 -0.36949205772E+02 -0.39698224044E+01  0.51590296404E+02  0.10566000000E+00 0. -1.
         23    2    1    0    0    0  0.50133259814E+01 -0.13717030802E+02 -0.25398751296E+02  0.95701758776E+02  0.91106748894E+02 0.  0.
         13    1    3    3    0    0 -0.30771366583E+02  0.23232174970E+02 -0.21428928891E+02  0.44111462373E+02  0.10566000000E+00 0.  1.
         22    1    1    0    0    0 -0.50133259814E+01  0.13717030802E+02  0.25398751296E+02  0.29298241224E+02  0.00000000000E+00 0. -1.
</event>
<event>
 5    1  0.6835449E-004  0.9118800E+02  0.7818608E-02  0.1130116E+00
         25   -1    0    0    0    0  0.00000000000E+00  0.00000000000E+00  0.99999998245E-14  0.12500000000E+03  0.12500000000E+03 0.  0.
        -13    1    3    3    0    0  0.18988339547E+01  0.17952761556E+02 -0.58059642484E+02  0.60801648558E+02  0.10566000000E+00 0.  1.
         23    2    1    0    0    0 -0.91164692097E+01  0.98008868146E+01 -0.23912151372E+02  0.97596380231E+02  0.93670139627E+02 0.  0.
         13    1    3    3    0    0 -0.11015303164E+02 -0.81518747417E+01  0.34147491112E+02  0.36794731673E+02  0.10566000000E+00 0. -1.
         22    1    1    0    0    0  0.91164692097E+01 -0.98008868146E+01  0.23912151372E+02  0.27403619769E+02  0.00000000000E+00 0.  1.
</event>
<event>
 5    1  0.6835449E-004  0.9118800E+02  0.7818608E-02  0.1130116E+00
         25   -1    0    0    0    0  0.00000000000E+00  0.00000000000E+00  0.99999998245E-14  0.12500000000E+03  0.12500000000E+03 0.  0.
        -13    1    3    3    0    0 -0.38144487729E+02 -0.37201815767E+01 -0.24242239510E+00  0.38326382920E+02  0.10566000000E+00 0.  1.
         23    2    1    0    0    0  0.13501183318E+02  0.23031379180E+02  0.81385802735E+01  0.97090093752E+02  0.92992061155E+02 0.  0.
         13    1    3    3    0    0  0.51645671048E+02  0.26751560757E+02  0.83810026686E+01  0.58763710831E+02  0.10566000000E+00 0. -1.
         22    1    1    0    0    0 -0.13501183318E+02 -0.23031379180E+02 -0.81385802735E+01  0.27909906248E+02  0.00000000000E+00 0. -1.
</event>
<event>
 5    1  0.6835449E-004  0.9118800E+02  0.7818608E-02  0.1130116E+00
         25   -1    0    0    0    0  0.00000000000E+00  0.00000000000E+00  0.99999998245E-14  0.12500000000E+03  0.12500000000E+03 0.  0.
        -13    1    3    3    0    0 -0.37777161297E+02 -0.15547712355E+02  0.19727281285E+02  0.45365428094E+02  0.10566000000E+00 0. -1.
         23    2    1    0    0    0  0.95874342658E+01 -0.24923578033E+02 -0.18097122330E+01  0.98234748346E+02  0.94518183893E+02 0.  0.
         13    1    3    3    0    0  0.47364595563E+02 -0.93758656774E+01 -0.21536993518E+02  0.52869320252E+02  0.10566000000E+00 0.  1.
         22    1    1    0    0    0 -0.95874342658E+01  0.24923578033E+02  0.18097122330E+01  0.26765251654E+02  0.00000000000E+00 0.  1.
</event>
<event>
 5    1  0.6835449E-004  0.9118800E+02  0.7818608E-02  0.1130116E+00
         25   -1    0    0    0    0  0.00000000000E+00  0.00000000000E+00  0.99999998245E-14  0.12500000000E+03  0.12500000000E+03 0.  0.
        -13    1    3    3    0    0  0.24415270434E+02  0.16310612074E+02 -0.93948155540E+01  0.30828805036E+02  0.10566000000E+00 0. -1.
         23    2    1    0    0    0 -0.23334397937E+02 -0.15958365003E+02  0.14513930809E+02  0.93222370633E+02  0.87638990514E+02 0.  0.
         13    1    3    3    0    0 -0.47749668372E+02 -0.32268977077E+02  0.23908746363E+02  0.62393565597E+02  0.10566000000E+00 0.  1.
         22    1    1    0    0    0  0.23334397937E+02  0.15958365003E+02 -0.14513930809E+02  0.31777629367E+02  0.00000000000E+00 0.  1.
</event>
<event>
 5    1  0.6835449E-004  0.9118800E+02  0.7818608E-02  0.1130116E+00
         25   -1    0    0    0    0  0.00000000000E+00  0.00000000000E+00  0.99999998245E-14  0.12500000000E+03  0.12500000000E+03 0.  0.
        -13    1    3    3    0    0  0.14916197489E+02 -0.27688369240E+02  0.32365433687E+02  0.45129493687E+02  0.10566000000E+00 0.  1.
         23    2    1    0    0    0 -0.21110290797E+02  0.63650557605E+01  0.17398279415E+02  0.96913376156E+02  0.92754213052E+02 0.  0.
         13    1    3    3    0    0 -0.36026488286E+02  0.34053425000E+02 -0.14967154272E+02  0.51783882469E+02  0.10566000000E+00 0. -1.
         22    1    1    0    0    0  0.21110290797E+02 -0.63650557605E+01 -0.17398279415E+02  0.28086623844E+02  0.00000000000E+00 0.  1.
</event>
<event>
 5    1  0.6835449E-004  0.9118800E+02  0.7818608E-02  0.1130116E+00
         25   -1    0    0    0    0  0.00000000000E+00  0.00000000000E+00  0.99999998245E-14  0.12500000000E+03  0.12500000000E+03 0.  0.
        -13    1    3    3    0    0  0.18281749948E+02 -0.11430995650E+02  0.43671865229E+02  0.48704548240E+02  0.10566000000E+00 0. -1.
         23    2    1    0    0    0 -0.19884591697E+02  0.44777568831E+01  0.20443497912E+02  0.96131610704E+02  0.91694616396E+02 0.  0.
         13    1    3    3    0    0 -0.38166341645E+02  0.15908752533E+02 -0.23228367316E+02  0.47427062464E+02  0.10566000000E+00 0.  1.
         22    1    1    0    0    0  0.19884591697E+02 -0.44777568831E+01 -0.20443497912E+02  0.28868389296E+02  0.00000000000E+00 0. -1.
</event>
<event>
 5    1  0.6835449E-004  0.9118800E+02  0.7818608E-02  0.1130116E+00
         25   -1    0    0    0    0  0.00000000000E+00  0.00000000000E+00  0.99999998245E-14  0.12500000000E+03  0.12500000000E+03 0.  0.
        -13    1    3    3    0    0  0.38431078180E+02 -0.98078137686E+01 -0.21441053554E+02  0.45087369878E+02  0.10566000000E+00 0.  1.
         23    2    1    0    0    0  0.14110903696E+02  0.25554780778E+02  0.48347964150E+01  0.95410480232E+02  0.90706229433E+02 0.  0.
         13    1    3    3    0    0 -0.24320174484E+02  0.35362594547E+02  0.26275849969E+02  0.50323110353E+02  0.10566000000E+00 0. -1.
         22    1    1    0    0    0 -0.14110903696E+02 -0.25554780778E+02 -0.48347964150E+01  0.29589519768E+02  0.00000000000E+00 0. -1.
</event>
<event>
 5    1  0.6835449E-004  0.9118800E+02  0.7818608E-02  0.1130116E+00
         25   -1    0    0    0    0  0.00000000000E+00  0.00000000000E+00  0.99999998245E-14  0.12500000000E+03  0.12500000000E+03 0.  0.
        -13    1    3    3    0    0 -0.22994498686E+02  0.30217883840E+02 -0.44972992221E+02  0.58859567335E+02  0.10566000000E+00 0.  1.
         23    2    1    0    0    0  0.37981110195E+01  0.17780260605E+02 -0.23036563990E+02  0.95652996832E+02  0.91039822100E+02 0.  0.
         13    1    3    3    0    0  0.26792609705E+02 -0.12437623235E+02  0.21936428231E+02  0.36793429496E+02  0.10566000000E+00 0. -1.
         22    1    1    0    0    0 -0.37981110195E+01 -0.17780260605E+02  0.23036563990E+02  0.29347003168E+02  0.00000000000E+00 0.  1.
</event>
<event>
 5    1  0.6835449E-004  0.9118800E+02  0.7818608E-02  0.1130116E+00
         25   -1    0    0    0    0  0.00000000000E+00  0.00000000000E+00  0.99999998245E-14  0.12500000000E+03  0.12500000000E+03 0.  0.
        -13    1    3    3    0    0  0.12257911078E+02  0.18932544937E+02  0.20254360081E+02  0.30314153593E+02  0.10566000000E+00 0.  1.
         23    2    1    0    0    0 -0.32077833218E+02  0.30697816280E+02 -0.34799669435E+00  0.80598824227E+02  0.67265935338E+02 0.  0.
         13    1    3    3    0    0 -0.44335744296E+02  0.11765271343E+02 -0.20602356775E+02  0.50284670634E+02  0.10566000000E+00 0. -1.
         22    1    1    0    0    0  0.32077833218E+02 -0.30697816280E+02  0.34799669435E+00  0.44401175773E+02  0.00000000000E+00 0.  1.
</event>
<event>
 5    1  0.6835449E-004  0.9118800E+02  0.7818608E-02  0.1130116E+00
         25   -1    0    0    0    0  0.00000000000E+00  0.00000000000E+00  0.99999998245E-14  0.12500000000E+03  0.12500000000E+03 0.  0.
        -13    1    3    3    0    0 -0.14802440646E+02  0.36251761851E+02 -0.14839937567E+01  0.39185659212E+02  0.10566000000E+00 0. -1.
         23    2    1    0    0    0  0.10418413335E+02 -0.35316033785E+01 -0.29170520611E+02  0.93824130620E+02  0.88493122078E+02 0.  0.
         13    1    3    3    0    0  0.25220853982E+02 -0.39783365229E+02 -0.27686526855E+02  0.54638471408E+02  0.10566000000E+00 0.  1.
         22    1    1    0    0    0 -0.10418413335E+02  0.35316033785E+01  0.29170520611E+02  0.31175869380E+02  0.00000000000E+00 0.  1.
</event>
<event>
 5    1  0.6835449E-004  0.9118800E+02  0.7818608E-02  0.1130116E+00
         25   -1    0    0    0    0  0.00000000000E+00  0.00000000000E+00  0.99999998245E-14  0.12500000000E+03  0.12500000000E+03 0.  0.
        -13    1    3    3    0    0 -0.11116268451E+02  0.30316644192E+02  0.70929210426E+01  0.33060414884E+02  0.10566000000E+00 0. -1.
         23    2    1    0    0    0  0.12958770724E+02 -0.26704035144E+02  0.41916325037E+01  0.95023258771E+02  0.90171030230E+02 0.  0.
         13    1    3    3    0    0  0.24075039175E+02 -0.57020679337E+02 -0.29012885389E+01  0.61962843887E+02  0.10566000000E+00 0.  1.
         22    1    1    0    0    0 -0.12958770724E+02  0.26704035144E+02 -0.41916325037E+01  0.29976741229E+02  0.00000000000E+00 0.  1.
</event>
<event>
 5    1  0.6835449E-004  0.9118800E+02  0.7818608E-02  0.1130116E+00
         25   -1    0    0    0    0  0.00000000000E+00  0.00000000000E+00  0.99999998245E-14  0.12500000000E+03  0.12500000000E+03 0.  0.
        -13    1    3    3    0    0  0.34452754983E+02  0.43485642370E+02 -0.16632277708E+02  0.57919230348E+02  0.10566000000E+00 0. -1.
         23    2    1    0    0    0  0.19911644346E+02  0.12297724654E+02  0.80321434729E+01  0.10025686073E+03  0.97155623523E+02 0.  0.
         13    1    3    3    0    0 -0.14541110636E+02 -0.31187917717E+02  0.24664421181E+02  0.42337630381E+02  0.10566000000E+00 0.  1.
         22    1    1    0    0    0 -0.19911644346E+02 -0.12297724654E+02 -0.80321434729E+01  0.24743139271E+02  0.00000000000E+00 0. -1.
</event>
<event>
 5    1  0.6835449E-004  0.9118800E+02  0.7818608E-02  0.1130116E+00
         25   -1    0    0    0    0  0.00000000000E+00  0.00000000000E+00  0.99999998245E-14  0.12500000000E+03  0.12500000000E+03 0.  0.
        -13    1    3    3    0    0 -0.23044976844E+02  0.60715921428E+01 -0.45339879943E+02  0.51221587892E+02  0.10566000000E+00 0.  1.
         23    2    1    0    0    0  0.63068772674E+00  0.26042054049E+02 -0.13429086577E+02  0.95692548517E+02  0.91094111387E+02 0.  0.
         13    1    3    3    0    0  0.23675664571E+02  0.19970461906E+02  0.31910793366E+02  0.44470960625E+02  0.10566000000E+00 0. -1.
         22    1    1    0    0    0 -0.63068772674E+00 -0.26042054049E+02  0.13429086577E+02  0.29307451483E+02  0.00000000000E+00 0.  1.
</event>
<event>
 5    1  0.6835449E-004  0.9118800E+02  0.7818608E-02  0.1130116E+00
         25   -1    0    0    0    0  0.00000000000E+00  0.00000000000E+00  0.99999998245E-14  0.12500000000E+03  0.12500000000E+03 0.  0.
        -13    1    3    3    0    0  0.26766388621E+02  0.78044914306E+01  0.14959146275E+02  0.31640746951E+02  0.10566000000E+00 0. -1.
         23    2    1    0    0    0 -0.13109058613E+02 -0.12332462912E+02 -0.26751057443E+02  0.92757851599E+02  0.86973920802E+02 0.  0.
         13    1    3    3    0    0 -0.39875447234E+02 -0.20136954343E+02 -0.41710203718E+02  0.61117104648E+02  0.10566000000E+00 0.  1.
         22    1    1    0    0    0  0.13109058613E+02  0.12332462912E+02  0.26751057443E+02  0.32242148401E+02  0.00000000000E+00 0.  1.
</event>
<event>
 5    1  0.6835449E-004  0.9118800E+02  0.7818608E-02  0.1130116E+00
         25   -1    0    0    0    0  0.00000000000E+00  0.00000000000E+00  0.99999998245E-14  0.12500000000E+03  0.12500000000E+03 0.  0.
        -13    1    3    3    0    0  0.37682072652E+02  0.16788606770E+02  0.11938511343E+01  0.41270235778E+02  0.10566000000E+00 0.  1.
         23    2    1    0    0    0  0.38505235129E+01 -0.27615044872E+02 -0.36152152748E+00  0.97115453519E+02  0.93026143529E+02 0.  0.
         13    1    3    3    0    0 -0.33831549139E+02 -0.44403651643E+02 -0.15553726618E+01  0.55845217741E+02  0.10566000000E+00 0. -1.
         22    1    1    0    0    0 -0.38505235129E+01  0.27615044872E+02  0.36152152748E+00  0.27884546481E+02  0.00000000000E+00 0. -1.
</event>
<event>
 5    1  0.6835449E-004  0.9118800E+02  0.7818608E-02  0.1130116E+00
         25   -1    0    0    0    0  0.00000000000E+00  0.00000000000E+00  0.99999998245E-14  0.12500000000E+03  0.12500000000E+03 0.  0.
        -13    1    3    3    0    0  0.26204737380E+02 -0.16041447058E+02 -0.12655705311E+02  0.33229419583E+02  0.10566000000E+00 0. -1.
         23    2    1    0    0    0 -0.28012841462E+02 -0.57641722426E+01  0.12391842003E+02  0.93831061670E+02  0.88502911915E+02 0.  0.
         13    1    3    3    0    0 -0.54217578842E+02  0.10277274815E+02  0.25047547314E+02  0.60601642087E+02  0.10566000000E+00 0.  1.
         22    1    1    0    0    0  0.28012841462E+02  0.57641722426E+01 -0.12391842003E+02  0.31168938330E+02  0.00000000000E+00 0.  1.
</event>
<event>
 5    1  0.6835449E-004  0.9118800E+02  0.7818608E-02  0.1130116E+00
         25   -1    0    0    0    0  0.00000000000E+00  0.00000000000E+00  0.99999998245E-14  0.12500000000E+03  0.12500000000E+03 0.  0.
        -13    1    3    3    0    0  0.25051545230E+02 -0.43281912853E+01 -0.23803140448E+02  0.34826912258E+02  0.10566000000E+00 0.  1.
         23    2    1    0    0    0 -0.30396241427E+02 -0.75587645131E-01 -0.14908303027E+02  0.91144502580E+02  0.84623434373E+02 0.  0.
         13    1    3    3    0    0 -0.55447786657E+02  0.42526036402E+01  0.88948374206E+01  0.56317590322E+02  0.10566000000E+00 0. -1.
         22    1    1    0    0    0  0.30396241427E+02  0.75587645131E-01  0.14908303027E+02  0.33855497420E+02  0.00000000000E+00 0. -1.
</event>
<event>
 5    1  0.6835449E-004  0.9118800E+02  0.7818608E-02  0.1130116E+00
         25   -1    0    0    0    0  0.00000000000E+00  0.00000000000E+00  0.99999998245E-14  0.12500000000E+03  0.12500000000E+03 0.  0.
        -13    1    3    3    0    0 -0.50954963369E+02 -0.98433543063E+01  0.33911290525E+02  0.61994247354E+02  0.10566000000E+00 0. -1.
         23    2    1    0    0    0 -0.23184909391E+02 -0.89610016391E+01  0.11894585212E+02  0.97444225084E+02  0.93466872586E+02 0.  0.
         13    1    3    3    0    0  0.27770053978E+02  0.88235266716E+00 -0.22016705313E+02  0.35449977729E+02  0.10566000000E+00 0.  1.
         22    1    1    0    0    0  0.23184909391E+02  0.89610016391E+01 -0.11894585212E+02  0.27555774916E+02  0.00000000000E+00 0. -1.
</event>
<event>
 5    1  0.6835449E-004  0.9118800E+02  0.7818608E-02  0.1130116E+00
         25   -1    0    0    0    0  0.00000000000E+00  0.00000000000E+00  0.99999998245E-14  0.12500000000E+03  0.12500000000E+03 0.  0.
        -13    1    3    3    0    0 -0.25007730377E+02 -0.37141817561E+02 -0.17482973798E+02  0.48068354738E+02  0.10566000000E+00 0.  1.
         23    2    1    0    0    0 -0.18729028468E+02  0.10506635924E+02 -0.19248586411E+02  0.96161241625E+02  0.91735000987E+02 0.  0.
         13    1    3    3    0    0  0.62787019093E+01  0.47648453485E+02 -0.17656126130E+01  0.48092886887E+02  0.10566000000E+00 0. -1.
         22    1    1    0    0    0  0.18729028468E+02 -0.10506635924E+02  0.19248586411E+02  0.28838758375E+02  0.00000000000E+00 0.  1.
</event>
<event>
 5    1  0.6835449E-004  0.9118800E+02  0.7818608E-02  0.1130116E+00
         25   -1    0    0    0    0  0.00000000000E+00  0.00000000000E+00  0.99999998245E-14  0.12500000000E+03  0.12500000000E+03 0.  0.
        -13    1    3    3    0    0  0.26736074719E+02  0.74712867742E+01 -0.38465971548E+02  0.47437115728E+02  0.10566000000E+00 0.  1.
         23    2    1    0    0    0 -0.50019131152E+01 -0.22759497463E+02 -0.16361198772E+02  0.96527158821E+02  0.92232259569E+02 0.  0.
         13    1    3    3    0    0 -0.31737987834E+02 -0.30230784237E+02  0.22104772776E+02  0.49090043093E+02  0.10566000000E+00 0. -1.
         22    1    1    0    0    0  0.50019131152E+01  0.22759497463E+02  0.16361198772E+02  0.28472841179E+02  0.00000000000E+00 0.  1.
</event>
<event>
 5    1  0.6835449E-004  0.9118800E+02  0.7818608E-02  0.1130116E+00
         25   -1    0    0    0    0  0.00000000000E+00  0.00000000000E+00  0.99999998245E-14  0.12500000000E+03  0.12500000000E+03 0.  0.
        -13    1    3    3    0    0  0.36870750391E+02 -0.98828618215E+01 -0.19340634539E+02  0.42792458455E+02  0.10566000000E+00 0.  1.
         23    2    1    0    0    0 -0.13020686387E+02 -0.24625016459E+02 -0.76341372834E+01  0.96117310346E+02  0.91675119779E+02 0.  0.
         13    1    3    3    0    0 -0.49891436778E+02 -0.14742154637E+02  0.11706497256E+02  0.53324851891E+02  0.10566000000E+00 0. -1.
         22    1    1    0    0    0  0.13020686387E+02  0.24625016459E+02  0.76341372834E+01  0.28882689654E+02  0.00000000000E+00 0. -1.
</event>
<event>
 5    1  0.6835449E-004  0.9118800E+02  0.7818608E-02  0.1130116E+00
         25   -1    0    0    0    0  0.00000000000E+00  0.00000000000E+00  0.99999998245E-14  0.12500000000E+03  0.12500000000E+03 0.  0.
        -13    1    3    3    0    0  0.35569625614E+02  0.56933474345E+01  0.44231114676E+01  0.36293078547E+02  0.10566000000E+00 0. -1.
         23    2    1    0    0    0 -0.11209565457E+02 -0.17432329097E+02  0.25122523102E+02  0.92431892556E+02  0.86504179893E+02 0.  0.
         13    1    3    3    0    0 -0.46779191071E+02 -0.23125676532E+02  0.20699411635E+02  0.56138814009E+02  0.10566000000E+00 0.  1.
         22    1    1    0    0    0  0.11209565457E+02  0.17432329097E+02 -0.25122523102E+02  0.32568107444E+02  0.00000000000E+00 0.  1.
</event>
<event>
 5    1  0.6835449E-004  0.9118800E+02  0.7818608E-02  0.1130116E+00
         25   -1    0    0    0    0  0.00000000000E+00  0.00000000000E+00  0.99999998245E-14  0.12500000000E+03  0.12500000000E+03 0.  0.
        -13    1    3    3    0    0  0.26953839074E+02 -0.17563714758E+02  0.71665463204E+01  0.32960037426E+02  0.10566000000E+00 0. -1.
         23    2    1    0    0    0 -0.27727682296E+02 -0.73035973937E+01 -0.14747689068E+02  0.92756221790E+02  0.86971578389E+02 0.  0.
         13    1    3    3    0    0 -0.54681521371E+02  0.10260117365E+02 -0.21914235389E+02  0.59796184363E+02  0.10566000000E+00 0.  1.
         22    1    1    0    0    0  0.27727682296E+02  0.73035973937E+01  0.14747689068E+02  0.32243778210E+02  0.00000000000E+00 0.  1.
</event>
<event>
 5    1  0.6835449E-004  0.9118800E+02  0.7818608E-02  0.1130116E+00
         25   -1    0    0    0    0  0.00000000000E+00  0.00000000000E+00  0.99999998245E-14  0.12500000000E+03  0.12500000000E+03 0.  0.
        -13    1    3    3    0    0  0.33440516170E+02  0.26989417002E+02 -0.75065892626E+01  0.43624039224E+02  0.10566000000E+00 0.  1.
         23    2    1    0    0    0  0.60739583331E+01 -0.35860671570E+01  0.26910223187E+02  0.97180708861E+02  0.93113786387E+02 0.  0.
         13    1    3    3    0    0 -0.27366557837E+02 -0.30575484159E+02  0.34416812450E+02  0.53556669637E+02  0.10566000000E+00 0. -1.
         22    1    1    0    0    0 -0.60739583331E+01  0.35860671570E+01 -0.26910223187E+02  0.27819291139E+02  0.00000000000E+00 0. -1.
</event>
<event>
 5    1  0.6835449E-004  0.9118800E+02  0.7818608E-02  0.1130116E+00
         25   -1    0    0    0    0  0.00000000000E+00  0.00000000000E+00  0.99999998245E-14  0.12500000000E+03  0.12500000000E+03 0.  0.
        -13    1    3    3    0    0  0.23116573806E+02 -0.31736443489E+02 -0.34487756147E+02  0.52258916158E+02  0.10566000000E+00 0. -1.
         23    2    1    0    0    0  0.18238429265E+02  0.90427883987E+01 -0.21635411789E+02  0.95293041769E+02  0.90544245771E+02 0.  0.
         13    1    3    3    0    0 -0.48781445416E+01  0.40779231888E+02  0.12852344358E+02  0.43034125611E+02  0.10566000000E+00 0.  1.
         22    1    1    0    0    0 -0.18238429265E+02 -0.90427883987E+01  0.21635411789E+02  0.29706958231E+02  0.00000000000E+00 0.  1.
</event>
<event>
 5    1  0.6835449E-004  0.9118800E+02  0.7818608E-02  0.1130116E+00
         25   -1    0    0    0    0  0.00000000000E+00  0.00000000000E+00  0.99999998245E-14  0.12500000000E+03  0.12500000000E+03 0.  0.
        -13    1    3    3    0    0 -0.33034158377E+02  0.23642995259E+02  0.24427636113E+02  0.47402187867E+02  0.10566000000E+00 0.  1.
         23    2    1    0    0    0 -0.17714194701E+02  0.13274415505E+01 -0.19261882637E+02  0.98797425361E+02  0.95259416019E+02 0.  0.
         13    1    3    3    0    0  0.15319963676E+02 -0.22315553709E+02 -0.43689518750E+02  0.51395237494E+02  0.10566000000E+00 0. -1.
         22    1    1    0    0    0  0.17714194701E+02 -0.13274415505E+01  0.19261882637E+02  0.26202574639E+02  0.00000000000E+00 0. -1.
</event>
<event>
 5    1  0.6835449E-004  0.9118800E+02  0.7818608E-02  0.1130116E+00
         25   -1    0    0    0    0  0.00000000000E+00  0.00000000000E+00  0.99999998245E-14  0.12500000000E+03  0.12500000000E+03 0.  0.
        -13    1    3    3    0    0  0.32687230425E+02  0.20825220828E+02 -0.18165517955E+02  0.42803528617E+02  0.10566000000E+00 0. -1.
         23    2    1    0    0    0  0.12485898814E+01 -0.22696884580E+02 -0.17187991141E+02  0.96502024882E+02  0.92198189898E+02 0.  0.
         13    1    3    3    0    0 -0.31438640544E+02 -0.43522105408E+02  0.97752681398E+00  0.53698496265E+02  0.10566000000E+00 0.  1.
         22    1    1    0    0    0 -0.12485898814E+01  0.22696884580E+02  0.17187991141E+02  0.28497975118E+02  0.00000000000E+00 0.  1.
</event>
<event>
 5    1  0.6835449E-004  0.9118800E+02  0.7818608E-02  0.1130116E+00
         25   -1    0    0    0    0  0.00000000000E+00  0.00000000000E+00  0.99999998245E-14  0.12500000000E+03  0.12500000000E+03 0.  0.
        -13    1    3    3    0    0 -0.37606985405E+02  0.37682652062E+02  0.28492364851E+02  0.60382891919E+02  0.10566000000E+00 0. -1.
         23    2    1    0    0    0 -0.96885351932E+01  0.25891907797E+02  0.14858917553E+02  0.93614556967E+02  0.88196594275E+02 0.  0.
         13    1    3    3    0    0  0.27918450212E+02 -0.11790744265E+02 -0.13633447298E+02  0.33231665048E+02  0.10566000000E+00 0.  1.
         22    1    1    0    0    0  0.96885351932E+01 -0.25891907797E+02 -0.14858917553E+02  0.31385443033E+02  0.00000000000E+00 0. -1.
</event>
<event>
 5    1  0.6835449E-004  0.9118800E+02  0.7818608E-02  0.1130116E+00
         25   -1    0    0    0    0  0.00000000000E+00  0.00000000000E+00  0.99999998245E-14  0.12500000000E+03  0.12500000000E+03 0.  0.
        -13    1    3    3    0    0 -0.29550628829E+02 -0.50897051845E+01  0.49551226766E+02  0.57917872899E+02  0.10566000000E+00 0. -1.
         23    2    1    0    0    0 -0.24825483601E+02 -0.87167753848E+01  0.11752554605E+02  0.96183175941E+02  0.91764884271E+02 0.  0.
         13    1    3    3    0    0  0.47251452287E+01 -0.36270702003E+01 -0.37798672161E+02  0.38265303042E+02  0.10566000000E+00 0.  1.
         22    1    1    0    0    0  0.24825483601E+02  0.87167753848E+01 -0.11752554605E+02  0.28816824059E+02  0.00000000000E+00 0. -1.
</event>
<event>
 5    1  0.6835449E-004  0.9118800E+02  0.7818608E-02  0.1130116E+00
         25   -1    0    0    0    0  0.00000000000E+00  0.00000000000E+00  0.99999998245E-14  0.12500000000E+03  0.12500000000E+03 0.  0.
        -13    1    3    3    0    0 -0.12947729482E+02  0.46728966598E+02 -0.29442135837E+02  0.56728216478E+02  0.10566000000E+00 0.  1.
         23    2    1    0    0    0  0.82207623706E+01  0.35437900146E+02 -0.10983238245E+02  0.86999247072E+02  0.78261176633E+02 0.  0.
         13    1    3    3    0    0  0.21168491852E+02 -0.11291066452E+02  0.18458897592E+02  0.30271030594E+02  0.10566000000E+00 0. -1.
         22    1    1    0    0    0 -0.82207623706E+01 -0.35437900146E+02  0.10983238245E+02  0.38000752928E+02  0.00000000000E+00 0.  1.
</event>
<event>
 5    1  0.6835449E-004  0.9118800E+02  0.7818608E-02  0.1130116E+00
         25   -1    0    0    0    0  0.00000000000E+00  0.00000000000E+00  0.99999998245E-14  0.12500000000E+03  0.12500000000E+03 0.  0.
        -13    1    3    3    0    0  0.57333688946E+02 -0.16740019134E+02 -0.11036609205E+02  0.60738768802E+02  0.10566000000E+00 0.  1.
         23    2    1    0    0    0  0.25268213128E+02 -0.11265933549E+02  0.48037820487E+01  0.96920110837E+02  0.92763288586E+02 0.  0.
         13    1    3    3    0    0 -0.32065475818E+02  0.54740855852E+01  0.15840391253E+02  0.36181342036E+02  0.10566000000E+00 0. -1.
         22    1    1    0    0    0 -0.25268213128E+02  0.11265933549E+02 -0.48037820487E+01  0.28079889163E+02  0.00000000000E+00 0.  1.
</event>
<event>
 5    1  0.6835449E-004  0.9118800E+02  0.7818608E-02  0.1130116E+00
         25   -1    0    0    0    0  0.00000000000E+00  0.00000000000E+00  0.99999998245E-14  0.12500000000E+03  0.12500000000E+03 0.  0.
        -13    1    3    3    0    0  0.15624143939E+02 -0.20807245659E+02 -0.47129481905E+02  0.53835439762E+02  0.10566000000E+00 0.  1.
         23    2    1    0    0    0 -0.12999665825E+02 -0.20457312597E+02 -0.17007713888E+02  0.95389946269E+02  0.90677927675E+02 0.  0.
         13    1    3    3    0    0 -0.28623809764E+02  0.34993306200E+00  0.30121768017E+02  0.41554506507E+02  0.10566000000E+00 0. -1.
         22    1    1    0    0    0  0.12999665825E+02  0.20457312597E+02  0.17007713888E+02  0.29610053731E+02  0.00000000000E+00 0.  1.
</event>
<event>
 5    1  0.6835449E-004  0.9118800E+02  0.7818608E-02  0.1130116E+00
         25   -1    0    0    0    0  0.00000000000E+00  0.00000000000E+00  0.99999998245E-14  0.12500000000E+03  0.12500000000E+03 0.  0.
        -13    1    3    3    0    0 -0.23688729158E+02 -0.46009075705E+02  0.15939638045E+02  0.54148630282E+02  0.10566000000E+00 0.  1.
         23    2    1    0    0    0 -0.25971241018E+02 -0.41677390274E+01  0.11518847478E+02  0.96284860163E+02  0.91903291785E+02 0.  0.
         13    1    3    3    0    0 -0.22825118606E+01  0.41841336678E+02 -0.44207905677E+01  0.42136229882E+02  0.10566000000E+00 0. -1.
         22    1    1    0    0    0  0.25971241018E+02  0.41677390274E+01 -0.11518847478E+02  0.28715139837E+02  0.00000000000E+00 0.  1.
</event>
<event>
 5    1  0.6835449E-004  0.9118800E+02  0.7818608E-02  0.1130116E+00
         25   -1    0    0    0    0  0.00000000000E+00  0.00000000000E+00  0.99999998245E-14  0.12500000000E+03  0.12500000000E+03 0.  0.
        -13    1    3    3    0    0 -0.25821724992E+02 -0.33114240833E+02 -0.38546893711E+02  0.57001654417E+02  0.10566000000E+00 0. -1.
         23    2    1    0    0    0 -0.25803649987E+02 -0.40826106353E+01 -0.12359742245E+02  0.96099147234E+02  0.91650350836E+02 0.  0.
         13    1    3    3    0    0  0.18075004636E-01  0.29031630197E+02  0.26187151466E+02  0.39097492817E+02  0.10566000000E+00 0.  1.
         22    1    1    0    0    0  0.25803649987E+02  0.40826106353E+01  0.12359742245E+02  0.28900852766E+02  0.00000000000E+00 0. -1.
</event>
<event>
 5    1  0.6835449E-004  0.9118800E+02  0.7818608E-02  0.1130116E+00
         25   -1    0    0    0    0  0.00000000000E+00  0.00000000000E+00  0.99999998245E-14  0.12500000000E+03  0.12500000000E+03 0.  0.
        -13    1    3    3    0    0  0.17220852449E+02 -0.11875461657E+02 -0.52871057978E+02  0.56858985960E+02  0.10566000000E+00 0. -1.
         23    2    1    0    0    0 -0.46753508189E+01  0.78715750753E+01 -0.28349591092E+02  0.95208727544E+02  0.90427771653E+02 0.  0.
         13    1    3    3    0    0 -0.21896203268E+02  0.19747036733E+02  0.24521466886E+02  0.38349741584E+02  0.10566000000E+00 0.  1.
         22    1    1    0    0    0  0.46753508189E+01 -0.78715750753E+01  0.28349591092E+02  0.29791272456E+02  0.00000000000E+00 0. -1.
</event>
<event>
 5    1  0.6835449E-004  0.9118800E+02  0.7818608E-02  0.1130116E+00
         25   -1    0    0    0    0  0.00000000000E+00  0.00000000000E+00  0.99999998245E-14  0.12500000000E+03  0.12500000000E+03 0.  0.
        -13    1    3    3    0    0 -0.38949184675E+02  0.24976061564E+02  0.10963279208E+02  0.47550471009E+02  0.10566000000E+00 0. -1.
         23    2    1    0    0    0 -0.19733744011E+02 -0.75747084938E+01 -0.19610256207E+02  0.96166703103E+02  0.91742442608E+02 0.  0.
         13    1    3    3    0    0  0.19215440664E+02 -0.32550770058E+02 -0.30573535414E+02  0.48616232094E+02  0.10566000000E+00 0.  1.
         22    1    1    0    0    0  0.19733744011E+02  0.75747084938E+01  0.19610256207E+02  0.28833296897E+02  0.00000000000E+00 0. -1.
</event>
<event>
 5    1  0.6835449E-004  0.9118800E+02  0.7818608E-02  0.1130116E+00
         25   -1    0    0    0    0  0.00000000000E+00  0.00000000000E+00  0.99999998245E-14  0.12500000000E+03  0.12500000000E+03 0.  0.
        -13    1    3    3    0    0 -0.49141486537E+02 -0.15196792378E+02 -0.28617995507E+02  0.58862798341E+02  0.10566000000E+00 0. -1.
         23    2    1    0    0    0 -0.17993609860E+02  0.44869395664E+01 -0.21876956767E+02  0.96320671907E+02  0.91951987346E+02 0.  0.
         13    1    3    3    0    0  0.31147876677E+02  0.19683731944E+02  0.67410387404E+01  0.37457873566E+02  0.10566000000E+00 0.  1.
         22    1    1    0    0    0  0.17993609860E+02 -0.44869395664E+01  0.21876956767E+02  0.28679328093E+02  0.00000000000E+00 0. -1.
</event>
<event>
 5    1  0.6835449E-004  0.9118800E+02  0.7818608E-02  0.1130116E+00
         25   -1    0    0    0    0  0.00000000000E+00  0.00000000000E+00  0.99999998245E-14  0.12500000000E+03  0.12500000000E+03 0.  0.
        -13    1    3    3    0    0  0.11856324766E+02  0.42814143422E+02 -0.74863846770E+01  0.45051974801E+02  0.10566000000E+00 0.  1.
         23    2    1    0    0    0 -0.10208318334E+02  0.49755395951E+01 -0.29002620904E+02  0.93853286260E+02  0.88534295982E+02 0.  0.
         13    1    3    3    0    0 -0.22064643100E+02 -0.37838603827E+02 -0.21516236227E+02  0.48801311459E+02  0.10566000000E+00 0. -1.
         22    1    1    0    0    0  0.10208318334E+02 -0.49755395951E+01  0.29002620904E+02  0.31146713740E+02  0.00000000000E+00 0.  1.
</event>
<event>
 5    1  0.6835449E-004  0.9118800E+02  0.7818608E-02  0.1130116E+00
         25   -1    0    0    0    0  0.00000000000E+00  0.00000000000E+00  0.99999998245E-14  0.12500000000E+03  0.12500000000E+03 0.  0.
        -13    1    3    3    0    0 -0.45856245244E+02  0.17515736428E+02 -0.16549820532E+02  0.51802547950E+02  0.10566000000E+00 0. -1.
         23    2    1    0    0    0 -0.66476711507E+01  0.27574451164E+02  0.24728410997E+01  0.96527964037E+02  0.92233350852E+02 0.  0.
         13    1    3    3    0    0  0.39208574093E+02  0.10058714737E+02  0.19022661631E+02  0.44725416087E+02  0.10566000000E+00 0.  1.
         22    1    1    0    0    0  0.66476711507E+01 -0.27574451164E+02 -0.24728410997E+01  0.28472035963E+02  0.00000000000E+00 0. -1.
</event>
<event>
 5    1  0.6835449E-004  0.9118800E+02  0.7818608E-02  0.1130116E+00
         25   -1    0    0    0    0  0.00000000000E+00  0.00000000000E+00  0.99999998245E-14  0.12500000000E+03  0.12500000000E+03 0.  0.
        -13    1    3    3    0    0  0.37461547813E+02  0.36981250564E+01  0.11952639654E+02  0.39495828289E+02  0.10566000000E+00 0.  1.
         23    2    1    0    0    0 -0.13911551393E+02  0.24521375720E+02  0.10399004740E+02  0.94950566911E+02  0.90070204440E+02 0.  0.
         13    1    3    3    0    0 -0.51373099206E+02  0.20823250664E+02 -0.15536349139E+01  0.55454738622E+02  0.10566000000E+00 0. -1.
         22    1    1    0    0    0  0.13911551393E+02 -0.24521375720E+02 -0.10399004740E+02  0.30049433089E+02  0.00000000000E+00 0. -1.
</event>
<event>
 5    1  0.6835449E-004  0.9118800E+02  0.7818608E-02  0.1130116E+00
         25   -1    0    0    0    0  0.00000000000E+00  0.00000000000E+00  0.99999998245E-14  0.12500000000E+03  0.12500000000E+03 0.  0.
        -13    1    3    3    0    0  0.50149233520E+02  0.30275510962E+02 -0.16767485982E+02  0.60932027185E+02  0.10566000000E+00 0. -1.
         23    2    1    0    0    0  0.26324685329E+02  0.95244610499E+01  0.62641055552E+00  0.96998271372E+02  0.92868551421E+02 0.  0.
         13    1    3    3    0    0 -0.23824548191E+02 -0.20751049913E+02  0.17393896537E+02  0.36066244187E+02  0.10566000000E+00 0.  1.
         22    1    1    0    0    0 -0.26324685329E+02 -0.95244610499E+01 -0.62641055552E+00  0.28001728628E+02  0.00000000000E+00 0. -1.
</event>
<event>
 5    1  0.6835449E-004  0.9118800E+02  0.7818608E-02  0.1130116E+00
         25   -1    0    0    0    0  0.00000000000E+00  0.00000000000E+00  0.99999998245E-14  0.12500000000E+03  0.12500000000E+03 0.  0.
        -13    1    3    3    0    0  0.88240970488E+01 -0.34375366974E+02 -0.12308713674E+02  0.37563894096E+02  0.10566000000E+00 0. -1.
         23    2    1    0    0    0 -0.10169056325E+02  0.10523134256E+02  0.22986912892E+02  0.97750335315E+02  0.93875363269E+02 0.  0.
         13    1    3    3    0    0 -0.18993153374E+02  0.44898501231E+02  0.35295626566E+02  0.60186441219E+02  0.10566000000E+00 0.  1.
         22    1    1    0    0    0  0.10169056325E+02 -0.10523134256E+02 -0.22986912892E+02  0.27249664685E+02  0.00000000000E+00 0.  1.
</event>
<event>
 5    1  0.6835449E-004  0.9118800E+02  0.7818608E-02  0.1130116E+00
         25   -1    0    0    0    0  0.00000000000E+00  0.00000000000E+00  0.99999998245E-14  0.12500000000E+03  0.12500000000E+03 0.  0.
        -13    1    3    3    0    0  0.20877747842E+02 -0.34022778115E+02 -0.38842319723E+02  0.55697098229E+02  0.10566000000E+00 0.  1.
         23    2    1    0    0    0 -0.89641763911E+01 -0.10229104513E+02 -0.25447135447E+02  0.96146096625E+02  0.91714361778E+02 0.  0.
         13    1    3    3    0    0 -0.29841924233E+02  0.23793673602E+02  0.13395184276E+02  0.40448998396E+02  0.10566000000E+00 0. -1.
         22    1    1    0    0    0  0.89641763911E+01  0.10229104513E+02  0.25447135447E+02  0.28853903375E+02  0.00000000000E+00 0.  1.
</event>
<event>
 5    1  0.6835449E-004  0.9118800E+02  0.7818608E-02  0.1130116E+00
         25   -1    0    0    0    0  0.00000000000E+00  0.00000000000E+00  0.99999998245E-14  0.12500000000E+03  0.12500000000E+03 0.  0.
        -13    1    3    3    0    0  0.29187631223E+02  0.12685656128E+02 -0.10707689546E+02  0.33578407753E+02  0.10566000000E+00 0.  1.
         23    2    1    0    0    0 -0.18291769067E+02  0.22000754049E+01  0.25028481399E+02  0.93921807830E+02  0.88630987570E+02 0.  0.
         13    1    3    3    0    0 -0.47479400290E+02 -0.10485580723E+02  0.35736170946E+02  0.60343400077E+02  0.10566000000E+00 0. -1.
         22    1    1    0    0    0  0.18291769067E+02 -0.22000754049E+01 -0.25028481399E+02  0.31078192170E+02  0.00000000000E+00 0. -1.
</event>
<event>
 5    1  0.6835449E-004  0.9118800E+02  0.7818608E-02  0.1130116E+00
         25   -1    0    0    0    0  0.00000000000E+00  0.00000000000E+00  0.99999998245E-14  0.12500000000E+03  0.12500000000E+03 0.  0.
        -13    1    3    3    0    0  0.34722674046E+02 -0.18611528501E+02  0.29211582304E+01  0.39504397419E+02  0.10566000000E+00 0.  1.
         23    2    1    0    0    0 -0.84637103767E+00  0.27102910451E+02 -0.29524588233E+01  0.97723616223E+02  0.93839778643E+02 0.  0.
         13    1    3    3    0    0 -0.35569045083E+02  0.45714438952E+02 -0.58736170536E+01  0.58219218804E+02  0.10566000000E+00 0. -1.
         22    1    1    0    0    0  0.84637103767E+00 -0.27102910451E+02  0.29524588233E+01  0.27276383777E+02  0.00000000000E+00 0. -1.
</event>
<event>
 5    1  0.6835449E-004  0.9118800E+02  0.7818608E-02  0.1130116E+00
         25   -1    0    0    0    0  0.00000000000E+00  0.00000000000E+00  0.99999998245E-14  0.12500000000E+03  0.12500000000E+03 0.  0.
        -13    1    3    3    0    0  0.45251988508E+01 -0.19005413778E+02 -0.35884502708E+02  0.40858192278E+02  0.10566000000E+00 0. -1.
         23    2    1    0    0    0  0.69519308227E+00 -0.24068289607E+02  0.17887989550E+02  0.95004233163E+02  0.90144652036E+02 0.  0.
         13    1    3    3    0    0 -0.38300057685E+01 -0.50628758285E+01  0.53772492258E+02  0.54146040885E+02  0.10566000000E+00 0.  1.
         22    1    1    0    0    0 -0.69519308227E+00  0.24068289607E+02 -0.17887989550E+02  0.29995766837E+02  0.00000000000E+00 0.  1.
</event>
<event>
 5    1  0.6835449E-004  0.9118800E+02  0.7818608E-02  0.1130116E+00
         25   -1    0    0    0    0  0.00000000000E+00  0.00000000000E+00  0.99999998245E-14  0.12500000000E+03  0.12500000000E+03 0.  0.
        -13    1    3    3    0    0 -0.23215026032E+01 -0.37052967478E+02 -0.18165392253E+02  0.41331639370E+02  0.10566000000E+00 0.  1.
         23    2    1    0    0    0  0.21705200487E+02  0.47739637020E+01 -0.26639921214E+02  0.90307178554E+02  0.83377422835E+02 0.  0.
         13    1    3    3    0    0  0.24026703090E+02  0.41826931180E+02 -0.84745289609E+01  0.48975539185E+02  0.10566000000E+00 0. -1.
         22    1    1    0    0    0 -0.21705200487E+02 -0.47739637020E+01  0.26639921214E+02  0.34692821446E+02  0.00000000000E+00 0. -1.
</event>
<event>
 5    1  0.6835449E-004  0.9118800E+02  0.7818608E-02  0.1130116E+00
         25   -1    0    0    0    0  0.00000000000E+00  0.00000000000E+00  0.99999998245E-14  0.12500000000E+03  0.12500000000E+03 0.  0.
        -13    1    3    3    0    0  0.15148123586E+02  0.35607481377E+02  0.11965268611E+01  0.38714354170E+02  0.10566000000E+00 0. -1.
         23    2    1    0    0    0 -0.22897842312E+01 -0.11192171085E+02 -0.26727307596E+02  0.95933579911E+02  0.91424258147E+02 0.  0.
         13    1    3    3    0    0 -0.17437907818E+02 -0.46799652462E+02 -0.27923834457E+02  0.57219225742E+02  0.10566000000E+00 0.  1.
         22    1    1    0    0    0  0.22897842312E+01  0.11192171085E+02  0.26727307596E+02  0.29066420089E+02  0.00000000000E+00 0.  1.
</event>
<event>
 5    1  0.6835449E-004  0.9118800E+02  0.7818608E-02  0.1130116E+00
         25   -1    0    0    0    0  0.00000000000E+00  0.00000000000E+00  0.99999998245E-14  0.12500000000E+03  0.12500000000E+03 0.  0.
        -13    1    3    3    0    0 -0.14614757896E+02  0.17688993279E+02 -0.36306099221E+02  0.42949221602E+02  0.10566000000E+00 0.  1.
         23    2    1    0    0    0 -0.27984008207E+01 -0.26971249574E+02 -0.10083716481E+02  0.96069727122E+02  0.91610216573E+02 0.  0.
         13    1    3    3    0    0  0.11816357075E+02 -0.44660242852E+02  0.26222382740E+02  0.53120505520E+02  0.10566000000E+00 0. -1.
         22    1    1    0    0    0  0.27984008207E+01  0.26971249574E+02  0.10083716481E+02  0.28930272878E+02  0.00000000000E+00 0.  1.
</event>
<event>
 5    1  0.6835449E-004  0.9118800E+02  0.7818608E-02  0.1130116E+00
         25   -1    0    0    0    0  0.00000000000E+00  0.00000000000E+00  0.99999998245E-14  0.12500000000E+03  0.12500000000E+03 0.  0.
        -13    1    3    3    0    0 -0.32146057492E+01  0.28806886441E+02 -0.18848332869E+02  0.34575153109E+02  0.10566000000E+00 0. -1.
         23    2    1    0    0    0  0.11409376375E+02 -0.36536802250E+01  0.28656136954E+02  0.93940421227E+02  0.88657234937E+02 0.  0.
         13    1    3    3    0    0  0.14623982124E+02 -0.32460566666E+02  0.47504469823E+02  0.59365268117E+02  0.10566000000E+00 0.  1.
         22    1    1    0    0    0 -0.11409376375E+02  0.36536802250E+01 -0.28656136954E+02  0.31059578773E+02  0.00000000000E+00 0.  1.
</event>
<event>
 5    1  0.6835449E-004  0.9118800E+02  0.7818608E-02  0.1130116E+00
         25   -1    0    0    0    0  0.00000000000E+00  0.00000000000E+00  0.99999998245E-14  0.12500000000E+03  0.12500000000E+03 0.  0.
        -13    1    3    3    0    0 -0.43176582798E+02  0.28282006340E+01  0.16898066096E+02  0.46451822599E+02  0.10566000000E+00 0.  1.
         23    2    1    0    0    0 -0.17633119439E+02 -0.11897509725E+02 -0.21427850373E+02  0.94806782046E+02  0.89870437361E+02 0.  0.
         13    1    3    3    0    0  0.25543463359E+02 -0.14725710359E+02 -0.38325916468E+02  0.48354959447E+02  0.10566000000E+00 0. -1.
         22    1    1    0    0    0  0.17633119439E+02  0.11897509725E+02  0.21427850373E+02  0.30193217954E+02  0.00000000000E+00 0. -1.
</event>
<event>
 5    1  0.6835449E-004  0.9118800E+02  0.7818608E-02  0.1130116E+00
         25   -1    0    0    0    0  0.00000000000E+00  0.00000000000E+00  0.99999998245E-14  0.12500000000E+03  0.12500000000E+03 0.  0.
        -13    1    3    3    0    0 -0.18046541774E+02 -0.61495599951E+00  0.24735418496E+02  0.30625282580E+02  0.10566000000E+00 0. -1.
         23    2    1    0    0    0 -0.27962312825E+02 -0.43756499450E+01 -0.28457055659E+02  0.84864712936E+02  0.74774181600E+02 0.  0.
         13    1    3    3    0    0 -0.99157710509E+01 -0.37606939455E+01 -0.53192474155E+02  0.54239430356E+02  0.10566000000E+00 0.  1.
         22    1    1    0    0    0  0.27962312825E+02  0.43756499450E+01  0.28457055659E+02  0.40135287064E+02  0.00000000000E+00 0.  1.
</event>
<event>
 5    1  0.6835449E-004  0.9118800E+02  0.7818608E-02  0.1130116E+00
         25   -1    0    0    0    0  0.00000000000E+00  0.00000000000E+00  0.99999998245E-14  0.12500000000E+03  0.12500000000E+03 0.  0.
        -13    1    3    3    0    0  0.20084400806E+02 -0.34443098846E+02  0.23523300499E+02  0.46293272127E+02  0.10566000000E+00 0. -1.
         23    2    1    0    0    0  0.18602443497E+02 -0.13312242095E+02 -0.19946618700E+02  0.94649805747E+02  0.89651834542E+02 0.  0.
         13    1    3    3    0    0 -0.14819573093E+01  0.21130856751E+02 -0.43469919199E+02  0.48356533620E+02  0.10566000000E+00 0.  1.
         22    1    1    0    0    0 -0.18602443497E+02  0.13312242095E+02  0.19946618700E+02  0.30350194253E+02  0.00000000000E+00 0.  1.
</event>
<event>
 5    1  0.6835449E-004  0.9118800E+02  0.7818608E-02  0.1130116E+00
         25   -1    0    0    0    0  0.00000000000E+00  0.00000000000E+00  0.99999998245E-14  0.12500000000E+03  0.12500000000E+03 0.  0.
        -13    1    3    3    0    0 -0.53650800757E+02 -0.25921265835E+01  0.14544976431E+02  0.55647956347E+02  0.10566000000E+00 0.  1.
         23    2    1    0    0    0 -0.17335953506E+02 -0.18544536218E+02  0.15375606145E+02  0.95320977580E+02  0.90582804080E+02 0.  0.
         13    1    3    3    0    0  0.36314847252E+02 -0.15952409634E+02  0.83062971401E+00  0.39673021234E+02  0.10566000000E+00 0. -1.
         22    1    1    0    0    0  0.17335953506E+02  0.18544536218E+02 -0.15375606145E+02  0.29679022420E+02  0.00000000000E+00 0.  1.
</event>
<event>
 5    1  0.6835449E-004  0.9118800E+02  0.7818608E-02  0.1130116E+00
         25   -1    0    0    0    0  0.00000000000E+00  0.00000000000E+00  0.99999998245E-14  0.12500000000E+03  0.12500000000E+03 0.  0.
        -13    1    3    3    0    0  0.54772991257E+02  0.54542658519E+01  0.14835532573E+02  0.57008190447E+02  0.10566000000E+00 0.  1.
         23    2    1    0    0    0  0.27196805082E+02  0.19745982271E+02  0.89216972343E-01  0.91390805095E+02  0.84986477005E+02 0.  0.
         13    1    3    3    0    0 -0.27576186176E+02  0.14291716419E+02 -0.14746315601E+02  0.34382614648E+02  0.10566000000E+00 0. -1.
         22    1    1    0    0    0 -0.27196805082E+02 -0.19745982271E+02 -0.89216972343E-01  0.33609194905E+02  0.00000000000E+00 0.  1.
</event>
<event>
 5    1  0.6835449E-004  0.9118800E+02  0.7818608E-02  0.1130116E+00
         25   -1    0    0    0    0  0.00000000000E+00  0.00000000000E+00  0.99999998245E-14  0.12500000000E+03  0.12500000000E+03 0.  0.
        -13    1    3    3    0    0 -0.43777188793E+02  0.16220725209E+02 -0.16924298799E+02  0.49658808270E+02  0.10566000000E+00 0. -1.
         23    2    1    0    0    0 -0.92846244744E+01 -0.15241751511E+02 -0.22057382659E+02  0.96626713787E+02  0.92367085299E+02 0.  0.
         13    1    3    3    0    0  0.34492564319E+02 -0.31462476721E+02 -0.51330838600E+01  0.46967905517E+02  0.10566000000E+00 0.  1.
         22    1    1    0    0    0  0.92846244744E+01  0.15241751511E+02  0.22057382659E+02  0.28373286213E+02  0.00000000000E+00 0. -1.
</event>
<event>
 5    1  0.6835449E-004  0.9118800E+02  0.7818608E-02  0.1130116E+00
         25   -1    0    0    0    0  0.00000000000E+00  0.00000000000E+00  0.99999998245E-14  0.12500000000E+03  0.12500000000E+03 0.  0.
        -13    1    3    3    0    0 -0.10425242154E+02 -0.28764748270E+02 -0.18751064420E+02  0.35884676366E+02  0.10566000000E+00 0.  1.
         23    2    1    0    0    0 -0.30345293941E+02  0.17812877442E+02 -0.15207893189E+02  0.86667044434E+02  0.77728766287E+02 0.  0.
         13    1    3    3    0    0 -0.19920051787E+02  0.46577625712E+02  0.35431712313E+01  0.50782368068E+02  0.10566000000E+00 0. -1.
         22    1    1    0    0    0  0.30345293941E+02 -0.17812877442E+02  0.15207893189E+02  0.38332955566E+02  0.00000000000E+00 0. -1.
</event>
<event>
 5    1  0.6835449E-004  0.9118800E+02  0.7818608E-02  0.1130116E+00
         25   -1    0    0    0    0  0.00000000000E+00  0.00000000000E+00  0.99999998245E-14  0.12500000000E+03  0.12500000000E+03 0.  0.
        -13    1    3    3    0    0 -0.29037411122E+02 -0.12588426273E+02 -0.26786839646E+02  0.41463063839E+02  0.10566000000E+00 0.  1.
         23    2    1    0    0    0  0.20657786341E+02  0.84698311077E+01 -0.18368092071E+02  0.96088601178E+02  0.91635966162E+02 0.  0.
         13    1    3    3    0    0  0.49695197463E+02  0.21058257380E+02  0.84187475748E+01  0.54625537339E+02  0.10566000000E+00 0. -1.
         22    1    1    0    0    0 -0.20657786341E+02 -0.84698311077E+01  0.18368092071E+02  0.28911398822E+02  0.00000000000E+00 0. -1.
</event>
<event>
 5    1  0.6835449E-004  0.9118800E+02  0.7818608E-02  0.1130116E+00
         25   -1    0    0    0    0  0.00000000000E+00  0.00000000000E+00  0.99999998245E-14  0.12500000000E+03  0.12500000000E+03 0.  0.
        -13    1    3    3    0    0  0.46241889069E+02 -0.83782057178E+01 -0.36058209439E+01  0.47133000588E+02  0.10566000000E+00 0. -1.
         23    2    1    0    0    0  0.12367502387E+02  0.25053756276E+02  0.76333941607E+01  0.96035978780E+02  0.91564156169E+02 0.  0.
         13    1    3    3    0    0 -0.33874386682E+02  0.33431961994E+02  0.11239215105E+02  0.48902978192E+02  0.10566000000E+00 0.  1.
         22    1    1    0    0    0 -0.12367502387E+02 -0.25053756276E+02 -0.76333941607E+01  0.28964021220E+02  0.00000000000E+00 0.  1.
</event>
<event>
 5    1  0.6835449E-004  0.9118800E+02  0.7818608E-02  0.1130116E+00
         25   -1    0    0    0    0  0.00000000000E+00  0.00000000000E+00  0.99999998245E-14  0.12500000000E+03  0.12500000000E+03 0.  0.
        -13    1    3    3    0    0 -0.18602345794E+02 -0.77647704105E+01  0.32286051572E+02  0.38062307060E+02  0.10566000000E+00 0.  1.
         23    2    1    0    0    0  0.22975841331E+00 -0.18835571077E+02 -0.21678527420E+02  0.96280841275E+02  0.91897825430E+02 0.  0.
         13    1    3    3    0    0  0.18832104208E+02 -0.11070800667E+02 -0.53964578992E+02  0.58218534215E+02  0.10566000000E+00 0. -1.
         22    1    1    0    0    0 -0.22975841331E+00  0.18835571077E+02  0.21678527420E+02  0.28719158725E+02  0.00000000000E+00 0. -1.
</event>
<event>
 5    1  0.6835449E-004  0.9118800E+02  0.7818608E-02  0.1130116E+00
         25   -1    0    0    0    0  0.00000000000E+00  0.00000000000E+00  0.99999998245E-14  0.12500000000E+03  0.12500000000E+03 0.  0.
        -13    1    3    3    0    0  0.29070064570E+02 -0.49708585062E+02 -0.89231047193E+01  0.58272163551E+02  0.10566000000E+00 0. -1.
         23    2    1    0    0    0  0.17772977029E+02 -0.10412995604E+02 -0.14876850206E+02  0.99590752432E+02  0.96294797928E+02 0.  0.
         13    1    3    3    0    0 -0.11297087541E+02  0.39295589458E+02 -0.59537454867E+01  0.41318588881E+02  0.10566000000E+00 0.  1.
         22    1    1    0    0    0 -0.17772977029E+02  0.10412995604E+02  0.14876850206E+02  0.25409247568E+02  0.00000000000E+00 0. -1.
</event>
<event>
 5    1  0.6835449E-004  0.9118800E+02  0.7818608E-02  0.1130116E+00
         25   -1    0    0    0    0  0.00000000000E+00  0.00000000000E+00  0.99999998245E-14  0.12500000000E+03  0.12500000000E+03 0.  0.
        -13    1    3    3    0    0  0.15483303822E+02  0.82543405287E+01 -0.28283204115E+02  0.33283894512E+02  0.10566000000E+00 0. -1.
         23    2    1    0    0    0  0.32958493738E+01  0.37733235079E+02  0.12548338921E+02  0.85098615784E+02  0.75164179940E+02 0.  0.
         13    1    3    3    0    0 -0.12187454448E+02  0.29478894551E+02  0.40831543036E+02  0.51814721273E+02  0.10566000000E+00 0.  1.
         22    1    1    0    0    0 -0.32958493738E+01 -0.37733235079E+02 -0.12548338921E+02  0.39901384216E+02  0.00000000000E+00 0.  1.
</event>
<event>
 5    1  0.6835449E-004  0.9118800E+02  0.7818608E-02  0.1130116E+00
         25   -1    0    0    0    0  0.00000000000E+00  0.00000000000E+00  0.99999998245E-14  0.12500000000E+03  0.12500000000E+03 0.  0.
        -13    1    3    3    0    0  0.11952082376E+02 -0.34343000762E+02  0.40320279980E+01  0.36586368886E+02  0.10566000000E+00 0.  1.
         23    2    1    0    0    0 -0.19248316018E+02  0.84409456263E+01 -0.21115952224E+02  0.95206868729E+02  0.90425202141E+02 0.  0.
         13    1    3    3    0    0 -0.31200398394E+02  0.42783946389E+02 -0.25147980222E+02  0.58620499843E+02  0.10566000000E+00 0. -1.
         22    1    1    0    0    0  0.19248316018E+02 -0.84409456263E+01  0.21115952224E+02  0.29793131271E+02  0.00000000000E+00 0. -1.
</event>
<event>
 5    1  0.6835449E-004  0.9118800E+02  0.7818608E-02  0.1130116E+00
         25   -1    0    0    0    0  0.00000000000E+00  0.00000000000E+00  0.99999998245E-14  0.12500000000E+03  0.12500000000E+03 0.  0.
        -13    1    3    3    0    0 -0.45699156583E+02 -0.29465067793E+02 -0.13465509359E+02  0.56017267327E+02  0.10566000000E+00 0.  1.
         23    2    1    0    0    0 -0.22032999417E+02 -0.11467817829E+02  0.13994555306E+02  0.96490151048E+02  0.92182090245E+02 0.  0.
         13    1    3    3    0    0  0.23666157165E+02  0.17997249965E+02  0.27460064665E+02  0.40472883721E+02  0.10566000000E+00 0. -1.
         22    1    1    0    0    0  0.22032999417E+02  0.11467817829E+02 -0.13994555306E+02  0.28509848952E+02  0.00000000000E+00 0.  1.
</event>
<event>
 5    1  0.6835449E-004  0.9118800E+02  0.7818608E-02  0.1130116E+00
         25   -1    0    0    0    0  0.00000000000E+00  0.00000000000E+00  0.99999998245E-14  0.12500000000E+03  0.12500000000E+03 0.  0.
        -13    1    3    3    0    0 -0.17433559720E+02 -0.18857748414E+02  0.41009790228E+02  0.48387578348E+02  0.10566000000E+00 0.  1.
         23    2    1    0    0    0  0.21312074995E+02 -0.14233586054E+02  0.14608285446E+02  0.95500821770E+02  0.90830641540E+02 0.  0.
         13    1    3    3    0    0  0.38745634715E+02  0.46241623599E+01 -0.26401504782E+02  0.47113243422E+02  0.10566000000E+00 0. -1.
         22    1    1    0    0    0 -0.21312074995E+02  0.14233586054E+02 -0.14608285446E+02  0.29499178230E+02  0.00000000000E+00 0.  1.
</event>
<event>
 5    1  0.6835449E-004  0.9118800E+02  0.7818608E-02  0.1130116E+00
         25   -1    0    0    0    0  0.00000000000E+00  0.00000000000E+00  0.99999998245E-14  0.12500000000E+03  0.12500000000E+03 0.  0.
        -13    1    3    3    0    0 -0.26788834115E+02  0.44682216837E+01 -0.25499077632E+02  0.37253466448E+02  0.10566000000E+00 0. -1.
         23    2    1    0    0    0  0.12981098721E+02  0.17111448612E+02  0.17589921304E+02  0.97238228999E+02  0.93190971933E+02 0.  0.
         13    1    3    3    0    0  0.39769932837E+02  0.12643226929E+02  0.43088998936E+02  0.59984762551E+02  0.10566000000E+00 0.  1.
         22    1    1    0    0    0 -0.12981098721E+02 -0.17111448612E+02 -0.17589921304E+02  0.27761771001E+02  0.00000000000E+00 0.  1.
</event>
<event>
 5    1  0.6835449E-004  0.9118800E+02  0.7818608E-02  0.1130116E+00
         25   -1    0    0    0    0  0.00000000000E+00  0.00000000000E+00  0.99999998245E-14  0.12500000000E+03  0.12500000000E+03 0.  0.
        -13    1    3    3    0    0 -0.44531183537E+02 -0.31063158290E+02 -0.40584849155E+01  0.54446566228E+02  0.10566000000E+00 0.  1.
         23    2    1    0    0    0 -0.26132234200E+02  0.65158300914E+01 -0.90569706528E+01  0.96585594790E+02  0.92311422356E+02 0.  0.
         13    1    3    3    0    0  0.18398949337E+02  0.37578988381E+02 -0.49984857373E+01  0.42139028562E+02  0.10566000000E+00 0. -1.
         22    1    1    0    0    0  0.26132234200E+02 -0.65158300914E+01  0.90569706528E+01  0.28414405210E+02  0.00000000000E+00 0.  1.
</event>
<event>
 5    1  0.6835449E-004  0.9118800E+02  0.7818608E-02  0.1130116E+00
         25   -1    0    0    0    0  0.00000000000E+00  0.00000000000E+00  0.99999998245E-14  0.12500000000E+03  0.12500000000E+03 0.  0.
        -13    1    3    3    0    0 -0.32894312772E+02 -0.11184180368E+02  0.23901202313E+02  0.42171084161E+02  0.10566000000E+00 0.  1.
         23    2    1    0    0    0  0.19583853492E+02 -0.30906641176E+01  0.22113740224E+02  0.95299881667E+02  0.90553688036E+02 0.  0.
         13    1    3    3    0    0  0.52478166264E+02  0.80935162505E+01 -0.17874620888E+01  0.53128797507E+02  0.10566000000E+00 0. -1.
         22    1    1    0    0    0 -0.19583853492E+02  0.30906641176E+01 -0.22113740224E+02  0.29700118333E+02  0.00000000000E+00 0. -1.
</event>
<event>
 5    1  0.6835449E-004  0.9118800E+02  0.7818608E-02  0.1130116E+00
         25   -1    0    0    0    0  0.00000000000E+00  0.00000000000E+00  0.99999998245E-14  0.12500000000E+03  0.12500000000E+03 0.  0.
        -13    1    3    3    0    0 -0.19647753702E+02  0.31635142507E+02  0.42345796206E+02  0.56391436294E+02  0.10566000000E+00 0. -1.
         23    2    1    0    0    0 -0.25176799278E+02  0.12078150309E+02  0.86056121772E+01  0.95779981216E+02  0.91214008267E+02 0.  0.
         13    1    3    3    0    0 -0.55290455760E+01 -0.19556992197E+02 -0.33740184028E+02  0.39388544922E+02  0.10566000000E+00 0.  1.
         22    1    1    0    0    0  0.25176799278E+02 -0.12078150309E+02 -0.86056121772E+01  0.29220018784E+02  0.00000000000E+00 0. -1.
</event>
<event>
 5    1  0.6835449E-004  0.9118800E+02  0.7818608E-02  0.1130116E+00
         25   -1    0    0    0    0  0.00000000000E+00  0.00000000000E+00  0.99999998245E-14  0.12500000000E+03  0.12500000000E+03 0.  0.
        -13    1    3    3    0    0  0.45627261578E+02  0.16723601302E+02  0.15937033186E+02  0.51142213781E+02  0.10566000000E+00 0. -1.
         23    2    1    0    0    0  0.10425325389E+02 -0.12859042504E+02  0.21941300110E+02  0.97514312195E+02  0.93560558190E+02 0.  0.
         13    1    3    3    0    0 -0.35201936189E+02 -0.29582643805E+02  0.60042669244E+01  0.46372098414E+02  0.10566000000E+00 0.  1.
         22    1    1    0    0    0 -0.10425325389E+02  0.12859042504E+02 -0.21941300110E+02  0.27485687805E+02  0.00000000000E+00 0. -1.
</event>
<event>
 5    1  0.6835449E-004  0.9118800E+02  0.7818608E-02  0.1130116E+00
         25   -1    0    0    0    0  0.00000000000E+00  0.00000000000E+00  0.99999998245E-14  0.12500000000E+03  0.12500000000E+03 0.  0.
        -13    1    3    3    0    0 -0.26297185936E+02 -0.68493251667E+01  0.49573577904E+02  0.56533229464E+02  0.10566000000E+00 0. -1.
         23    2    1    0    0    0 -0.27616396673E+02 -0.29906174063E+01  0.11319290008E+02  0.95004408924E+02  0.90144895757E+02 0.  0.
         13    1    3    3    0    0 -0.13192107371E+01  0.38587077604E+01 -0.38254287897E+02  0.38471179460E+02  0.10566000000E+00 0.  1.
         22    1    1    0    0    0  0.27616396673E+02  0.29906174063E+01 -0.11319290008E+02  0.29995591076E+02  0.00000000000E+00 0. -1.
</event>
<event>
 5    1  0.6835449E-004  0.9118800E+02  0.7818608E-02  0.1130116E+00
         25   -1    0    0    0    0  0.00000000000E+00  0.00000000000E+00  0.99999998245E-14  0.12500000000E+03  0.12500000000E+03 0.  0.
        -13    1    3    3    0    0 -0.15045056816E+01  0.35222136933E+02  0.18867241278E+02  0.39985577712E+02  0.10566000000E+00 0.  1.
         23    2    1    0    0    0 -0.24785770762E+02 -0.13870200453E+02  0.39926309298E+01  0.96317984823E+02  0.91948334437E+02 0.  0.
         13    1    3    3    0    0 -0.23281265081E+02 -0.49092337386E+02 -0.14874610349E+02  0.56332407110E+02  0.10566000000E+00 0. -1.
         22    1    1    0    0    0  0.24785770762E+02  0.13870200453E+02 -0.39926309298E+01  0.28682015177E+02  0.00000000000E+00 0. -1.
</event>
<event>
 5    1  0.6835449E-004  0.9118800E+02  0.7818608E-02  0.1130116E+00
         25   -1    0    0    0    0  0.00000000000E+00  0.00000000000E+00  0.99999998245E-14  0.12500000000E+03  0.12500000000E+03 0.  0.
        -13    1    3    3    0    0  0.32386039281E+02  0.38330468762E+02 -0.31369265777E+02  0.59178732457E+02  0.10566000000E+00 0. -1.
         23    2    1    0    0    0  0.20405223453E+01  0.21830950824E+02 -0.19365652990E+02  0.95746236805E+02  0.91167753078E+02 0.  0.
         13    1    3    3    0    0 -0.30345516936E+02 -0.16499517938E+02  0.12003612786E+02  0.36567504348E+02  0.10566000000E+00 0.  1.
         22    1    1    0    0    0 -0.20405223453E+01 -0.21830950824E+02  0.19365652990E+02  0.29253763195E+02  0.00000000000E+00 0. -1.
</event>
<event>
 5    1  0.6835449E-004  0.9118800E+02  0.7818608E-02  0.1130116E+00
         25   -1    0    0    0    0  0.00000000000E+00  0.00000000000E+00  0.99999998245E-14  0.12500000000E+03  0.12500000000E+03 0.  0.
        -13    1    3    3    0    0 -0.42855838212E+02  0.39117917464E+02  0.13716244629E+02  0.59623660290E+02  0.10566000000E+00 0. -1.
         23    2    1    0    0    0 -0.10493797594E+02  0.22579504361E+02  0.14894875005E+02  0.95986018774E+02  0.91495927196E+02 0.  0.
         13    1    3    3    0    0  0.32362040618E+02 -0.16538413103E+02  0.11786303768E+01  0.36362358484E+02  0.10566000000E+00 0.  1.
         22    1    1    0    0    0  0.10493797594E+02 -0.22579504361E+02 -0.14894875005E+02  0.29013981226E+02  0.00000000000E+00 0. -1.
</event>
<event>
 5    1  0.6835449E-004  0.9118800E+02  0.7818608E-02  0.1130116E+00
         25   -1    0    0    0    0  0.00000000000E+00  0.00000000000E+00  0.99999998245E-14  0.12500000000E+03  0.12500000000E+03 0.  0.
        -13    1    3    3    0    0  0.31455817424E+02 -0.52949395494E+02 -0.63658085102E+01  0.61916408285E+02  0.10566000000E+00 0. -1.
         23    2    1    0    0    0  0.20001199958E+02 -0.22640574028E+02 -0.89183728183E+00  0.94776847189E+02  0.89828791583E+02 0.  0.
         13    1    3    3    0    0 -0.11454617465E+02  0.30308821465E+02  0.54739712284E+01  0.32860438903E+02  0.10566000000E+00 0.  1.
         22    1    1    0    0    0 -0.20001199958E+02  0.22640574028E+02  0.89183728183E+00  0.30223152811E+02  0.00000000000E+00 0. -1.
</event>
<event>
 5    1  0.6835449E-004  0.9118800E+02  0.7818608E-02  0.1130116E+00
         25   -1    0    0    0    0  0.00000000000E+00  0.00000000000E+00  0.99999998245E-14  0.12500000000E+03  0.12500000000E+03 0.  0.
        -13    1    3    3    0    0 -0.40185605922E+02  0.30501068591E+02  0.12870513229E+02  0.52065913833E+02  0.10566000000E+00 0.  1.
         23    2    1    0    0    0 -0.19156301361E+02  0.11346334722E+02 -0.19673227034E+02  0.95289075150E+02  0.90538769528E+02 0.  0.
         13    1    3    3    0    0  0.21029304561E+02 -0.19154733869E+02 -0.32543740263E+02  0.43223161317E+02  0.10566000000E+00 0. -1.
         22    1    1    0    0    0  0.19156301361E+02 -0.11346334722E+02  0.19673227034E+02  0.29710924850E+02  0.00000000000E+00 0.  1.
</event>
<event>
 5    1  0.6835449E-004  0.9118800E+02  0.7818608E-02  0.1130116E+00
         25   -1    0    0    0    0  0.00000000000E+00  0.00000000000E+00  0.99999998245E-14  0.12500000000E+03  0.12500000000E+03 0.  0.
        -13    1    3    3    0    0  0.23125869557E+02  0.10998811342E+02  0.51101808433E+02  0.57159300930E+02  0.10566000000E+00 0.  1.
         23    2    1    0    0    0  0.25272405608E+02  0.58089579042E+00  0.13287110655E+02  0.96441652101E+02  0.92116301626E+02 0.  0.
         13    1    3    3    0    0  0.21465360513E+01 -0.10417915551E+02 -0.37814697778E+02  0.39282351171E+02  0.10566000000E+00 0. -1.
         22    1    1    0    0    0 -0.25272405608E+02 -0.58089579042E+00 -0.13287110655E+02  0.28558347899E+02  0.00000000000E+00 0.  1.
</event>
<event>
 5    1  0.6835449E-004  0.9118800E+02  0.7818608E-02  0.1130116E+00
         25   -1    0    0    0    0  0.00000000000E+00  0.00000000000E+00  0.99999998245E-14  0.12500000000E+03  0.12500000000E+03 0.  0.
        -13    1    3    3    0    0  0.30863432424E+02 -0.27458473410E+02  0.33183240172E+02  0.52987336368E+02  0.10566000000E+00 0.  1.
         23    2    1    0    0    0  0.34397814004E+01  0.38872623512E+01  0.29775645139E+02  0.94775308966E+02  0.89826651065E+02 0.  0.
         13    1    3    3    0    0 -0.27423651024E+02  0.31345735762E+02 -0.34075950337E+01  0.41787972598E+02  0.10566000000E+00 0. -1.
         22    1    1    0    0    0 -0.34397814004E+01 -0.38872623512E+01 -0.29775645139E+02  0.30224691034E+02  0.00000000000E+00 0.  1.
</event>
<event>
 5    1  0.6835449E-004  0.9118800E+02  0.7818608E-02  0.1130116E+00
         25   -1    0    0    0    0  0.00000000000E+00  0.00000000000E+00  0.99999998245E-14  0.12500000000E+03  0.12500000000E+03 0.  0.
        -13    1    3    3    0    0  0.19671905202E+02 -0.47431793914E+02 -0.28090596828E+02  0.58530775856E+02  0.10566000000E+00 0. -1.
         23    2    1    0    0    0  0.21191917493E+02 -0.17357536415E+02 -0.35481935412E+01  0.97378068228E+02  0.93378354328E+02 0.  0.
         13    1    3    3    0    0  0.15200122909E+01  0.30074257499E+02  0.24542403287E+02  0.38847292371E+02  0.10566000000E+00 0.  1.
         22    1    1    0    0    0 -0.21191917493E+02  0.17357536415E+02  0.35481935412E+01  0.27621931772E+02  0.00000000000E+00 0. -1.
</event>
<event>
 5    1  0.6835449E-004  0.9118800E+02  0.7818608E-02  0.1130116E+00
         25   -1    0    0    0    0  0.00000000000E+00  0.00000000000E+00  0.99999998245E-14  0.12500000000E+03  0.12500000000E+03 0.  0.
        -13    1    3    3    0    0 -0.49833065715E+02 -0.23009385879E+02 -0.27896195894E+02  0.61570895613E+02  0.10566000000E+00 0.  1.
         23    2    1    0    0    0 -0.26025818895E+02 -0.43187432353E+01 -0.96742243565E+01  0.96900437562E+02  0.92736774747E+02 0.  0.
         13    1    3    3    0    0  0.23807246820E+02  0.18690642644E+02  0.18221971538E+02  0.35329541949E+02  0.10566000000E+00 0. -1.
         22    1    1    0    0    0  0.26025818895E+02  0.43187432353E+01  0.96742243565E+01  0.28099562438E+02  0.00000000000E+00 0.  1.
</event>
<event>
 5    1  0.6835449E-004  0.9118800E+02  0.7818608E-02  0.1130116E+00
         25   -1    0    0    0    0  0.00000000000E+00  0.00000000000E+00  0.99999998245E-14  0.12500000000E+03  0.12500000000E+03 0.  0.
        -13    1    3    3    0    0  0.15179391087E+02  0.17773613900E+01  0.55155148134E+02  0.57233508166E+02  0.10566000000E+00 0. -1.
         23    2    1    0    0    0 -0.10790017958E+02  0.45813299181E+01  0.26589834131E+02  0.95940881802E+02  0.91434241127E+02 0.  0.
         13    1    3    3    0    0 -0.25969409045E+02  0.28039685281E+01 -0.28565314003E+02  0.38707373636E+02  0.10566000000E+00 0.  1.
         22    1    1    0    0    0  0.10790017958E+02 -0.45813299181E+01 -0.26589834131E+02  0.29059118198E+02  0.00000000000E+00 0. -1.
</event>
<event>
 5    1  0.6835449E-004  0.9118800E+02  0.7818608E-02  0.1130116E+00
         25   -1    0    0    0    0  0.00000000000E+00  0.00000000000E+00  0.99999998245E-14  0.12500000000E+03  0.12500000000E+03 0.  0.
        -13    1    3    3    0    0 -0.61546523405E+01 -0.51038253101E+01 -0.53747159751E+02  0.54338725818E+02  0.10566000000E+00 0. -1.
         23    2    1    0    0    0 -0.18008643307E+01 -0.23670272333E+02 -0.16797651885E+02  0.95919318896E+02  0.91404757666E+02 0.  0.
         13    1    3    3    0    0  0.43537880099E+01 -0.18566447023E+02  0.36949507866E+02  0.41580593077E+02  0.10566000000E+00 0.  1.
         22    1    1    0    0    0  0.18008643307E+01  0.23670272333E+02  0.16797651885E+02  0.29080681104E+02  0.00000000000E+00 0. -1.
</event>
<event>
 5    1  0.6835449E-004  0.9118800E+02  0.7818608E-02  0.1130116E+00
         25   -1    0    0    0    0  0.00000000000E+00  0.00000000000E+00  0.99999998245E-14  0.12500000000E+03  0.12500000000E+03 0.  0.
        -13    1    3    3    0    0  0.12890807205E+02  0.18124084425E+02 -0.33844481287E+02  0.40498338537E+02  0.10566000000E+00 0.  1.
         23    2    1    0    0    0  0.27787906475E+02  0.22286295134E+02  0.10825398548E+02  0.87770496232E+02  0.79483482926E+02 0.  0.
         13    1    3    3    0    0  0.14897099270E+02  0.41622107088E+01  0.44669879835E+02  0.47272157695E+02  0.10566000000E+00 0. -1.
         22    1    1    0    0    0 -0.27787906475E+02 -0.22286295134E+02 -0.10825398548E+02  0.37229503768E+02  0.00000000000E+00 0. -1.
</event>
<event>
 5    1  0.6835449E-004  0.9118800E+02  0.7818608E-02  0.1130116E+00
         25   -1    0    0    0    0  0.00000000000E+00  0.00000000000E+00  0.99999998245E-14  0.12500000000E+03  0.12500000000E+03 0.  0.
        -13    1    3    3    0    0  0.26117589971E+01 -0.37337959099E+02  0.39739085569E+02  0.54590755267E+02  0.10566000000E+00 0. -1.
         23    2    1    0    0    0 -0.19824649820E+02 -0.95342709231E+01  0.11215416068E+02  0.10030780244E+03  0.97221142820E+02 0.  0.
         13    1    3    3    0    0 -0.22436408817E+02  0.27803688176E+02 -0.28523669500E+02  0.45717047177E+02  0.10566000000E+00 0.  1.
         22    1    1    0    0    0  0.19824649820E+02  0.95342709231E+01 -0.11215416068E+02  0.24692197555E+02  0.00000000000E+00 0. -1.
</event>
<event>
 5    1  0.6835449E-004  0.9118800E+02  0.7818608E-02  0.1130116E+00
         25   -1    0    0    0    0  0.00000000000E+00  0.00000000000E+00  0.99999998245E-14  0.12500000000E+03  0.12500000000E+03 0.  0.
        -13    1    3    3    0    0  0.45410323289E+02 -0.18247756294E+02 -0.16839027128E+02  0.51755599403E+02  0.10566000000E+00 0.  1.
         23    2    1    0    0    0  0.82547605910E+01 -0.30328526610E+02 -0.21544744949E+01  0.93494407495E+02  0.88026143126E+02 0.  0.
         13    1    3    3    0    0 -0.37155562698E+02 -0.12080770316E+02  0.14684552633E+02  0.41738808091E+02  0.10566000000E+00 0. -1.
         22    1    1    0    0    0 -0.82547605910E+01  0.30328526610E+02  0.21544744949E+01  0.31505592505E+02  0.00000000000E+00 0.  1.
</event>
<event>
 5    1  0.6835449E-004  0.9118800E+02  0.7818608E-02  0.1130116E+00
         25   -1    0    0    0    0  0.00000000000E+00  0.00000000000E+00  0.99999998245E-14  0.12500000000E+03  0.12500000000E+03 0.  0.
        -13    1    3    3    0    0 -0.17171458862E+02 -0.59393968380E+02 -0.81492938638E+00  0.61831850638E+02  0.10566000000E+00 0.  1.
         23    2    1    0    0    0 -0.26613820127E+01 -0.28395261830E+02  0.32349414369E+01  0.96297409616E+02  0.91920359029E+02 0.  0.
         13    1    3    3    0    0  0.14510076850E+02  0.30998706550E+02  0.40498708233E+01  0.34465558978E+02  0.10566000000E+00 0. -1.
         22    1    1    0    0    0  0.26613820127E+01  0.28395261830E+02 -0.32349414369E+01  0.28702590384E+02  0.00000000000E+00 0.  1.
</event>
<event>
 5    1  0.6835449E-004  0.9118800E+02  0.7818608E-02  0.1130116E+00
         25   -1    0    0    0    0  0.00000000000E+00  0.00000000000E+00  0.99999998245E-14  0.12500000000E+03  0.12500000000E+03 0.  0.
        -13    1    3    3    0    0 -0.71459424384E+01 -0.52793749738E+02  0.18054184590E+02  0.56251304429E+02  0.10566000000E+00 0. -1.
         23    2    1    0    0    0  0.98625535719E+01 -0.16358597635E+02  0.21053216926E+02  0.96572695828E+02  0.92293954065E+02 0.  0.
         13    1    3    3    0    0  0.17008496010E+02  0.36435152103E+02  0.29990323364E+01  0.40321391398E+02  0.10566000000E+00 0.  1.
         22    1    1    0    0    0 -0.98625535719E+01  0.16358597635E+02 -0.21053216926E+02  0.28427304172E+02  0.00000000000E+00 0. -1.
</event>
<event>
 5    1  0.6835449E-004  0.9118800E+02  0.7818608E-02  0.1130116E+00
         25   -1    0    0    0    0  0.00000000000E+00  0.00000000000E+00  0.99999998245E-14  0.12500000000E+03  0.12500000000E+03 0.  0.
        -13    1    3    3    0    0 -0.52433613994E+02  0.76735634026E+01 -0.53213002271E+01  0.53258753759E+02  0.10566000000E+00 0. -1.
         23    2    1    0    0    0 -0.12717116122E+02  0.21261187293E+02 -0.14593229608E+02  0.96247165740E+02  0.91852008334E+02 0.  0.
         13    1    3    3    0    0  0.39716497872E+02  0.13587623890E+02 -0.92719293812E+01  0.42988411982E+02  0.10566000000E+00 0.  1.
         22    1    1    0    0    0  0.12717116122E+02 -0.21261187293E+02  0.14593229608E+02  0.28752834260E+02  0.00000000000E+00 0. -1.
</event>
<event>
 5    1  0.6835449E-004  0.9118800E+02  0.7818608E-02  0.1130116E+00
         25   -1    0    0    0    0  0.00000000000E+00  0.00000000000E+00  0.99999998245E-14  0.12500000000E+03  0.12500000000E+03 0.  0.
        -13    1    3    3    0    0  0.44664931720E+01 -0.12442157195E+02  0.38411247123E+02  0.40622554160E+02  0.10566000000E+00 0. -1.
         23    2    1    0    0    0  0.71623132494E+01  0.29819148402E+02  0.64894492003E+01  0.93653655821E+02  0.88251991225E+02 0.  0.
         13    1    3    3    0    0  0.26958200774E+01  0.42261305597E+02 -0.31921797922E+02  0.53031101660E+02  0.10566000000E+00 0.  1.
         22    1    1    0    0    0 -0.71623132494E+01 -0.29819148402E+02 -0.64894492003E+01  0.31346344179E+02  0.00000000000E+00 0.  1.
</event>
<event>
 5    1  0.6835449E-004  0.9118800E+02  0.7818608E-02  0.1130116E+00
         25   -1    0    0    0    0  0.00000000000E+00  0.00000000000E+00  0.99999998245E-14  0.12500000000E+03  0.12500000000E+03 0.  0.
        -13    1    3    3    0    0  0.46207392904E+02 -0.38318203110E+02  0.28080758675E+01  0.60094128687E+02  0.10566000000E+00 0.  1.
         23    2    1    0    0    0  0.12746863746E+02 -0.26144444814E+02 -0.94868364736E+00  0.95898203996E+02  0.91375877555E+02 0.  0.
         13    1    3    3    0    0 -0.33460529159E+02  0.12173758296E+02 -0.37567595149E+01  0.35804075309E+02  0.10566000000E+00 0. -1.
         22    1    1    0    0    0 -0.12746863746E+02  0.26144444814E+02  0.94868364736E+00  0.29101796004E+02  0.00000000000E+00 0.  1.
</event>
<event>
 5    1  0.6835449E-004  0.9118800E+02  0.7818608E-02  0.1130116E+00
         25   -1    0    0    0    0  0.00000000000E+00  0.00000000000E+00  0.99999998245E-14  0.12500000000E+03  0.12500000000E+03 0.  0.
        -13    1    3    3    0    0  0.28518206823E+02 -0.20970083895E+02 -0.23751271500E+01  0.35477949941E+02  0.10566000000E+00 0.  1.
         23    2    1    0    0    0 -0.11411893352E+02  0.24060055586E+02 -0.10829194207E+02  0.96253016996E+02  0.91859970874E+02 0.  0.
         13    1    3    3    0    0 -0.39930100175E+02  0.45030139481E+02 -0.84540670571E+01  0.60775067055E+02  0.10566000000E+00 0. -1.
         22    1    1    0    0    0  0.11411893352E+02 -0.24060055586E+02  0.10829194207E+02  0.28746983004E+02  0.00000000000E+00 0. -1.
</event>
<event>
 5    1  0.6835449E-004  0.9118800E+02  0.7818608E-02  0.1130116E+00
         25   -1    0    0    0    0  0.00000000000E+00  0.00000000000E+00  0.99999998245E-14  0.12500000000E+03  0.12500000000E+03 0.  0.
        -13    1    3    3    0    0 -0.31497793807E+02 -0.28863928318E+02 -0.24340446514E+02  0.49170172597E+02  0.10566000000E+00 0. -1.
         23    2    1    0    0    0  0.70149740377E+01 -0.42050634357E+01 -0.28746436901E+02  0.95112710833E+02  0.90294948410E+02 0.  0.
         13    1    3    3    0    0  0.38512767845E+02  0.24658864882E+02 -0.44059903866E+01  0.45942538237E+02  0.10566000000E+00 0.  1.
         22    1    1    0    0    0 -0.70149740377E+01  0.42050634357E+01  0.28746436901E+02  0.29887289167E+02  0.00000000000E+00 0. -1.
</event>
<event>
 5    1  0.6835449E-004  0.9118800E+02  0.7818608E-02  0.1130116E+00
         25   -1    0    0    0    0  0.00000000000E+00  0.00000000000E+00  0.99999998245E-14  0.12500000000E+03  0.12500000000E+03 0.  0.
        -13    1    3    3    0    0  0.17163891145E+02  0.21703532806E+02 -0.46601946883E+02  0.54197740846E+02  0.10566000000E+00 0.  1.
         23    2    1    0    0    0  0.13001696753E+02  0.26509846035E+02 -0.65443603125E+01  0.94756906455E+02  0.89801039047E+02 0.  0.
         13    1    3    3    0    0 -0.41621943914E+01  0.48063132281E+01  0.40057586571E+02  0.40559165609E+02  0.10566000000E+00 0. -1.
         22    1    1    0    0    0 -0.13001696753E+02 -0.26509846035E+02  0.65443603125E+01  0.30243093545E+02  0.00000000000E+00 0.  1.
</event>
<event>
 5    1  0.6835449E-004  0.9118800E+02  0.7818608E-02  0.1130116E+00
         25   -1    0    0    0    0  0.00000000000E+00  0.00000000000E+00  0.99999998245E-14  0.12500000000E+03  0.12500000000E+03 0.  0.
        -13    1    3    3    0    0 -0.21961494911E+02 -0.19202916019E+02 -0.53544135204E+02  0.60975772411E+02  0.10566000000E+00 0. -1.
         23    2    1    0    0    0 -0.79368876775E+01 -0.13223558505E+01 -0.30949858361E+02  0.93021311103E+02  0.87351747411E+02 0.  0.
         13    1    3    3    0    0  0.14024607234E+02  0.17880560169E+02  0.22594276842E+02  0.32045538692E+02  0.10566000000E+00 0.  1.
         22    1    1    0    0    0  0.79368876775E+01  0.13223558505E+01  0.30949858361E+02  0.31978688897E+02  0.00000000000E+00 0. -1.
</event>
<event>
 5    1  0.6835449E-004  0.9118800E+02  0.7818608E-02  0.1130116E+00
         25   -1    0    0    0    0  0.00000000000E+00  0.00000000000E+00  0.99999998245E-14  0.12500000000E+03  0.12500000000E+03 0.  0.
        -13    1    3    3    0    0  0.10015156008E+02 -0.28688984533E+02 -0.29759803171E+02  0.42532554970E+02  0.10566000000E+00 0.  1.
         23    2    1    0    0    0 -0.30431887893E+01 -0.80545164347E+01 -0.50008829523E+02  0.74255352368E+02  0.54211051383E+02 0.  0.
         13    1    3    3    0    0 -0.13058344798E+02  0.20634468099E+02 -0.20249026352E+02  0.31722797399E+02  0.10566000000E+00 0. -1.
         22    1    1    0    0    0  0.30431887893E+01  0.80545164347E+01  0.50008829523E+02  0.50744647632E+02  0.00000000000E+00 0. -1.
</event>
<event>
 5    1  0.6835449E-004  0.9118800E+02  0.7818608E-02  0.1130116E+00
         25   -1    0    0    0    0  0.00000000000E+00  0.00000000000E+00  0.99999998245E-14  0.12500000000E+03  0.12500000000E+03 0.  0.
        -13    1    3    3    0    0 -0.96912921977E+01  0.24145193344E+02 -0.11619222699E+02  0.28494367974E+02  0.10566000000E+00 0.  1.
         23    2    1    0    0    0  0.20012288297E+02 -0.28573069621E+02  0.28192507227E-01  0.90115722951E+02  0.83089895521E+02 0.  0.
         13    1    3    3    0    0  0.29703580494E+02 -0.52718262964E+02  0.11647415206E+02  0.61621354977E+02  0.10566000000E+00 0. -1.
         22    1    1    0    0    0 -0.20012288297E+02  0.28573069621E+02 -0.28192507227E-01  0.34884277049E+02  0.00000000000E+00 0. -1.
</event>
<event>
 5    1  0.6835449E-004  0.9118800E+02  0.7818608E-02  0.1130116E+00
         25   -1    0    0    0    0  0.00000000000E+00  0.00000000000E+00  0.99999998245E-14  0.12500000000E+03  0.12500000000E+03 0.  0.
        -13    1    3    3    0    0  0.88942511350E+01 -0.32856475156E+02  0.37515587374E+02  0.50656550643E+02  0.10566000000E+00 0. -1.
         23    2    1    0    0    0 -0.17459843024E+02 -0.28965148082E+02  0.83369737561E+01  0.90167098122E+02  0.83167148144E+02 0.  0.
         13    1    3    3    0    0 -0.26354094159E+02  0.38913270739E+01 -0.29178613618E+02  0.39510547479E+02  0.10566000000E+00 0.  1.
         22    1    1    0    0    0  0.17459843024E+02  0.28965148082E+02 -0.83369737561E+01  0.34832901878E+02  0.00000000000E+00 0. -1.
</event>
<event>
 5    1  0.6835449E-004  0.9118800E+02  0.7818608E-02  0.1130116E+00
         25   -1    0    0    0    0  0.00000000000E+00  0.00000000000E+00  0.99999998245E-14  0.12500000000E+03  0.12500000000E+03 0.  0.
        -13    1    3    3    0    0  0.19811665523E+02  0.23101921101E+02  0.53015232685E+02  0.61129591116E+02  0.10566000000E+00 0. -1.
         23    2    1    0    0    0 -0.94238447916E+00  0.80977739153E+01  0.23067251011E+02  0.10053451206E+03  0.97512194188E+02 0.  0.
         13    1    3    3    0    0 -0.20754050002E+02 -0.15004147185E+02 -0.29947981675E+02  0.39404920945E+02  0.10566000000E+00 0.  1.
         22    1    1    0    0    0  0.94238447916E+00 -0.80977739153E+01 -0.23067251011E+02  0.24465487939E+02  0.00000000000E+00 0. -1.
</event>
<event>
 5    1  0.6835449E-004  0.9118800E+02  0.7818608E-02  0.1130116E+00
         25   -1    0    0    0    0  0.00000000000E+00  0.00000000000E+00  0.99999998245E-14  0.12500000000E+03  0.12500000000E+03 0.  0.
        -13    1    3    3    0    0 -0.29365382748E+02 -0.24460128405E+02  0.43428653652E+01  0.38464207117E+02  0.10566000000E+00 0.  1.
         23    2    1    0    0    0  0.20329378135E+02 -0.30080016732E+02 -0.32317368917E+00  0.88693038365E+02  0.80921317286E+02 0.  0.
         13    1    3    3    0    0  0.49694760883E+02 -0.56198883266E+01 -0.46660390544E+01  0.50228831248E+02  0.10566000000E+00 0. -1.
         22    1    1    0    0    0 -0.20329378135E+02  0.30080016732E+02  0.32317368917E+00  0.36306961635E+02  0.00000000000E+00 0. -1.
</event>
<event>
 5    1  0.6835449E-004  0.9118800E+02  0.7818608E-02  0.1130116E+00
         25   -1    0    0    0    0  0.00000000000E+00  0.00000000000E+00  0.99999998245E-14  0.12500000000E+03  0.12500000000E+03 0.  0.
        -13    1    3    3    0    0 -0.16829073389E+02  0.16689727868E+00  0.30343916897E+02  0.34698847568E+02  0.10566000000E+00 0. -1.
         23    2    1    0    0    0  0.64586054964E+01 -0.19177623648E+02 -0.21963405941E+02  0.95135538942E+02  0.90326545022E+02 0.  0.
         13    1    3    3    0    0  0.23287678886E+02 -0.19344520927E+02 -0.52307322838E+02  0.60436691374E+02  0.10566000000E+00 0.  1.
         22    1    1    0    0    0 -0.64586054964E+01  0.19177623648E+02  0.21963405941E+02  0.29864461058E+02  0.00000000000E+00 0.  1.
</event>
<event>
 5    1  0.6835449E-004  0.9118800E+02  0.7818608E-02  0.1130116E+00
         25   -1    0    0    0    0  0.00000000000E+00  0.00000000000E+00  0.99999998245E-14  0.12500000000E+03  0.12500000000E+03 0.  0.
        -13    1    3    3    0    0 -0.10772060001E+01 -0.10839080203E+02 -0.59953026766E+02  0.60934576513E+02  0.10566000000E+00 0.  1.
         23    2    1    0    0    0  0.70634659190E+01 -0.11228916514E+02 -0.26515435878E+02  0.95351231785E+02  0.90624543840E+02 0.  0.
         13    1    3    3    0    0  0.81406719191E+01 -0.38983631162E+00  0.33437590888E+02  0.34416655271E+02  0.10566000000E+00 0. -1.
         22    1    1    0    0    0 -0.70634659190E+01  0.11228916514E+02  0.26515435878E+02  0.29648768215E+02  0.00000000000E+00 0.  1.
</event>
<event>
 5    1  0.6835449E-004  0.9118800E+02  0.7818608E-02  0.1130116E+00
         25   -1    0    0    0    0  0.00000000000E+00  0.00000000000E+00  0.99999998245E-14  0.12500000000E+03  0.12500000000E+03 0.  0.
        -13    1    3    3    0    0  0.17691500018E+02 -0.15096041327E+02 -0.45107079485E+02  0.50749772614E+02  0.10566000000E+00 0.  1.
         23    2    1    0    0    0 -0.18095570953E+02 -0.84943016667E+01 -0.27023949698E+02  0.91386063810E+02  0.84979503132E+02 0.  0.
         13    1    3    3    0    0 -0.35787070971E+02  0.66017396600E+01  0.18083129788E+02  0.40636291196E+02  0.10566000000E+00 0. -1.
         22    1    1    0    0    0  0.18095570953E+02  0.84943016667E+01  0.27023949698E+02  0.33613936190E+02  0.00000000000E+00 0.  1.
</event>
<event>
 5    1  0.6835449E-004  0.9118800E+02  0.7818608E-02  0.1130116E+00
         25   -1    0    0    0    0  0.00000000000E+00  0.00000000000E+00  0.99999998245E-14  0.12500000000E+03  0.12500000000E+03 0.  0.
        -13    1    3    3    0    0 -0.78315160742E+01  0.18526554809E+02 -0.55642128859E+02  0.59166067514E+02  0.10566000000E+00 0.  1.
         23    2    1    0    0    0  0.30297047364E+01 -0.58192707146E+01 -0.21723897123E+02  0.10230703350E+03  0.99758500262E+02 0.  0.
         13    1    3    3    0    0  0.10861220811E+02 -0.24345825524E+02  0.33918231736E+02  0.43140965984E+02  0.10566000000E+00 0. -1.
         22    1    1    0    0    0 -0.30297047364E+01  0.58192707146E+01  0.21723897123E+02  0.22692966502E+02  0.00000000000E+00 0.  1.
</event>
<event>
 5    1  0.6835449E-004  0.9118800E+02  0.7818608E-02  0.1130116E+00
         25   -1    0    0    0    0  0.00000000000E+00  0.00000000000E+00  0.99999998245E-14  0.12500000000E+03  0.12500000000E+03 0.  0.
        -13    1    3    3    0    0 -0.11225661989E+01  0.57801865803E+02 -0.23517678291E+02  0.62413205345E+02  0.10566000000E+00 0. -1.
         23    2    1    0    0    0 -0.11480212670E+01  0.28709127605E+02 -0.92554109008E+01  0.94814000073E+02  0.89880476291E+02 0.  0.
         13    1    3    3    0    0 -0.25455068089E-01 -0.29092738198E+02  0.14262267391E+02  0.32400794728E+02  0.10566000000E+00 0.  1.
         22    1    1    0    0    0  0.11480212670E+01 -0.28709127605E+02  0.92554109008E+01  0.30185999927E+02  0.00000000000E+00 0. -1.
</event>
<event>
 5    1  0.6835449E-004  0.9118800E+02  0.7818608E-02  0.1130116E+00
         25   -1    0    0    0    0  0.00000000000E+00  0.00000000000E+00  0.99999998245E-14  0.12500000000E+03  0.12500000000E+03 0.  0.
        -13    1    3    3    0    0 -0.45857480036E+02 -0.23676256919E+02 -0.78315939398E+01  0.52199795447E+02  0.10566000000E+00 0.  1.
         23    2    1    0    0    0 -0.25911621164E+02  0.14127113059E+02 -0.11201798080E+01  0.95466252565E+02  0.90783055364E+02 0.  0.
         13    1    3    3    0    0  0.19945858872E+02  0.37803369979E+02  0.67114141318E+01  0.43266457118E+02  0.10566000000E+00 0. -1.
         22    1    1    0    0    0  0.25911621164E+02 -0.14127113059E+02  0.11201798080E+01  0.29533747435E+02  0.00000000000E+00 0.  1.
</event>
<event>
 5    1  0.6835449E-004  0.9118800E+02  0.7818608E-02  0.1130116E+00
         25   -1    0    0    0    0  0.00000000000E+00  0.00000000000E+00  0.99999998245E-14  0.12500000000E+03  0.12500000000E+03 0.  0.
        -13    1    3    3    0    0  0.16110089993E+02 -0.35064406737E+02  0.54367577534E+01  0.38969438260E+02  0.10566000000E+00 0.  1.
         23    2    1    0    0    0  0.17079134851E+02  0.19995809457E+02 -0.11083335580E+02  0.96462838777E+02  0.92145047041E+02 0.  0.
         13    1    3    3    0    0  0.96904485796E+00  0.55060216194E+02 -0.16520093333E+02  0.57493400517E+02  0.10566000000E+00 0. -1.
         22    1    1    0    0    0 -0.17079134851E+02 -0.19995809457E+02  0.11083335580E+02  0.28537161223E+02  0.00000000000E+00 0. -1.
</event>
<event>
 5    1  0.6835449E-004  0.9118800E+02  0.7818608E-02  0.1130116E+00
         25   -1    0    0    0    0  0.00000000000E+00  0.00000000000E+00  0.99999998245E-14  0.12500000000E+03  0.12500000000E+03 0.  0.
        -13    1    3    3    0    0  0.17453427696E+02  0.53118103422E+02 -0.22855168146E+02  0.60403020823E+02  0.10566000000E+00 0. -1.
         23    2    1    0    0    0 -0.35142031993E+01  0.23056746337E+02 -0.12737467746E+02  0.98425458417E+02  0.94770061751E+02 0.  0.
         13    1    3    3    0    0 -0.20967630896E+02 -0.30061357085E+02  0.10117700401E+02  0.38022437594E+02  0.10566000000E+00 0.  1.
         22    1    1    0    0    0  0.35142031993E+01 -0.23056746337E+02  0.12737467746E+02  0.26574541583E+02  0.00000000000E+00 0. -1.
</event>
<event>
 4    1  0.6835449E-004  0.9118800E+02  0.7818608E-02  0.1130116E+00
         25   -1    0    0    0    0  0.00000000000E+00  0.00000000000E+00  0.99999998245E-14  0.12500000000E+03  0.12500000000E+03 0.  0.
        -13    1    1    0    0    0  0.49783873808E+01  0.13868817574E+02 -0.45033037879E+02  0.47382635073E+02  0.10566000000E+00 0. -1.
         13    1    1    0    0    0 -0.24939692294E+02 -0.23719932105E+01 -0.21163572576E+01  0.25141693173E+02  0.10566000000E+00 0.  1.
         22    1    1    0    0    0  0.19961304913E+02 -0.11496824363E+02  0.47149395137E+02  0.52475671754E+02  0.00000000000E+00 0. -1.
</event>
<event>
 5    1  0.6835449E-004  0.9118800E+02  0.7818608E-02  0.1130116E+00
         25   -1    0    0    0    0  0.00000000000E+00  0.00000000000E+00  0.99999998245E-14  0.12500000000E+03  0.12500000000E+03 0.  0.
        -13    1    3    3    0    0  0.59569329617E+01 -0.21398938234E+02  0.42706832313E+02  0.48138179215E+02  0.10566000000E+00 0.  1.
         23    2    1    0    0    0 -0.24602795874E+02  0.30128787570E+01  0.16083857625E+02  0.95452318545E+02  0.90763867460E+02 0.  0.
         13    1    3    3    0    0 -0.30559728836E+02  0.24411816991E+02 -0.26622974688E+02  0.47314139331E+02  0.10566000000E+00 0. -1.
         22    1    1    0    0    0  0.24602795874E+02 -0.30128787570E+01 -0.16083857625E+02  0.29547681455E+02  0.00000000000E+00 0. -1.
</event>
<event>
 5    1  0.6835449E-004  0.9118800E+02  0.7818608E-02  0.1130116E+00
         25   -1    0    0    0    0  0.00000000000E+00  0.00000000000E+00  0.99999998245E-14  0.12500000000E+03  0.12500000000E+03 0.  0.
        -13    1    3    3    0    0  0.29661412594E+02  0.23139929916E+02  0.45981019703E+02  0.59409772686E+02  0.10566000000E+00 0.  1.
         23    2    1    0    0    0  0.76093132814E+01  0.93208763721E+00  0.28973811488E+02  0.95029144354E+02  0.90179188777E+02 0.  0.
         13    1    3    3    0    0 -0.22052099312E+02 -0.22207842279E+02 -0.17007208215E+02  0.35619371669E+02  0.10566000000E+00 0. -1.
         22    1    1    0    0    0 -0.76093132814E+01 -0.93208763721E+00 -0.28973811488E+02  0.29970855646E+02  0.00000000000E+00 0.  1.
</event>
