<event>
 5    1  0.1261138E-009  0.9118800E+02  0.7561462E-02  0.1125453E+00
         25   -1    0    0    0    0  0.00000000000E+00  0.00000000000E+00  0.99999998245E-14  0.12509000000E+03  0.12509000000E+03 0.  0.
        -13    1    3    3    0    0 -0.36063515343E+01 -0.55405876705E+02 -0.21771608647E+02  0.59639173803E+02  0.10566000000E+00 0. -1.
         23    2    1    0    0    0  0.10519489019E+02 -0.27942240044E+02 -0.48907105349E+01  0.94835289996E+02  0.89879835064E+02 0.  0.
         13    1    3    3    0    0  0.14125840553E+02  0.27463636661E+02  0.16880898112E+02  0.35196116193E+02  0.10566000000E+00 0.  1.
         22    1    1    0    0    0 -0.10519489019E+02  0.27942240044E+02  0.48907105349E+01  0.30254710004E+02  0.00000000000E+00 0. -1.
</event>
<event>
 5    1  0.1261138E-009  0.9118800E+02  0.7561462E-02  0.1125453E+00
         25   -1    0    0    0    0  0.00000000000E+00  0.00000000000E+00  0.99999998245E-14  0.12509000000E+03  0.12509000000E+03 0.  0.
        -13    1    3    3    0    0  0.26979694099E+02 -0.39439997745E+02  0.20519305349E+02  0.52004522609E+02  0.10566000000E+00 0. -1.
         23    2    1    0    0    0 -0.38096619273E+01 -0.10095017846E+02  0.27902091025E+02  0.95174291871E+02  0.90350408081E+02 0.  0.
         13    1    3    3    0    0 -0.30789356026E+02  0.29344979899E+02  0.73827856751E+01  0.43169769262E+02  0.10566000000E+00 0.  1.
         22    1    1    0    0    0  0.38096619273E+01  0.10095017846E+02 -0.27902091025E+02  0.29915708129E+02  0.00000000000E+00 0. -1.
</event>
<event>
 5    1  0.1261138E-009  0.9118800E+02  0.7561462E-02  0.1125453E+00
         25   -1    0    0    0    0  0.00000000000E+00  0.00000000000E+00  0.99999998245E-14  0.12509000000E+03  0.12509000000E+03 0.  0.
        -13    1    3    3    0    0  0.37653817394E+02  0.84437664808E+01 -0.46620941159E+02  0.60519670153E+02  0.10566000000E+00 0. -1.
         23    2    1    0    0    0  0.74565348659E+01  0.39538464717E+01 -0.26978397784E+02  0.96822231055E+02  0.92603875002E+02 0.  0.
         13    1    3    3    0    0 -0.30197282529E+02 -0.44899200091E+01  0.19642543375E+02  0.36302560903E+02  0.10566000000E+00 0.  1.
         22    1    1    0    0    0 -0.74565348659E+01 -0.39538464717E+01  0.26978397784E+02  0.28267768945E+02  0.00000000000E+00 0. -1.
</event>
<event>
 5    1  0.1261138E-009  0.9118800E+02  0.7561462E-02  0.1125453E+00
         25   -1    0    0    0    0  0.00000000000E+00  0.00000000000E+00  0.99999998245E-14  0.12509000000E+03  0.12509000000E+03 0.  0.
        -13    1    3    3    0    0  0.47656575772E+02  0.97898675756E+01 -0.12772421514E+02  0.50300463585E+02  0.10566000000E+00 0.  1.
         23    2    1    0    0    0  0.76464005161E+01  0.28279661234E+02 -0.85192581136E+01  0.94581239961E+02  0.89525563463E+02 0.  0.
         13    1    3    3    0    0 -0.40010175256E+02  0.18489793658E+02  0.42531634008E+01  0.44280776376E+02  0.10566000000E+00 0. -1.
         22    1    1    0    0    0 -0.76464005161E+01 -0.28279661234E+02  0.85192581136E+01  0.30508760039E+02  0.00000000000E+00 0.  1.
</event>
<event>
 5    1  0.1261138E-009  0.9118800E+02  0.7561462E-02  0.1125453E+00
         25   -1    0    0    0    0  0.00000000000E+00  0.00000000000E+00  0.99999998245E-14  0.12509000000E+03  0.12509000000E+03 0.  0.
        -13    1    3    3    0    0 -0.24193563619E+02 -0.10382657271E+02 -0.21946426351E+02  0.34275135101E+02  0.10566000000E+00 0.  1.
         23    2    1    0    0    0  0.12519175501E+02 -0.85759095122E+00  0.26480234980E+02  0.95786961556E+02  0.91194703476E+02 0.  0.
         13    1    3    3    0    0  0.36712739120E+02  0.95250663194E+01  0.48426661331E+02  0.61511826455E+02  0.10566000000E+00 0. -1.
         22    1    1    0    0    0 -0.12519175501E+02  0.85759095122E+00 -0.26480234980E+02  0.29303038444E+02  0.00000000000E+00 0. -1.
</event>
<event>
 5    1  0.1261138E-009  0.9118800E+02  0.7561462E-02  0.1125453E+00
         25   -1    0    0    0    0  0.00000000000E+00  0.00000000000E+00  0.99999998245E-14  0.12509000000E+03  0.12509000000E+03 0.  0.
        -13    1    3    3    0    0 -0.11525657555E+02  0.77167938111E+01 -0.51877626910E+02  0.53699990937E+02  0.10566000000E+00 0.  1.
         23    2    1    0    0    0 -0.20459174996E+02 -0.13051280891E+02 -0.16289120435E+02  0.95862457870E+02  0.91298201570E+02 0.  0.
         13    1    3    3    0    0 -0.89335174414E+01 -0.20768074702E+02  0.35588506475E+02  0.42162466933E+02  0.10566000000E+00 0. -1.
         22    1    1    0    0    0  0.20459174996E+02  0.13051280891E+02  0.16289120435E+02  0.29227542130E+02  0.00000000000E+00 0.  1.
</event>
<event>
 5    1  0.1261138E-009  0.9118800E+02  0.7561462E-02  0.1125453E+00
         25   -1    0    0    0    0  0.00000000000E+00  0.00000000000E+00  0.99999998245E-14  0.12509000000E+03  0.12509000000E+03 0.  0.
        -13    1    3    3    0    0 -0.18135823413E+02 -0.94578006072E+01 -0.31071187817E+02  0.37199300526E+02  0.10566000000E+00 0. -1.
         23    2    1    0    0    0  0.20740556347E+02 -0.21242992566E+02  0.88041709580E+01  0.94123100946E+02  0.88883121540E+02 0.  0.
         13    1    3    3    0    0  0.38876379761E+02 -0.11785191959E+02  0.39875358775E+02  0.56923800420E+02  0.10566000000E+00 0.  1.
         22    1    1    0    0    0 -0.20740556347E+02  0.21242992566E+02 -0.88041709580E+01  0.30966899054E+02  0.00000000000E+00 0.  1.
</event>
<event>
 5    1  0.1261138E-009  0.9118800E+02  0.7561462E-02  0.1125453E+00
         25   -1    0    0    0    0  0.00000000000E+00  0.00000000000E+00  0.99999998245E-14  0.12509000000E+03  0.12509000000E+03 0.  0.
        -13    1    3    3    0    0  0.29912748092E+02  0.94359101770E+01 -0.28734585428E+02  0.42538176536E+02  0.10566000000E+00 0.  1.
         23    2    1    0    0    0  0.16436066031E+02 -0.14822348295E+01  0.22817638755E+02  0.96929994230E+02  0.92749328064E+02 0.  0.
         13    1    3    3    0    0 -0.13476682061E+02 -0.10918145007E+02  0.51552224183E+02  0.54391817693E+02  0.10566000000E+00 0. -1.
         22    1    1    0    0    0 -0.16436066031E+02  0.14822348295E+01 -0.22817638755E+02  0.28160005770E+02  0.00000000000E+00 0. -1.
</event>
<event>
 5    1  0.1261138E-009  0.9118800E+02  0.7561462E-02  0.1125453E+00
         25   -1    0    0    0    0  0.00000000000E+00  0.00000000000E+00  0.99999998245E-14  0.12509000000E+03  0.12509000000E+03 0.  0.
        -13    1    3    3    0    0 -0.16605089579E+02  0.59048223221E+00 -0.59940145880E+02  0.62200562066E+02  0.10566000000E+00 0.  1.
         23    2    1    0    0    0 -0.35044259926E+01 -0.16642432580E+01 -0.28377723896E+02  0.96448318473E+02  0.92097406129E+02 0.  0.
         13    1    3    3    0    0  0.13100663586E+02 -0.22547254902E+01  0.31562421984E+02  0.34247756407E+02  0.10566000000E+00 0. -1.
         22    1    1    0    0    0  0.35044259926E+01  0.16642432580E+01  0.28377723896E+02  0.28641681527E+02  0.00000000000E+00 0.  1.
</event>
<event>
 5    1  0.1261138E-009  0.9118800E+02  0.7561462E-02  0.1125453E+00
         25   -1    0    0    0    0  0.00000000000E+00  0.00000000000E+00  0.99999998245E-14  0.12509000000E+03  0.12509000000E+03 0.  0.
        -13    1    3    3    0    0 -0.27400027955E+02  0.43566918863E+01 -0.26416623299E+02  0.38309156173E+02  0.10566000000E+00 0.  1.
         23    2    1    0    0    0  0.23788133480E+02 -0.14625617129E+02 -0.65374269092E+01  0.96410357020E+02  0.92045831080E+02 0.  0.
         13    1    3    3    0    0  0.51188161436E+02 -0.18982309015E+02  0.19879196390E+02  0.58101200847E+02  0.10566000000E+00 0. -1.
         22    1    1    0    0    0 -0.23788133480E+02  0.14625617129E+02  0.65374269092E+01  0.28679642980E+02  0.00000000000E+00 0. -1.
</event>
<event>
 5    1  0.1261138E-009  0.9118800E+02  0.7561462E-02  0.1125453E+00
         25   -1    0    0    0    0  0.00000000000E+00  0.00000000000E+00  0.99999998245E-14  0.12509000000E+03  0.12509000000E+03 0.  0.
        -13    1    3    3    0    0  0.29691644139E+02  0.41915203174E+01 -0.39545188104E+02  0.49628576853E+02  0.10566000000E+00 0.  1.
         23    2    1    0    0    0 -0.45488714611E+00 -0.23136620976E+02 -0.18645745062E+02  0.95371757094E+02  0.90623385998E+02 0.  0.
         13    1    3    3    0    0 -0.30146531285E+02 -0.27328141293E+02  0.20899443041E+02  0.45743180241E+02  0.10566000000E+00 0. -1.
         22    1    1    0    0    0  0.45488714611E+00  0.23136620976E+02  0.18645745062E+02  0.29718242906E+02  0.00000000000E+00 0. -1.
</event>
<event>
 5    1  0.1261138E-009  0.9118800E+02  0.7561462E-02  0.1125453E+00
         25   -1    0    0    0    0  0.00000000000E+00  0.00000000000E+00  0.99999998245E-14  0.12509000000E+03  0.12509000000E+03 0.  0.
        -13    1    3    3    0    0  0.23280394419E+02 -0.13398686930E+01 -0.46191809003E+02  0.51744240215E+02  0.10566000000E+00 0. -1.
         23    2    1    0    0    0 -0.10351892744E+02 -0.15064439382E+02 -0.26011822972E+02  0.93298272277E+02  0.87714614850E+02 0.  0.
         13    1    3    3    0    0 -0.33632287162E+02 -0.13724570689E+02  0.20179986031E+02  0.41554032062E+02  0.10566000000E+00 0.  1.
         22    1    1    0    0    0  0.10351892744E+02  0.15064439382E+02  0.26011822972E+02  0.31791727723E+02  0.00000000000E+00 0. -1.
</event>
<event>
 5    1  0.1261138E-009  0.9118800E+02  0.7561462E-02  0.1125453E+00
         25   -1    0    0    0    0  0.00000000000E+00  0.00000000000E+00  0.99999998245E-14  0.12509000000E+03  0.12509000000E+03 0.  0.
        -13    1    3    3    0    0 -0.10166687769E+02 -0.13894099450E+02 -0.30204626220E+02  0.34766911695E+02  0.10566000000E+00 0.  1.
         23    2    1    0    0    0 -0.73081419945E+01  0.24300467018E+02  0.16236274607E+02  0.94964624486E+02  0.90059656084E+02 0.  0.
         13    1    3    3    0    0  0.28585457741E+01  0.38194566468E+02  0.46440900827E+02  0.60197712791E+02  0.10566000000E+00 0. -1.
         22    1    1    0    0    0  0.73081419945E+01 -0.24300467018E+02 -0.16236274607E+02  0.30125375514E+02  0.00000000000E+00 0. -1.
</event>
<event>
 5    1  0.1261138E-009  0.9118800E+02  0.7561462E-02  0.1125453E+00
         25   -1    0    0    0    0  0.00000000000E+00  0.00000000000E+00  0.99999998245E-14  0.12509000000E+03  0.12509000000E+03 0.  0.
        -13    1    3    3    0    0  0.22304747245E+02 -0.31015938117E+02  0.36960567593E+02  0.53156230941E+02  0.10566000000E+00 0.  1.
         23    2    1    0    0    0 -0.10794432535E+02 -0.11722491055E+02  0.28570267932E+02  0.92376137800E+02  0.86389548297E+02 0.  0.
         13    1    3    3    0    0 -0.33099179780E+02  0.19293447062E+02 -0.83902996611E+01  0.39219906860E+02  0.10566000000E+00 0. -1.
         22    1    1    0    0    0  0.10794432535E+02  0.11722491055E+02 -0.28570267932E+02  0.32713862200E+02  0.00000000000E+00 0.  1.
</event>
<event>
 5    1  0.1261138E-009  0.9118800E+02  0.7561462E-02  0.1125453E+00
         25   -1    0    0    0    0  0.00000000000E+00  0.00000000000E+00  0.99999998245E-14  0.12509000000E+03  0.12509000000E+03 0.  0.
        -13    1    3    3    0    0  0.27467975180E+02 -0.45353836921E+02 -0.59031229388E+01  0.53350896979E+02  0.10566000000E+00 0. -1.
         23    2    1    0    0    0 -0.54227232874E+01 -0.26766989439E+02  0.12121867804E+02  0.95209950961E+02  0.90399764555E+02 0.  0.
         13    1    3    3    0    0 -0.32890698467E+02  0.18586847482E+02  0.18024990743E+02  0.41859053983E+02  0.10566000000E+00 0.  1.
         22    1    1    0    0    0  0.54227232874E+01  0.26766989439E+02 -0.12121867804E+02  0.29880049039E+02  0.00000000000E+00 0. -1.
</event>
<event>
 5    1  0.1261138E-009  0.9118800E+02  0.7561462E-02  0.1125453E+00
         25   -1    0    0    0    0  0.00000000000E+00  0.00000000000E+00  0.99999998245E-14  0.12509000000E+03  0.12509000000E+03 0.  0.
        -13    1    3    3    0    0 -0.29790329237E+02  0.65351715341E+01  0.20778457321E+02  0.36904303755E+02  0.10566000000E+00 0.  1.
         23    2    1    0    0    0  0.21796002976E+02 -0.12166531536E+02  0.22039953896E+02  0.91790603563E+02  0.85537506974E+02 0.  0.
         13    1    3    3    0    0  0.51586332213E+02 -0.18701703070E+02  0.12614965750E+01  0.54886299808E+02  0.10566000000E+00 0. -1.
         22    1    1    0    0    0 -0.21796002976E+02  0.12166531536E+02 -0.22039953896E+02  0.33299396437E+02  0.00000000000E+00 0. -1.
</event>
<event>
 5    1  0.1261138E-009  0.9118800E+02  0.7561462E-02  0.1125453E+00
         25   -1    0    0    0    0  0.00000000000E+00  0.00000000000E+00  0.99999998245E-14  0.12509000000E+03  0.12509000000E+03 0.  0.
        -13    1    3    3    0    0 -0.43629290260E+02  0.38702159768E+02 -0.10041678576E+01  0.58330023628E+02  0.10566000000E+00 0.  1.
         23    2    1    0    0    0 -0.26220214867E+02  0.83408793337E+01  0.11182448649E+02  0.95389543884E+02  0.90647934278E+02 0.  0.
         13    1    3    3    0    0  0.17409075394E+02 -0.30361280435E+02  0.12186616507E+02  0.37059520256E+02  0.10566000000E+00 0. -1.
         22    1    1    0    0    0  0.26220214867E+02 -0.83408793337E+01 -0.11182448649E+02  0.29700456116E+02  0.00000000000E+00 0.  1.
</event>
<event>
 5    1  0.1261138E-009  0.9118800E+02  0.7561462E-02  0.1125453E+00
         25   -1    0    0    0    0  0.00000000000E+00  0.00000000000E+00  0.99999998245E-14  0.12509000000E+03  0.12509000000E+03 0.  0.
        -13    1    3    3    0    0 -0.36991422702E+02 -0.14097677173E+02 -0.87930384986E+01  0.40551677466E+02  0.10566000000E+00 0.  1.
         23    2    1    0    0    0  0.12785633833E+01  0.18199939501E+02 -0.25846221243E+02  0.93453001490E+02  0.87934997656E+02 0.  0.
         13    1    3    3    0    0  0.38269986086E+02  0.32297616674E+02 -0.17053182745E+02  0.52901324024E+02  0.10566000000E+00 0. -1.
         22    1    1    0    0    0 -0.12785633833E+01 -0.18199939501E+02  0.25846221243E+02  0.31636998510E+02  0.00000000000E+00 0. -1.
</event>
<event>
 5    1  0.1261138E-009  0.9118800E+02  0.7561462E-02  0.1125453E+00
         25   -1    0    0    0    0  0.00000000000E+00  0.00000000000E+00  0.99999998245E-14  0.12509000000E+03  0.12509000000E+03 0.  0.
        -13    1    3    3    0    0  0.16642070655E+02 -0.48622416234E+02  0.33499451575E+02  0.61345923222E+02  0.10566000000E+00 0.  1.
         23    2    1    0    0    0 -0.22945585073E+00 -0.21925937364E+02  0.18914405979E+02  0.96132200829E+02  0.91667038261E+02 0.  0.
         13    1    3    3    0    0 -0.16871526506E+02  0.26696478870E+02 -0.14585045596E+02  0.34786277607E+02  0.10566000000E+00 0. -1.
         22    1    1    0    0    0  0.22945585073E+00  0.21925937364E+02 -0.18914405979E+02  0.28957799171E+02  0.00000000000E+00 0.  1.
</event>
<event>
 5    1  0.1261138E-009  0.9118800E+02  0.7561462E-02  0.1125453E+00
         25   -1    0    0    0    0  0.00000000000E+00  0.00000000000E+00  0.99999998245E-14  0.12509000000E+03  0.12509000000E+03 0.  0.
        -13    1    3    3    0    0 -0.29600897899E+02  0.15565482413E+02  0.16025937098E+02  0.37085566236E+02  0.10566000000E+00 0. -1.
         23    2    1    0    0    0 -0.19042321484E+02  0.23707198669E+00 -0.31586377979E+02  0.88206867209E+02  0.80125438772E+02 0.  0.
         13    1    3    3    0    0  0.10558576415E+02 -0.15328410426E+02 -0.47612315077E+02  0.51121300972E+02  0.10566000000E+00 0.  1.
         22    1    1    0    0    0  0.19042321484E+02 -0.23707198669E+00  0.31586377979E+02  0.36883132791E+02  0.00000000000E+00 0.  1.
</event>
<event>
 5    1  0.1261138E-009  0.9118800E+02  0.7561462E-02  0.1125453E+00
         25   -1    0    0    0    0  0.00000000000E+00  0.00000000000E+00  0.99999998245E-14  0.12509000000E+03  0.12509000000E+03 0.  0.
        -13    1    3    3    0    0 -0.47733574861E+02 -0.17278592574E+02 -0.71516636934E+01  0.51265986658E+02  0.10566000000E+00 0. -1.
         23    2    1    0    0    0 -0.53536771905E+01 -0.27865185708E+02  0.42172366058E+01  0.96403495880E+02  0.92036506340E+02 0.  0.
         13    1    3    3    0    0  0.42379897671E+02 -0.10586593134E+02  0.11368900299E+02  0.45137509223E+02  0.10566000000E+00 0.  1.
         22    1    1    0    0    0  0.53536771905E+01  0.27865185708E+02 -0.42172366058E+01  0.28686504120E+02  0.00000000000E+00 0. -1.
</event>
<event>
 5    1  0.1261138E-009  0.9118800E+02  0.7561462E-02  0.1125453E+00
         25   -1    0    0    0    0  0.00000000000E+00  0.00000000000E+00  0.99999998245E-14  0.12509000000E+03  0.12509000000E+03 0.  0.
        -13    1    3    3    0    0 -0.46853066546E+02  0.12007978361E+02 -0.28719646889E+02  0.56251494830E+02  0.10566000000E+00 0.  1.
         23    2    1    0    0    0 -0.34603596345E+02  0.39194614470E+00  0.10428918618E+01  0.90468473095E+02  0.83581663652E+02 0.  0.
         13    1    3    3    0    0  0.12249470201E+02 -0.11616032216E+02  0.29762538751E+02  0.34216978265E+02  0.10566000000E+00 0. -1.
         22    1    1    0    0    0  0.34603596345E+02 -0.39194614470E+00 -0.10428918618E+01  0.34621526905E+02  0.00000000000E+00 0.  1.
</event>
<event>
 5    1  0.1261138E-009  0.9118800E+02  0.7561462E-02  0.1125453E+00
         25   -1    0    0    0    0  0.00000000000E+00  0.00000000000E+00  0.99999998245E-14  0.12509000000E+03  0.12509000000E+03 0.  0.
        -13    1    3    3    0    0 -0.42935922576E+02  0.11941477690E+02 -0.30746406891E+02  0.54142820739E+02  0.10566000000E+00 0.  1.
         23    2    1    0    0    0 -0.20475046107E+02 -0.17466146807E+02 -0.12032537488E+02  0.95609909163E+02  0.90951519912E+02 0.  0.
         13    1    3    3    0    0  0.22460876469E+02 -0.29407624497E+02  0.18713869402E+02  0.41467088424E+02  0.10566000000E+00 0. -1.
         22    1    1    0    0    0  0.20475046107E+02  0.17466146807E+02  0.12032537488E+02  0.29480090837E+02  0.00000000000E+00 0.  1.
</event>
<event>
 5    1  0.1261138E-009  0.9118800E+02  0.7561462E-02  0.1125453E+00
         25   -1    0    0    0    0  0.00000000000E+00  0.00000000000E+00  0.99999998245E-14  0.12509000000E+03  0.12509000000E+03 0.  0.
        -13    1    3    3    0    0 -0.69311653854E+01  0.35232438527E+02 -0.41258365140E+02  0.54695791760E+02  0.10566000000E+00 0. -1.
         23    2    1    0    0    0  0.18479059919E+02  0.10041343554E+02 -0.18324371126E+02  0.97195792482E+02  0.93107117146E+02 0.  0.
         13    1    3    3    0    0  0.25410225304E+02 -0.25191094973E+02  0.22933994013E+02  0.42500000722E+02  0.10566000000E+00 0.  1.
         22    1    1    0    0    0 -0.18479059919E+02 -0.10041343554E+02  0.18324371126E+02  0.27894207518E+02  0.00000000000E+00 0. -1.
</event>
<event>
 5    1  0.1261138E-009  0.9118800E+02  0.7561462E-02  0.1125453E+00
         25   -1    0    0    0    0  0.00000000000E+00  0.00000000000E+00  0.99999998245E-14  0.12509000000E+03  0.12509000000E+03 0.  0.
        -13    1    3    3    0    0  0.26637017530E+02 -0.27924908199E+02 -0.86169719427E+01  0.39542313669E+02  0.10566000000E+00 0. -1.
         23    2    1    0    0    0  0.57472275503E+01  0.24105022155E+02 -0.15238341290E+02  0.95998940155E+02  0.91485008324E+02 0.  0.
         13    1    3    3    0    0 -0.20889789979E+02  0.52029930355E+02 -0.66213693477E+01  0.56456626486E+02  0.10566000000E+00 0.  1.
         22    1    1    0    0    0 -0.57472275503E+01 -0.24105022155E+02  0.15238341290E+02  0.29091059845E+02  0.00000000000E+00 0.  1.
</event>
<event>
 5    1  0.1261138E-009  0.9118800E+02  0.7561462E-02  0.1125453E+00
         25   -1    0    0    0    0  0.00000000000E+00  0.00000000000E+00  0.99999998245E-14  0.12509000000E+03  0.12509000000E+03 0.  0.
        -13    1    3    3    0    0  0.19763370549E+02 -0.34468489380E+02  0.37726380067E+02  0.54790131343E+02  0.10566000000E+00 0.  1.
         23    2    1    0    0    0 -0.11962879101E+02 -0.22169883934E+02  0.14030264090E+02  0.96254907830E+02  0.91834333127E+02 0.  0.
         13    1    3    3    0    0 -0.31726249650E+02  0.12298605446E+02 -0.23696115977E+02  0.41464776487E+02  0.10566000000E+00 0. -1.
         22    1    1    0    0    0  0.11962879101E+02  0.22169883934E+02 -0.14030264090E+02  0.28835092170E+02  0.00000000000E+00 0. -1.
</event>
<event>
 5    1  0.1261138E-009  0.9118800E+02  0.7561462E-02  0.1125453E+00
         25   -1    0    0    0    0  0.00000000000E+00  0.00000000000E+00  0.99999998245E-14  0.12509000000E+03  0.12509000000E+03 0.  0.
        -13    1    3    3    0    0  0.50232322666E+02  0.15319789801E+02  0.32364697553E+02  0.61688467412E+02  0.10566000000E+00 0.  1.
         23    2    1    0    0    0  0.22273607259E+02  0.64306896874E+01  0.22870071201E+02  0.92524565765E+02  0.86604201763E+02 0.  0.
         13    1    3    3    0    0 -0.27958715407E+02 -0.88891001134E+01 -0.94946263519E+01  0.30836098353E+02  0.10566000000E+00 0. -1.
         22    1    1    0    0    0 -0.22273607259E+02 -0.64306896874E+01 -0.22870071201E+02  0.32565434235E+02  0.00000000000E+00 0.  1.
</event>
<event>
 5    1  0.1261138E-009  0.9118800E+02  0.7561462E-02  0.1125453E+00
         25   -1    0    0    0    0  0.00000000000E+00  0.00000000000E+00  0.99999998245E-14  0.12509000000E+03  0.12509000000E+03 0.  0.
        -13    1    3    3    0    0 -0.51033692462E+02 -0.28138039149E+02  0.14955641469E+02  0.60165350405E+02  0.10566000000E+00 0.  1.
         23    2    1    0    0    0 -0.25438657265E+02 -0.17418797202E+02 -0.43277766066E+01  0.93956907803E+02  0.88648920434E+02 0.  0.
         13    1    3    3    0    0  0.25595035198E+02  0.10719241948E+02 -0.19283418076E+02  0.33791557398E+02  0.10566000000E+00 0. -1.
         22    1    1    0    0    0  0.25438657265E+02  0.17418797202E+02  0.43277766066E+01  0.31133092197E+02  0.00000000000E+00 0.  1.
</event>
<event>
 5    1  0.1261138E-009  0.9118800E+02  0.7561462E-02  0.1125453E+00
         25   -1    0    0    0    0  0.00000000000E+00  0.00000000000E+00  0.99999998245E-14  0.12509000000E+03  0.12509000000E+03 0.  0.
        -13    1    3    3    0    0  0.35282166389E+02  0.20919461974E+01  0.24342514716E+02  0.42915925840E+02  0.10566000000E+00 0.  1.
         23    2    1    0    0    0  0.45957379855E+01  0.32350736113E+02 -0.58400959328E-02  0.92414459166E+02  0.86445018909E+02 0.  0.
         13    1    3    3    0    0 -0.30686428404E+02  0.30258789916E+02 -0.24348354811E+02  0.49498533326E+02  0.10566000000E+00 0. -1.
         22    1    1    0    0    0 -0.45957379855E+01 -0.32350736113E+02  0.58400959328E-02  0.32675540834E+02  0.00000000000E+00 0. -1.
</event>
<event>
 5    1  0.1261138E-009  0.9118800E+02  0.7561462E-02  0.1125453E+00
         25   -1    0    0    0    0  0.00000000000E+00  0.00000000000E+00  0.99999998245E-14  0.12509000000E+03  0.12509000000E+03 0.  0.
        -13    1    3    3    0    0 -0.24390625067E+01  0.73186932663E+00 -0.38240291321E+02  0.38325131480E+02  0.10566000000E+00 0. -1.
         23    2    1    0    0    0 -0.85154796067E+01  0.14728381039E+02  0.20174317222E+02  0.98699818562E+02  0.95106322123E+02 0.  0.
         13    1    3    3    0    0 -0.60764171001E+01  0.13996511712E+02  0.58414608543E+02  0.60374687081E+02  0.10566000000E+00 0.  1.
         22    1    1    0    0    0  0.85154796067E+01 -0.14728381039E+02 -0.20174317222E+02  0.26390181438E+02  0.00000000000E+00 0.  1.
</event>
<event>
 5    1  0.1261138E-009  0.9118800E+02  0.7561462E-02  0.1125453E+00
         25   -1    0    0    0    0  0.00000000000E+00  0.00000000000E+00  0.99999998245E-14  0.12509000000E+03  0.12509000000E+03 0.  0.
        -13    1    3    3    0    0 -0.26013953067E+02  0.93469771236E+00 -0.54572170669E+02  0.60462652849E+02  0.10566000000E+00 0. -1.
         23    2    1    0    0    0 -0.15670602187E+02 -0.10423391479E+02 -0.24882297008E+02  0.93891545435E+02  0.88556641405E+02 0.  0.
         13    1    3    3    0    0  0.10343350880E+02 -0.11358089192E+02  0.29689873661E+02  0.33428892586E+02  0.10566000000E+00 0.  1.
         22    1    1    0    0    0  0.15670602187E+02  0.10423391479E+02  0.24882297008E+02  0.31198454565E+02  0.00000000000E+00 0. -1.
</event>
<event>
 5    1  0.1261138E-009  0.9118800E+02  0.7561462E-02  0.1125453E+00
         25   -1    0    0    0    0  0.00000000000E+00  0.00000000000E+00  0.99999998245E-14  0.12509000000E+03  0.12509000000E+03 0.  0.
        -13    1    3    3    0    0  0.32724113262E+02  0.21318712579E+01  0.96160206463E+01  0.34174427295E+02  0.10566000000E+00 0.  1.
         23    2    1    0    0    0 -0.15313512758E+02 -0.24290542495E+02  0.20161228598E+02  0.90004258362E+02  0.82883998800E+02 0.  0.
         13    1    3    3    0    0 -0.48037626020E+02 -0.26422413753E+02  0.10545207951E+02  0.55829831067E+02  0.10566000000E+00 0. -1.
         22    1    1    0    0    0  0.15313512758E+02  0.24290542495E+02 -0.20161228598E+02  0.35085741638E+02  0.00000000000E+00 0. -1.
</event>
<event>
 5    1  0.1261138E-009  0.9118800E+02  0.7561462E-02  0.1125453E+00
         25   -1    0    0    0    0  0.00000000000E+00  0.00000000000E+00  0.99999998245E-14  0.12509000000E+03  0.12509000000E+03 0.  0.
        -13    1    3    3    0    0 -0.27963140073E+02  0.49543247763E+02  0.21283997318E+02  0.60741174729E+02  0.10566000000E+00 0. -1.
         23    2    1    0    0    0 -0.98319365656E+01  0.34197793561E+02  0.19381551156E+02  0.84570861482E+02  0.74232270782E+02 0.  0.
         13    1    3    3    0    0  0.18131203507E+02 -0.15345454202E+02 -0.19024461614E+01  0.23829686752E+02  0.10566000000E+00 0.  1.
         22    1    1    0    0    0  0.98319365656E+01 -0.34197793561E+02 -0.19381551156E+02  0.40519138518E+02  0.00000000000E+00 0. -1.
</event>
<event>
 5    1  0.1261138E-009  0.9118800E+02  0.7561462E-02  0.1125453E+00
         25   -1    0    0    0    0  0.00000000000E+00  0.00000000000E+00  0.99999998245E-14  0.12509000000E+03  0.12509000000E+03 0.  0.
        -13    1    3    3    0    0 -0.63979826350E+01  0.66447587242E+01 -0.32457118866E+02  0.33742595179E+02  0.10566000000E+00 0. -1.
         23    2    1    0    0    0  0.86249951131E+01 -0.69372883536E+01  0.26655131730E+02  0.96228043068E+02  0.91797732623E+02 0.  0.
         13    1    3    3    0    0  0.15022977748E+02 -0.13582047078E+02  0.59112250596E+02  0.62485447889E+02  0.10566000000E+00 0.  1.
         22    1    1    0    0    0 -0.86249951131E+01  0.69372883536E+01 -0.26655131730E+02  0.28861956932E+02  0.00000000000E+00 0.  1.
</event>
<event>
 5    1  0.1261138E-009  0.9118800E+02  0.7561462E-02  0.1125453E+00
         25   -1    0    0    0    0  0.00000000000E+00  0.00000000000E+00  0.99999998245E-14  0.12509000000E+03  0.12509000000E+03 0.  0.
        -13    1    3    3    0    0 -0.54183587830E+02 -0.21769930193E+02  0.71353491673E+01  0.58827845639E+02  0.10566000000E+00 0. -1.
         23    2    1    0    0    0 -0.28129568053E+02 -0.14130928358E+02 -0.11297456204E+02  0.91644697613E+02  0.85323867404E+02 0.  0.
         13    1    3    3    0    0  0.26054019777E+02  0.76390018351E+01 -0.18432805372E+02  0.32816851974E+02  0.10566000000E+00 0.  1.
         22    1    1    0    0    0  0.28129568053E+02  0.14130928358E+02  0.11297456204E+02  0.33445302387E+02  0.00000000000E+00 0. -1.
</event>
<event>
 5    1  0.1261138E-009  0.9118800E+02  0.7561462E-02  0.1125453E+00
         25   -1    0    0    0    0  0.00000000000E+00  0.00000000000E+00  0.99999998245E-14  0.12509000000E+03  0.12509000000E+03 0.  0.
        -13    1    3    3    0    0 -0.22358492482E+02  0.23433668496E+02  0.18920383237E+02  0.37510412836E+02  0.10566000000E+00 0. -1.
         23    2    1    0    0    0 -0.12131116175E+02 -0.26916814446E+02 -0.65377431600E+01  0.94850605740E+02  0.89901148180E+02 0.  0.
         13    1    3    3    0    0  0.10227376306E+02 -0.50350482942E+02 -0.25458126397E+02  0.57340192904E+02  0.10566000000E+00 0.  1.
         22    1    1    0    0    0  0.12131116175E+02  0.26916814446E+02  0.65377431600E+01  0.30239394260E+02  0.00000000000E+00 0.  1.
</event>
<event>
 5    1  0.1261138E-009  0.9118800E+02  0.7561462E-02  0.1125453E+00
         25   -1    0    0    0    0  0.00000000000E+00  0.00000000000E+00  0.99999998245E-14  0.12509000000E+03  0.12509000000E+03 0.  0.
        -13    1    3    3    0    0 -0.46496295704E+01  0.34121769319E+01  0.14880532936E+02  0.15959430787E+02  0.10566000000E+00 0.  1.
         23    2    1    0    0    0  0.23378396465E+00 -0.22347755033E+02 -0.41397368550E+02  0.78045139145E+02  0.62272183287E+02 0.  0.
         13    1    3    3    0    0  0.48834135350E+01 -0.25759931965E+02 -0.56277901486E+02  0.62085708358E+02  0.10566000000E+00 0. -1.
         22    1    1    0    0    0 -0.23378396465E+00  0.22347755033E+02  0.41397368550E+02  0.47044860855E+02  0.00000000000E+00 0. -1.
</event>
<event>
 5    1  0.1261138E-009  0.9118800E+02  0.7561462E-02  0.1125453E+00
         25   -1    0    0    0    0  0.00000000000E+00  0.00000000000E+00  0.99999998245E-14  0.12509000000E+03  0.12509000000E+03 0.  0.
        -13    1    3    3    0    0  0.55951062926E+02 -0.23327904391E+02  0.64911483630E+01  0.60966045771E+02  0.10566000000E+00 0.  1.
         23    2    1    0    0    0  0.31575003096E+02 -0.11988111296E+02  0.13448896706E+02  0.88736617000E+02  0.80948247301E+02 0.  0.
         13    1    3    3    0    0 -0.24376059831E+02  0.11339793095E+02  0.69577483433E+01  0.27770571229E+02  0.10566000000E+00 0. -1.
         22    1    1    0    0    0 -0.31575003096E+02  0.11988111296E+02 -0.13448896706E+02  0.36353383000E+02  0.00000000000E+00 0.  1.
</event>
<event>
 5    1  0.1261138E-009  0.9118800E+02  0.7561462E-02  0.1125453E+00
         25   -1    0    0    0    0  0.00000000000E+00  0.00000000000E+00  0.99999998245E-14  0.12509000000E+03  0.12509000000E+03 0.  0.
        -13    1    3    3    0    0 -0.15525217536E+02 -0.12376628706E+02  0.39785665107E+02  0.44464858368E+02  0.10566000000E+00 0.  1.
         23    2    1    0    0    0  0.12813724530E+02  0.21779673347E+02  0.19007622544E+02  0.93469825709E+02  0.87958927323E+02 0.  0.
         13    1    3    3    0    0  0.28338942065E+02  0.34156302053E+02 -0.20778042562E+02  0.49004967341E+02  0.10566000000E+00 0. -1.
         22    1    1    0    0    0 -0.12813724530E+02 -0.21779673347E+02 -0.19007622544E+02  0.31620174291E+02  0.00000000000E+00 0.  1.
</event>
<event>
 5    1  0.1261138E-009  0.9118800E+02  0.7561462E-02  0.1125453E+00
         25   -1    0    0    0    0  0.00000000000E+00  0.00000000000E+00  0.99999998245E-14  0.12509000000E+03  0.12509000000E+03 0.  0.
        -13    1    3    3    0    0 -0.29360247007E+02  0.46883343768E+02 -0.89028517128E+01  0.56029848830E+02  0.10566000000E+00 0. -1.
         23    2    1    0    0    0 -0.19141264350E+02  0.15078797554E+02  0.14423497371E+02  0.96774007822E+02  0.92538711775E+02 0.  0.
         13    1    3    3    0    0  0.10218982656E+02 -0.31804546214E+02  0.23326349083E+02  0.40744158993E+02  0.10566000000E+00 0.  1.
         22    1    1    0    0    0  0.19141264350E+02 -0.15078797554E+02 -0.14423497371E+02  0.28315992178E+02  0.00000000000E+00 0. -1.
</event>
<event>
 5    1  0.1261138E-009  0.9118800E+02  0.7561462E-02  0.1125453E+00
         25   -1    0    0    0    0  0.00000000000E+00  0.00000000000E+00  0.99999998245E-14  0.12509000000E+03  0.12509000000E+03 0.  0.
        -13    1    3    3    0    0  0.29011902897E+02 -0.13251060859E+02 -0.32517879678E+02  0.45548927390E+02  0.10566000000E+00 0.  1.
         23    2    1    0    0    0  0.28988288450E+02  0.20208272641E+02 -0.39724164827E+01  0.89530539331E+02  0.82165943248E+02 0.  0.
         13    1    3    3    0    0 -0.23614447052E-01  0.33459333500E+02  0.28545463195E+02  0.43981611941E+02  0.10566000000E+00 0. -1.
         22    1    1    0    0    0 -0.28988288450E+02 -0.20208272641E+02  0.39724164827E+01  0.35559460669E+02  0.00000000000E+00 0.  1.
</event>
<event>
 5    1  0.1261138E-009  0.9118800E+02  0.7561462E-02  0.1125453E+00
         25   -1    0    0    0    0  0.00000000000E+00  0.00000000000E+00  0.99999998245E-14  0.12509000000E+03  0.12509000000E+03 0.  0.
        -13    1    3    3    0    0  0.39198255910E+02  0.92527365662E+01  0.29813075059E+02  0.50109350514E+02  0.10566000000E+00 0.  1.
         23    2    1    0    0    0 -0.36209907554E+01 -0.74917363246E+01  0.27735535299E+02  0.96133176875E+02  0.91668370175E+02 0.  0.
         13    1    3    3    0    0 -0.42819246666E+02 -0.16744472891E+02 -0.20775397605E+01  0.46023826361E+02  0.10566000000E+00 0. -1.
         22    1    1    0    0    0  0.36209907554E+01  0.74917363246E+01 -0.27735535299E+02  0.28956823125E+02  0.00000000000E+00 0.  1.
</event>
<event>
 5    1  0.1261138E-009  0.9118800E+02  0.7561462E-02  0.1125453E+00
         25   -1    0    0    0    0  0.00000000000E+00  0.00000000000E+00  0.99999998245E-14  0.12509000000E+03  0.12509000000E+03 0.  0.
        -13    1    3    3    0    0 -0.26156135849E+02  0.45102890527E+02  0.15702110933E+02  0.54451644862E+02  0.10566000000E+00 0. -1.
         23    2    1    0    0    0  0.13403656555E+01  0.30472295205E+02 -0.79595278649E+01  0.93566811091E+02  0.88096746244E+02 0.  0.
         13    1    3    3    0    0  0.27496501504E+02 -0.14630595322E+02 -0.23661638798E+02  0.39115166229E+02  0.10566000000E+00 0.  1.
         22    1    1    0    0    0 -0.13403656555E+01 -0.30472295205E+02  0.79595278649E+01  0.31523188909E+02  0.00000000000E+00 0. -1.
</event>
<event>
 5    1  0.1261138E-009  0.9118800E+02  0.7561462E-02  0.1125453E+00
         25   -1    0    0    0    0  0.00000000000E+00  0.00000000000E+00  0.99999998245E-14  0.12509000000E+03  0.12509000000E+03 0.  0.
        -13    1    3    3    0    0  0.18608415150E+02 -0.17339165653E+02  0.21521694035E+02  0.33318377183E+02  0.10566000000E+00 0.  1.
         23    2    1    0    0    0  0.26514478288E+02  0.23027705505E+02 -0.13623458892E+02  0.87421824946E+02  0.78890329350E+02 0.  0.
         13    1    3    3    0    0  0.79060631381E+01  0.40366871158E+02 -0.35145152928E+02  0.54103447762E+02  0.10566000000E+00 0. -1.
         22    1    1    0    0    0 -0.26514478288E+02 -0.23027705505E+02  0.13623458892E+02  0.37668175054E+02  0.00000000000E+00 0. -1.
</event>
<event>
 5    1  0.1261138E-009  0.9118800E+02  0.7561462E-02  0.1125453E+00
         25   -1    0    0    0    0  0.00000000000E+00  0.00000000000E+00  0.99999998245E-14  0.12509000000E+03  0.12509000000E+03 0.  0.
        -13    1    3    3    0    0  0.20084035806E+02 -0.93760333689E+01 -0.28591712514E+02  0.36177004913E+02  0.10566000000E+00 0.  1.
         23    2    1    0    0    0 -0.31320746847E+02  0.14762453328E+01 -0.71007357190E+01  0.92940522072E+02  0.87202934079E+02 0.  0.
         13    1    3    3    0    0 -0.51404782653E+02  0.10852278702E+02  0.21490976795E+02  0.56763517159E+02  0.10566000000E+00 0. -1.
         22    1    1    0    0    0  0.31320746847E+02 -0.14762453328E+01  0.71007357190E+01  0.32149477928E+02  0.00000000000E+00 0. -1.
</event>
<event>
 5    1  0.1261138E-009  0.9118800E+02  0.7561462E-02  0.1125453E+00
         25   -1    0    0    0    0  0.00000000000E+00  0.00000000000E+00  0.99999998245E-14  0.12509000000E+03  0.12509000000E+03 0.  0.
        -13    1    3    3    0    0 -0.26187445749E+01 -0.14331739888E+02 -0.59952557100E+02  0.61697462332E+02  0.10566000000E+00 0. -1.
         23    2    1    0    0    0 -0.66729541862E+01 -0.17733044419E+01 -0.27630235451E+02  0.96610132773E+02  0.92316926493E+02 0.  0.
         13    1    3    3    0    0 -0.40542096113E+01  0.12558435446E+02  0.32322321650E+02  0.34912670440E+02  0.10566000000E+00 0.  1.
         22    1    1    0    0    0  0.66729541862E+01  0.17733044419E+01  0.27630235451E+02  0.28479867227E+02  0.00000000000E+00 0. -1.
</event>
<event>
 5    1  0.1261138E-009  0.9118800E+02  0.7561462E-02  0.1125453E+00
         25   -1    0    0    0    0  0.00000000000E+00  0.00000000000E+00  0.99999998245E-14  0.12509000000E+03  0.12509000000E+03 0.  0.
        -13    1    3    3    0    0  0.31131179517E+02 -0.33734709614E+02  0.20590707254E+02  0.50310728081E+02  0.10566000000E+00 0. -1.
         23    2    1    0    0    0  0.24739154990E+02 -0.35791089425E+01 -0.13834481653E+02  0.96520283638E+02  0.92195099981E+02 0.  0.
         13    1    3    3    0    0 -0.63920245271E+01  0.30155600672E+02 -0.34425188907E+02  0.46209555556E+02  0.10566000000E+00 0.  1.
         22    1    1    0    0    0 -0.24739154990E+02  0.35791089425E+01  0.13834481653E+02  0.28569716362E+02  0.00000000000E+00 0. -1.
</event>
<event>
 5    1  0.1261138E-009  0.9118800E+02  0.7561462E-02  0.1125453E+00
         25   -1    0    0    0    0  0.00000000000E+00  0.00000000000E+00  0.99999998245E-14  0.12509000000E+03  0.12509000000E+03 0.  0.
        -13    1    3    3    0    0  0.28906298909E+02  0.93086710768E+01  0.12090972954E+02  0.32686820965E+02  0.10566000000E+00 0.  1.
         23    2    1    0    0    0 -0.20512462171E+02 -0.38950739023E+01 -0.22467422929E+02  0.94418876804E+02  0.89298412634E+02 0.  0.
         13    1    3    3    0    0 -0.49418761079E+02 -0.13203744979E+02 -0.34558395883E+02  0.61732055839E+02  0.10566000000E+00 0. -1.
         22    1    1    0    0    0  0.20512462171E+02  0.38950739023E+01  0.22467422929E+02  0.30671123196E+02  0.00000000000E+00 0. -1.
</event>
<event>
 5    1  0.1261138E-009  0.9118800E+02  0.7561462E-02  0.1125453E+00
         25   -1    0    0    0    0  0.00000000000E+00  0.00000000000E+00  0.99999998245E-14  0.12509000000E+03  0.12509000000E+03 0.  0.
        -13    1    3    3    0    0  0.39284028294E+02  0.50509561567E+01  0.82102597670E+01  0.40449555827E+02  0.10566000000E+00 0.  1.
         23    2    1    0    0    0 -0.59770083997E+01  0.20521130122E+02 -0.19863222916E+02  0.95911428488E+02  0.91365272829E+02 0.  0.
         13    1    3    3    0    0 -0.45261036694E+02  0.15470173965E+02 -0.28073482683E+02  0.55461872661E+02  0.10566000000E+00 0. -1.
         22    1    1    0    0    0  0.59770083997E+01 -0.20521130122E+02  0.19863222916E+02  0.29178571512E+02  0.00000000000E+00 0. -1.
</event>
<event>
 5    1  0.1261138E-009  0.9118800E+02  0.7561462E-02  0.1125453E+00
         25   -1    0    0    0    0  0.00000000000E+00  0.00000000000E+00  0.99999998245E-14  0.12509000000E+03  0.12509000000E+03 0.  0.
        -13    1    3    3    0    0  0.39452744688E+02  0.30976499258E+02 -0.91781693740E+01  0.50993259621E+02  0.10566000000E+00 0. -1.
         23    2    1    0    0    0 -0.53444060588E+01  0.24738173554E+02  0.66664814409E+01  0.98917841478E+02  0.95392648988E+02 0.  0.
         13    1    3    3    0    0 -0.44797150747E+02 -0.62383257038E+01  0.15844650815E+02  0.47924581857E+02  0.10566000000E+00 0.  1.
         22    1    1    0    0    0  0.53444060588E+01 -0.24738173554E+02 -0.66664814409E+01  0.26172158522E+02  0.00000000000E+00 0.  1.
</event>
<event>
 5    1  0.1261138E-009  0.9118800E+02  0.7561462E-02  0.1125453E+00
         25   -1    0    0    0    0  0.00000000000E+00  0.00000000000E+00  0.99999998245E-14  0.12509000000E+03  0.12509000000E+03 0.  0.
        -13    1    3    3    0    0  0.31890681952E+02  0.33580938725E+02 -0.48292438400E+01  0.46562085446E+02  0.10566000000E+00 0.  1.
         23    2    1    0    0    0 -0.72401558757E+01  0.16117094346E+02 -0.25443136162E+02  0.94113657978E+02  0.88869830950E+02 0.  0.
         13    1    3    3    0    0 -0.39130837828E+02 -0.17463844378E+02 -0.20613892322E+02  0.47551572532E+02  0.10566000000E+00 0. -1.
         22    1    1    0    0    0  0.72401558757E+01 -0.16117094346E+02  0.25443136162E+02  0.30976342022E+02  0.00000000000E+00 0.  1.
</event>
<event>
 5    1  0.1261138E-009  0.9118800E+02  0.7561462E-02  0.1125453E+00
         25   -1    0    0    0    0  0.00000000000E+00  0.00000000000E+00  0.99999998245E-14  0.12509000000E+03  0.12509000000E+03 0.  0.
        -13    1    3    3    0    0  0.45607615402E+02 -0.12979065097E+02  0.20890197796E+02  0.51816235307E+02  0.10566000000E+00 0.  1.
         23    2    1    0    0    0  0.16230353094E+02 -0.20743720662E+02 -0.11607542821E+02  0.96306995314E+02  0.91905255495E+02 0.  0.
         13    1    3    3    0    0 -0.29377262308E+02 -0.77646555651E+01 -0.32497740617E+02  0.44490760007E+02  0.10566000000E+00 0. -1.
         22    1    1    0    0    0 -0.16230353094E+02  0.20743720662E+02  0.11607542821E+02  0.28783004686E+02  0.00000000000E+00 0.  1.
</event>
<event>
 5    1  0.1261138E-009  0.9118800E+02  0.7561462E-02  0.1125453E+00
         25   -1    0    0    0    0  0.00000000000E+00  0.00000000000E+00  0.99999998245E-14  0.12509000000E+03  0.12509000000E+03 0.  0.
        -13    1    3    3    0    0  0.96967945623E+01 -0.46117331039E+02  0.78342317074E+01  0.47772611373E+02  0.10566000000E+00 0.  1.
         23    2    1    0    0    0 -0.14625320759E+02 -0.12285362779E+02  0.25667098255E+02  0.93095780541E+02  0.87425364031E+02 0.  0.
         13    1    3    3    0    0 -0.24322115321E+02  0.33831968261E+02  0.17832866548E+02  0.45323169168E+02  0.10566000000E+00 0. -1.
         22    1    1    0    0    0  0.14625320759E+02  0.12285362779E+02 -0.25667098255E+02  0.31994219459E+02  0.00000000000E+00 0.  1.
</event>
<event>
 5    1  0.1261138E-009  0.9118800E+02  0.7561462E-02  0.1125453E+00
         25   -1    0    0    0    0  0.00000000000E+00  0.00000000000E+00  0.99999998245E-14  0.12509000000E+03  0.12509000000E+03 0.  0.
        -13    1    3    3    0    0  0.32629988124E+02  0.55679969194E+01  0.46081083471E+02  0.56737960243E+02  0.10566000000E+00 0.  1.
         23    2    1    0    0    0 -0.17731433267E+01  0.23926819202E+01  0.30166828084E+02  0.94776529716E+02  0.89798018377E+02 0.  0.
         13    1    3    3    0    0 -0.34403131450E+02 -0.31753149992E+01 -0.15914255388E+02  0.38038569473E+02  0.10566000000E+00 0. -1.
         22    1    1    0    0    0  0.17731433267E+01 -0.23926819202E+01 -0.30166828084E+02  0.30313470284E+02  0.00000000000E+00 0.  1.
</event>
<event>
 5    1  0.1261138E-009  0.9118800E+02  0.7561462E-02  0.1125453E+00
         25   -1    0    0    0    0  0.00000000000E+00  0.00000000000E+00  0.99999998245E-14  0.12509000000E+03  0.12509000000E+03 0.  0.
        -13    1    3    3    0    0  0.65383526953E+01  0.37788092863E+02  0.23005455095E+02  0.44720824527E+02  0.10566000000E+00 0. -1.
         23    2    1    0    0    0 -0.24829318639E+02  0.14083278584E+02 -0.87208259484E+01  0.95242276386E+02  0.90444483558E+02 0.  0.
         13    1    3    3    0    0 -0.31367671334E+02 -0.23704814280E+02 -0.31726281044E+02  0.50521451858E+02  0.10566000000E+00 0.  1.
         22    1    1    0    0    0  0.24829318639E+02 -0.14083278584E+02  0.87208259484E+01  0.29847723614E+02  0.00000000000E+00 0.  1.
</event>
<event>
 5    1  0.1261138E-009  0.9118800E+02  0.7561462E-02  0.1125453E+00
         25   -1    0    0    0    0  0.00000000000E+00  0.00000000000E+00  0.99999998245E-14  0.12509000000E+03  0.12509000000E+03 0.  0.
        -13    1    3    3    0    0 -0.49593904769E+02 -0.18230339311E+02 -0.20682095383E+02  0.56742055788E+02  0.10566000000E+00 0.  1.
         23    2    1    0    0    0 -0.26390854129E+02 -0.92883916062E+01  0.92195215018E+01  0.95632386773E+02  0.90982429199E+02 0.  0.
         13    1    3    3    0    0  0.23203050639E+02  0.89419477052E+01  0.29901616885E+02  0.38890330985E+02  0.10566000000E+00 0. -1.
         22    1    1    0    0    0  0.26390854129E+02  0.92883916062E+01 -0.92195215018E+01  0.29457613227E+02  0.00000000000E+00 0.  1.
</event>
<event>
 5    1  0.1261138E-009  0.9118800E+02  0.7561462E-02  0.1125453E+00
         25   -1    0    0    0    0  0.00000000000E+00  0.00000000000E+00  0.99999998245E-14  0.12509000000E+03  0.12509000000E+03 0.  0.
        -13    1    3    3    0    0  0.29385003705E+02 -0.41040155079E+02 -0.78570763953E+01  0.51083437484E+02  0.10566000000E+00 0. -1.
         23    2    1    0    0    0  0.20985787257E+02 -0.10873490109E+02  0.20855550756E+02  0.93568736522E+02  0.88099480151E+02 0.  0.
         13    1    3    3    0    0 -0.83992164482E+01  0.30166664970E+02  0.28712627151E+02  0.42485299038E+02  0.10566000000E+00 0.  1.
         22    1    1    0    0    0 -0.20985787257E+02  0.10873490109E+02 -0.20855550756E+02  0.31521263478E+02  0.00000000000E+00 0.  1.
</event>
<event>
 5    1  0.1261138E-009  0.9118800E+02  0.7561462E-02  0.1125453E+00
         25   -1    0    0    0    0  0.00000000000E+00  0.00000000000E+00  0.99999998245E-14  0.12509000000E+03  0.12509000000E+03 0.  0.
        -13    1    3    3    0    0 -0.25879462267E+02  0.26281300602E+02  0.23295077326E+02  0.43624822294E+02  0.10566000000E+00 0.  1.
         23    2    1    0    0    0 -0.38978305841E+01 -0.21976768322E+02 -0.25655735797E+01  0.10262327801E+03  0.10013382841E+03 0.  0.
         13    1    3    3    0    0  0.21981631683E+02 -0.48258068924E+02 -0.25860650905E+02  0.58998455717E+02  0.10566000000E+00 0. -1.
         22    1    1    0    0    0  0.38978305841E+01  0.21976768322E+02  0.25655735797E+01  0.22466721989E+02  0.00000000000E+00 0. -1.
</event>
<event>
 5    1  0.1261138E-009  0.9118800E+02  0.7561462E-02  0.1125453E+00
         25   -1    0    0    0    0  0.00000000000E+00  0.00000000000E+00  0.99999998245E-14  0.12509000000E+03  0.12509000000E+03 0.  0.
        -13    1    3    3    0    0  0.36517068516E+02  0.25944184461E+02  0.10341362391E+01  0.44807115530E+02  0.10566000000E+00 0. -1.
         23    2    1    0    0    0 -0.12955979517E+02  0.19018492659E+02 -0.15404393851E+02  0.97397838326E+02  0.93378172463E+02 0.  0.
         13    1    3    3    0    0 -0.49473048033E+02 -0.69256918021E+01 -0.16438530090E+02  0.52590722796E+02  0.10566000000E+00 0.  1.
         22    1    1    0    0    0  0.12955979517E+02 -0.19018492659E+02  0.15404393851E+02  0.27692161674E+02  0.00000000000E+00 0.  1.
</event>
<event>
 5    1  0.1261138E-009  0.9118800E+02  0.7561462E-02  0.1125453E+00
         25   -1    0    0    0    0  0.00000000000E+00  0.00000000000E+00  0.99999998245E-14  0.12509000000E+03  0.12509000000E+03 0.  0.
        -13    1    3    3    0    0 -0.80492796892E+01  0.39125155136E+02  0.58592075475E+01  0.40372145658E+02  0.10566000000E+00 0.  1.
         23    2    1    0    0    0 -0.10931230578E+02 -0.12322129280E+02  0.24839883873E+02  0.95284857780E+02  0.90503356950E+02 0.  0.
         13    1    3    3    0    0 -0.28819508886E+01 -0.51447284416E+02  0.18980676326E+02  0.54912712121E+02  0.10566000000E+00 0. -1.
         22    1    1    0    0    0  0.10931230578E+02  0.12322129280E+02 -0.24839883873E+02  0.29805142220E+02  0.00000000000E+00 0. -1.
</event>
<event>
 5    1  0.1261138E-009  0.9118800E+02  0.7561462E-02  0.1125453E+00
         25   -1    0    0    0    0  0.00000000000E+00  0.00000000000E+00  0.99999998245E-14  0.12509000000E+03  0.12509000000E+03 0.  0.
        -13    1    3    3    0    0 -0.54201619736E+01 -0.27158909683E+01 -0.61396440545E+02  0.61695123755E+02  0.10566000000E+00 0. -1.
         23    2    1    0    0    0  0.11980775682E+00  0.55147429469E+01 -0.28734061950E+02  0.95831273783E+02  0.91255465453E+02 0.  0.
         13    1    3    3    0    0  0.55399697304E+01  0.82306339152E+01  0.32662378595E+02  0.34136150028E+02  0.10566000000E+00 0.  1.
         22    1    1    0    0    0 -0.11980775682E+00 -0.55147429469E+01  0.28734061950E+02  0.29258726217E+02  0.00000000000E+00 0. -1.
</event>
<event>
 5    1  0.1261138E-009  0.9118800E+02  0.7561462E-02  0.1125453E+00
         25   -1    0    0    0    0  0.00000000000E+00  0.00000000000E+00  0.99999998245E-14  0.12509000000E+03  0.12509000000E+03 0.  0.
        -13    1    3    3    0    0 -0.22925046503E+02  0.18265080523E+02  0.33918972055E+02  0.44829440694E+02  0.10566000000E+00 0. -1.
         23    2    1    0    0    0 -0.83517520937E+01 -0.25370478121E+02  0.11421566662E+02  0.96040643585E+02  0.91542012825E+02 0.  0.
         13    1    3    3    0    0  0.14573294410E+02 -0.43635558644E+02 -0.22497405392E+02  0.51211202891E+02  0.10566000000E+00 0.  1.
         22    1    1    0    0    0  0.83517520937E+01  0.25370478121E+02 -0.11421566662E+02  0.29049356415E+02  0.00000000000E+00 0.  1.
</event>
<event>
 5    1  0.1261138E-009  0.9118800E+02  0.7561462E-02  0.1125453E+00
         25   -1    0    0    0    0  0.00000000000E+00  0.00000000000E+00  0.99999998245E-14  0.12509000000E+03  0.12509000000E+03 0.  0.
        -13    1    3    3    0    0  0.27077234756E+02  0.17390804998E+01 -0.31106772944E+02  0.41277639589E+02  0.10566000000E+00 0.  1.
         23    2    1    0    0    0  0.14102826874E+02 -0.17808169757E+02  0.18265789917E+02  0.95941076912E+02  0.91405856058E+02 0.  0.
         13    1    3    3    0    0 -0.12974407882E+02 -0.19547250257E+02  0.49372562861E+02  0.54663437323E+02  0.10566000000E+00 0. -1.
         22    1    1    0    0    0 -0.14102826874E+02  0.17808169757E+02 -0.18265789917E+02  0.29148923088E+02  0.00000000000E+00 0. -1.
</event>
<event>
 5    1  0.1261138E-009  0.9118800E+02  0.7561462E-02  0.1125453E+00
         25   -1    0    0    0    0  0.00000000000E+00  0.00000000000E+00  0.99999998245E-14  0.12509000000E+03  0.12509000000E+03 0.  0.
        -13    1    3    3    0    0 -0.26051298412E+02 -0.49340094436E+02 -0.89445336850E+00  0.55802565163E+02  0.10566000000E+00 0. -1.
         23    2    1    0    0    0  0.29085884250E+01 -0.25516581032E+02  0.13627990722E+02  0.96016336225E+02  0.91508791363E+02 0.  0.
         13    1    3    3    0    0  0.28959886838E+02  0.23823513404E+02  0.14522444091E+02  0.40213771061E+02  0.10566000000E+00 0.  1.
         22    1    1    0    0    0 -0.29085884250E+01  0.25516581032E+02 -0.13627990722E+02  0.29073663775E+02  0.00000000000E+00 0. -1.
</event>
<event>
 5    1  0.1261138E-009  0.9118800E+02  0.7561462E-02  0.1125453E+00
         25   -1    0    0    0    0  0.00000000000E+00  0.00000000000E+00  0.99999998245E-14  0.12509000000E+03  0.12509000000E+03 0.  0.
        -13    1    3    3    0    0  0.48960965753E+02 -0.16829475489E+02  0.33532664061E+02  0.61683532128E+02  0.10566000000E+00 0. -1.
         23    2    1    0    0    0  0.19160416446E+02 -0.10164173497E+02  0.21630660885E+02  0.94458031869E+02  0.89353244558E+02 0.  0.
         13    1    3    3    0    0 -0.29800549308E+02  0.66653019920E+01 -0.11902003176E+02  0.32774499742E+02  0.10566000000E+00 0.  1.
         22    1    1    0    0    0 -0.19160416446E+02  0.10164173497E+02 -0.21630660885E+02  0.30631968131E+02  0.00000000000E+00 0. -1.
</event>
<event>
 5    1  0.1261138E-009  0.9118800E+02  0.7561462E-02  0.1125453E+00
         25   -1    0    0    0    0  0.00000000000E+00  0.00000000000E+00  0.99999998245E-14  0.12509000000E+03  0.12509000000E+03 0.  0.
        -13    1    3    3    0    0 -0.75833898168E+01  0.34056768996E+02  0.35108402792E+01  0.35067199476E+02  0.10566000000E+00 0.  1.
         23    2    1    0    0    0 -0.31923130840E+02  0.73747048757E+01  0.30635333544E+02  0.80234719196E+02  0.66525288038E+02 0.  0.
         13    1    3    3    0    0 -0.24339741023E+02 -0.26682064121E+02  0.27124493265E+02  0.45167519721E+02  0.10566000000E+00 0. -1.
         22    1    1    0    0    0  0.31923130840E+02 -0.73747048757E+01 -0.30635333544E+02  0.44855280804E+02  0.00000000000E+00 0. -1.
</event>
<event>
 5    1  0.1261138E-009  0.9118800E+02  0.7561462E-02  0.1125453E+00
         25   -1    0    0    0    0  0.00000000000E+00  0.00000000000E+00  0.99999998245E-14  0.12509000000E+03  0.12509000000E+03 0.  0.
        -13    1    3    3    0    0 -0.16299489422E+02 -0.39735042162E+02  0.57806007324E+01  0.43335590915E+02  0.10566000000E+00 0. -1.
         23    2    1    0    0    0 -0.25614131527E+02  0.12119877699E+02 -0.23992934019E+01  0.96651790174E+02  0.92373355280E+02 0.  0.
         13    1    3    3    0    0 -0.93146421042E+01  0.51854919861E+02 -0.81798941343E+01  0.53316199259E+02  0.10566000000E+00 0.  1.
         22    1    1    0    0    0  0.25614131527E+02 -0.12119877699E+02  0.23992934019E+01  0.28438209826E+02  0.00000000000E+00 0.  1.
</event>
<event>
 5    1  0.1261138E-009  0.9118800E+02  0.7561462E-02  0.1125453E+00
         25   -1    0    0    0    0  0.00000000000E+00  0.00000000000E+00  0.99999998245E-14  0.12509000000E+03  0.12509000000E+03 0.  0.
        -13    1    3    3    0    0  0.39647855369E+02 -0.27165660892E+02  0.10675686492E+01  0.48073656340E+02  0.10566000000E+00 0. -1.
         23    2    1    0    0    0  0.24869941603E+02  0.17184154308E+02  0.15108145044E+01  0.94822992961E+02  0.89862719072E+02 0.  0.
         13    1    3    3    0    0 -0.14777913766E+02  0.44349815200E+02  0.44324585520E+00  0.46749336621E+02  0.10566000000E+00 0.  1.
         22    1    1    0    0    0 -0.24869941603E+02 -0.17184154308E+02 -0.15108145044E+01  0.30267007039E+02  0.00000000000E+00 0. -1.
</event>
<event>
 5    1  0.1261138E-009  0.9118800E+02  0.7561462E-02  0.1125453E+00
         25   -1    0    0    0    0  0.00000000000E+00  0.00000000000E+00  0.99999998245E-14  0.12509000000E+03  0.12509000000E+03 0.  0.
        -13    1    3    3    0    0 -0.26825985639E+02 -0.67339174967E+01 -0.98703347462E+01  0.29366883089E+02  0.10566000000E+00 0.  1.
         23    2    1    0    0    0  0.26499068001E+02 -0.38296561536E+01  0.21009944099E+02  0.91056419198E+02  0.84457011875E+02 0.  0.
         13    1    3    3    0    0  0.53325053640E+02  0.29042613431E+01  0.30880278845E+02  0.61689536108E+02  0.10566000000E+00 0. -1.
         22    1    1    0    0    0 -0.26499068001E+02  0.38296561536E+01 -0.21009944099E+02  0.34033580802E+02  0.00000000000E+00 0. -1.
</event>
<event>
 5    1  0.1261138E-009  0.9118800E+02  0.7561462E-02  0.1125453E+00
         25   -1    0    0    0    0  0.00000000000E+00  0.00000000000E+00  0.99999998245E-14  0.12509000000E+03  0.12509000000E+03 0.  0.
        -13    1    3    3    0    0 -0.17250497876E+02  0.31133305045E+02 -0.40316934051E+01  0.35820777152E+02  0.10566000000E+00 0. -1.
         23    2    1    0    0    0  0.20402665113E+02 -0.52641673559E+01  0.22276605797E+02  0.94426872835E+02  0.89309612842E+02 0.  0.
         13    1    3    3    0    0  0.37653162989E+02 -0.36397472401E+02  0.26308299202E+02  0.58606095683E+02  0.10566000000E+00 0.  1.
         22    1    1    0    0    0 -0.20402665113E+02  0.52641673559E+01 -0.22276605797E+02  0.30663127165E+02  0.00000000000E+00 0.  1.
</event>
<event>
 5    1  0.1261138E-009  0.9118800E+02  0.7561462E-02  0.1125453E+00
         25   -1    0    0    0    0  0.00000000000E+00  0.00000000000E+00  0.99999998245E-14  0.12509000000E+03  0.12509000000E+03 0.  0.
        -13    1    3    3    0    0 -0.29690778699E+02  0.41373240650E+02  0.19496481599E+02  0.54528995410E+02  0.10566000000E+00 0.  1.
         23    2    1    0    0    0 -0.20934310658E+02  0.18094171892E+02 -0.12225826758E+02  0.94839127961E+02  0.89885176382E+02 0.  0.
         13    1    3    3    0    0  0.87564680402E+01 -0.23279068757E+02 -0.31722308357E+02  0.40310132551E+02  0.10566000000E+00 0. -1.
         22    1    1    0    0    0  0.20934310658E+02 -0.18094171892E+02  0.12225826758E+02  0.30250872039E+02  0.00000000000E+00 0.  1.
</event>
<event>
 5    1  0.1261138E-009  0.9118800E+02  0.7561462E-02  0.1125453E+00
         25   -1    0    0    0    0  0.00000000000E+00  0.00000000000E+00  0.99999998245E-14  0.12509000000E+03  0.12509000000E+03 0.  0.
        -13    1    3    3    0    0  0.20415364450E+02 -0.13648465415E+02 -0.53730552197E+02  0.59076654587E+02  0.10566000000E+00 0.  1.
         23    2    1    0    0    0 -0.46346670548E+01 -0.11193082870E+02 -0.25239935556E+02  0.97093221797E+02  0.92969210652E+02 0.  0.
         13    1    3    3    0    0 -0.25050031504E+02  0.24553825446E+01  0.28490616641E+02  0.38016567210E+02  0.10566000000E+00 0. -1.
         22    1    1    0    0    0  0.46346670548E+01  0.11193082870E+02  0.25239935556E+02  0.27996778203E+02  0.00000000000E+00 0.  1.
</event>
<event>
 5    1  0.1261138E-009  0.9118800E+02  0.7561462E-02  0.1125453E+00
         25   -1    0    0    0    0  0.00000000000E+00  0.00000000000E+00  0.99999998245E-14  0.12509000000E+03  0.12509000000E+03 0.  0.
        -13    1    3    3    0    0 -0.33924786258E+02 -0.60086365673E+01 -0.16294086412E+02  0.38111720665E+02  0.10566000000E+00 0.  1.
         23    2    1    0    0    0  0.10969129581E+02 -0.18197645336E+02  0.19064082480E+02  0.96543277940E+02  0.92226293296E+02 0.  0.
         13    1    3    3    0    0  0.44893915839E+02 -0.12189008769E+02  0.35358168892E+02  0.58431557275E+02  0.10566000000E+00 0. -1.
         22    1    1    0    0    0 -0.10969129581E+02  0.18197645336E+02 -0.19064082480E+02  0.28546722060E+02  0.00000000000E+00 0. -1.
</event>
<event>
 5    1  0.1261138E-009  0.9118800E+02  0.7561462E-02  0.1125453E+00
         25   -1    0    0    0    0  0.00000000000E+00  0.00000000000E+00  0.99999998245E-14  0.12509000000E+03  0.12509000000E+03 0.  0.
        -13    1    3    3    0    0  0.17153522609E+01  0.18457457807E+02  0.34745737203E+02  0.39381437250E+02  0.10566000000E+00 0.  1.
         23    2    1    0    0    0  0.23408273642E+02 -0.10634504201E+02 -0.10444241614E+02  0.97338925473E+02  0.93299219047E+02 0.  0.
         13    1    3    3    0    0  0.21692921381E+02 -0.29091962008E+02 -0.45189978817E+02  0.57957488223E+02  0.10566000000E+00 0. -1.
         22    1    1    0    0    0 -0.23408273642E+02  0.10634504201E+02  0.10444241614E+02  0.27751074527E+02  0.00000000000E+00 0. -1.
</event>
<event>
 5    1  0.1261138E-009  0.9118800E+02  0.7561462E-02  0.1125453E+00
         25   -1    0    0    0    0  0.00000000000E+00  0.00000000000E+00  0.99999998245E-14  0.12509000000E+03  0.12509000000E+03 0.  0.
        -13    1    3    3    0    0 -0.18915147002E+02 -0.34914873560E+02 -0.22593246607E+02  0.45686947131E+02  0.10566000000E+00 0.  1.
         23    2    1    0    0    0  0.10767518472E+02  0.62462980615E+01 -0.25704665817E+02  0.96529790998E+02  0.92207998632E+02 0.  0.
         13    1    3    3    0    0  0.29682665474E+02  0.41161171622E+02 -0.31114192093E+01  0.50842843867E+02  0.10566000000E+00 0. -1.
         22    1    1    0    0    0 -0.10767518472E+02 -0.62462980615E+01  0.25704665817E+02  0.28560209002E+02  0.00000000000E+00 0. -1.
</event>
<event>
 5    1  0.1261138E-009  0.9118800E+02  0.7561462E-02  0.1125453E+00
         25   -1    0    0    0    0  0.00000000000E+00  0.00000000000E+00  0.99999998245E-14  0.12509000000E+03  0.12509000000E+03 0.  0.
        -13    1    3    3    0    0  0.29149414951E+02  0.14570456775E+02 -0.44493581188E+02  0.55151396479E+02  0.10566000000E+00 0.  1.
         23    2    1    0    0    0  0.19023528500E+02  0.20609862483E+02 -0.47044601034E+01  0.96650713563E+02  0.92371897346E+02 0.  0.
         13    1    3    3    0    0 -0.10125886451E+02  0.60394057077E+01  0.39789121085E+02  0.41499317084E+02  0.10566000000E+00 0. -1.
         22    1    1    0    0    0 -0.19023528500E+02 -0.20609862483E+02  0.47044601034E+01  0.28439286437E+02  0.00000000000E+00 0.  1.
</event>
<event>
 5    1  0.1261138E-009  0.9118800E+02  0.7561462E-02  0.1125453E+00
         25   -1    0    0    0    0  0.00000000000E+00  0.00000000000E+00  0.99999998245E-14  0.12509000000E+03  0.12509000000E+03 0.  0.
        -13    1    3    3    0    0  0.23938275423E+02  0.34922877126E+02 -0.37138543298E+02  0.56319898254E+02  0.10566000000E+00 0. -1.
         23    2    1    0    0    0 -0.63348755444E+01  0.12679698901E+02 -0.25957165571E+02  0.95515012987E+02  0.90820910858E+02 0.  0.
         13    1    3    3    0    0 -0.30273150967E+02 -0.22243178225E+02  0.11181377727E+02  0.39195114733E+02  0.10566000000E+00 0.  1.
         22    1    1    0    0    0  0.63348755444E+01 -0.12679698901E+02  0.25957165571E+02  0.29574987013E+02  0.00000000000E+00 0. -1.
</event>
<event>
 5    1  0.1261138E-009  0.9118800E+02  0.7561462E-02  0.1125453E+00
         25   -1    0    0    0    0  0.00000000000E+00  0.00000000000E+00  0.99999998245E-14  0.12509000000E+03  0.12509000000E+03 0.  0.
        -13    1    3    3    0    0 -0.22540976590E+02 -0.14768001870E+02  0.25653302467E+02  0.37206082787E+02  0.10566000000E+00 0.  1.
         23    2    1    0    0    0  0.28623469942E+02 -0.88913272670E+01 -0.80636132648E+00  0.95106522038E+02  0.90256532082E+02 0.  0.
         13    1    3    3    0    0  0.51164446533E+02  0.58766746027E+01 -0.26459663793E+02  0.57900439251E+02  0.10566000000E+00 0. -1.
         22    1    1    0    0    0 -0.28623469942E+02  0.88913272670E+01  0.80636132648E+00  0.29983477962E+02  0.00000000000E+00 0. -1.
</event>
<event>
 5    1  0.1261138E-009  0.9118800E+02  0.7561462E-02  0.1125453E+00
         25   -1    0    0    0    0  0.00000000000E+00  0.00000000000E+00  0.99999998245E-14  0.12509000000E+03  0.12509000000E+03 0.  0.
        -13    1    3    3    0    0  0.68349928984E+01 -0.23598603052E+02  0.31457528313E+02  0.39914890023E+02  0.10566000000E+00 0.  1.
         23    2    1    0    0    0 -0.16798441439E+02 -0.79823131911E+01 -0.19453758259E+02  0.98176180705E+02  0.94415087718E+02 0.  0.
         13    1    3    3    0    0 -0.23633434337E+02  0.15616289861E+02 -0.50911286572E+02  0.58261290683E+02  0.10566000000E+00 0. -1.
         22    1    1    0    0    0  0.16798441439E+02  0.79823131911E+01  0.19453758259E+02  0.26913819295E+02  0.00000000000E+00 0. -1.
</event>
<event>
 5    1  0.1261138E-009  0.9118800E+02  0.7561462E-02  0.1125453E+00
         25   -1    0    0    0    0  0.00000000000E+00  0.00000000000E+00  0.99999998245E-14  0.12509000000E+03  0.12509000000E+03 0.  0.
        -13    1    3    3    0    0 -0.36610115568E+02 -0.26659514441E+02 -0.14405996967E+02  0.47524458806E+02  0.10566000000E+00 0. -1.
         23    2    1    0    0    0 -0.21719591299E+02  0.17760874746E+01  0.20658467426E+02  0.95062222704E+02  0.90195115035E+02 0.  0.
         13    1    3    3    0    0  0.14890524269E+02  0.28435601915E+02  0.35064464393E+02  0.47537763899E+02  0.10566000000E+00 0.  1.
         22    1    1    0    0    0  0.21719591299E+02 -0.17760874746E+01 -0.20658467426E+02  0.30027777296E+02  0.00000000000E+00 0.  1.
</event>
<event>
 5    1  0.1261138E-009  0.9118800E+02  0.7561462E-02  0.1125453E+00
         25   -1    0    0    0    0  0.00000000000E+00  0.00000000000E+00  0.99999998245E-14  0.12509000000E+03  0.12509000000E+03 0.  0.
        -13    1    3    3    0    0 -0.23919104848E+02 -0.18135496266E+02  0.53333590968E+02  0.61200513814E+02  0.10566000000E+00 0. -1.
         23    2    1    0    0    0 -0.62906288109E+01 -0.16118398564E+02  0.23586117767E+02  0.95837996061E+02  0.91264679666E+02 0.  0.
         13    1    3    3    0    0  0.17628476038E+02  0.20170977028E+01 -0.29747473201E+02  0.34637482247E+02  0.10566000000E+00 0.  1.
         22    1    1    0    0    0  0.62906288109E+01  0.16118398564E+02 -0.23586117767E+02  0.29252003939E+02  0.00000000000E+00 0. -1.
</event>
<event>
 5    1  0.1261138E-009  0.9118800E+02  0.7561462E-02  0.1125453E+00
         25   -1    0    0    0    0  0.00000000000E+00  0.00000000000E+00  0.99999998245E-14  0.12509000000E+03  0.12509000000E+03 0.  0.
        -13    1    3    3    0    0 -0.31945351952E+02 -0.20770087965E+02  0.20403489566E+02  0.43222859877E+02  0.10566000000E+00 0. -1.
         23    2    1    0    0    0 -0.31669935852E+01  0.23268406769E+02  0.17300610500E+02  0.95922214249E+02  0.91380038635E+02 0.  0.
         13    1    3    3    0    0  0.28778358367E+02  0.44038494734E+02 -0.31028790654E+01  0.52699354372E+02  0.10566000000E+00 0.  1.
         22    1    1    0    0    0  0.31669935852E+01 -0.23268406769E+02 -0.17300610500E+02  0.29167785751E+02  0.00000000000E+00 0.  1.
</event>
<event>
 5    1  0.1261138E-009  0.9118800E+02  0.7561462E-02  0.1125453E+00
         25   -1    0    0    0    0  0.00000000000E+00  0.00000000000E+00  0.99999998245E-14  0.12509000000E+03  0.12509000000E+03 0.  0.
        -13    1    3    3    0    0 -0.29306415549E+02 -0.23074147825E+02 -0.12080652693E+02  0.39207596505E+02  0.10566000000E+00 0. -1.
         23    2    1    0    0    0  0.45387487963E+01 -0.10699844308E+02  0.28996085925E+02  0.93851243497E+02  0.88499694904E+02 0.  0.
         13    1    3    3    0    0  0.33845164345E+02  0.12374303517E+02  0.41076738619E+02  0.54643646992E+02  0.10566000000E+00 0.  1.
         22    1    1    0    0    0 -0.45387487963E+01  0.10699844308E+02 -0.28996085925E+02  0.31238756503E+02  0.00000000000E+00 0.  1.
</event>
<event>
 5    1  0.1261138E-009  0.9118800E+02  0.7561462E-02  0.1125453E+00
         25   -1    0    0    0    0  0.00000000000E+00  0.00000000000E+00  0.99999998245E-14  0.12509000000E+03  0.12509000000E+03 0.  0.
        -13    1    3    3    0    0  0.14939675558E+02  0.33921208087E+02 -0.19134234596E+02  0.41712975936E+02  0.10566000000E+00 0.  1.
         23    2    1    0    0    0  0.91697663832E+00  0.37858542357E+01  0.26575835042E+02  0.98230205760E+02  0.94486638087E+02 0.  0.
         13    1    3    3    0    0 -0.14022698920E+02 -0.30135353851E+02  0.45710069637E+02  0.56517229824E+02  0.10566000000E+00 0. -1.
         22    1    1    0    0    0 -0.91697663832E+00 -0.37858542357E+01 -0.26575835042E+02  0.26859794240E+02  0.00000000000E+00 0. -1.
</event>
<event>
 5    1  0.1261138E-009  0.9118800E+02  0.7561462E-02  0.1125453E+00
         25   -1    0    0    0    0  0.00000000000E+00  0.00000000000E+00  0.99999998245E-14  0.12509000000E+03  0.12509000000E+03 0.  0.
        -13    1    3    3    0    0 -0.35787121054E+02  0.32518144063E+01 -0.44439624058E+02  0.57150535262E+02  0.10566000000E+00 0.  1.
         23    2    1    0    0    0 -0.26675628642E+02 -0.11105046077E+01 -0.49190620904E+01  0.97941895909E+02  0.94104173225E+02 0.  0.
         13    1    3    3    0    0  0.91114924127E+01 -0.43623190141E+01  0.39520561967E+02  0.40791360647E+02  0.10566000000E+00 0. -1.
         22    1    1    0    0    0  0.26675628642E+02  0.11105046077E+01  0.49190620904E+01  0.27148104091E+02  0.00000000000E+00 0.  1.
</event>
<event>
 5    1  0.1261138E-009  0.9118800E+02  0.7561462E-02  0.1125453E+00
         25   -1    0    0    0    0  0.00000000000E+00  0.00000000000E+00  0.99999998245E-14  0.12509000000E+03  0.12509000000E+03 0.  0.
        -13    1    3    3    0    0 -0.15950101415E+02  0.93775968771E+00  0.36209667966E+02  0.39578230716E+02  0.10566000000E+00 0. -1.
         23    2    1    0    0    0  0.39904138515E+01 -0.29156125129E+02 -0.59334613342E+01  0.95069856785E+02  0.90205701984E+02 0.  0.
         13    1    3    3    0    0  0.19940515266E+02 -0.30093884817E+02 -0.42143129301E+02  0.55491626069E+02  0.10566000000E+00 0.  1.
         22    1    1    0    0    0 -0.39904138515E+01  0.29156125129E+02  0.59334613342E+01  0.30020143215E+02  0.00000000000E+00 0.  1.
</event>
<event>
 5    1  0.1261138E-009  0.9118800E+02  0.7561462E-02  0.1125453E+00
         25   -1    0    0    0    0  0.00000000000E+00  0.00000000000E+00  0.99999998245E-14  0.12509000000E+03  0.12509000000E+03 0.  0.
        -13    1    3    3    0    0  0.24204957370E+02  0.94052960224E+01  0.22491511599E+02  0.34354312867E+02  0.10566000000E+00 0. -1.
         23    2    1    0    0    0 -0.28670410296E+02 -0.89054340803E+01 -0.10239498232E+01  0.95050897884E+02  0.90179407475E+02 0.  0.
         13    1    3    3    0    0 -0.52875367666E+02 -0.18310730103E+02 -0.23515461422E+02  0.60696585016E+02  0.10566000000E+00 0.  1.
         22    1    1    0    0    0  0.28670410296E+02  0.89054340803E+01  0.10239498232E+01  0.30039102116E+02  0.00000000000E+00 0.  1.
</event>
<event>
 5    1  0.1261138E-009  0.9118800E+02  0.7561462E-02  0.1125453E+00
         25   -1    0    0    0    0  0.00000000000E+00  0.00000000000E+00  0.99999998245E-14  0.12509000000E+03  0.12509000000E+03 0.  0.
        -13    1    3    3    0    0  0.28893846359E+01  0.19853828922E+02 -0.78842474089E+01  0.21556799106E+02  0.10566000000E+00 0.  1.
         23    2    1    0    0    0  0.18563231742E+02 -0.33456446275E+02 -0.24623408991E+02  0.79590113842E+02  0.65301964603E+02 0.  0.
         13    1    3    3    0    0  0.15673847106E+02 -0.53310275198E+02 -0.16739161582E+02  0.58033314736E+02  0.10566000000E+00 0. -1.
         22    1    1    0    0    0 -0.18563231742E+02  0.33456446275E+02  0.24623408991E+02  0.45499886158E+02  0.00000000000E+00 0. -1.
</event>
<event>
 5    1  0.1261138E-009  0.9118800E+02  0.7561462E-02  0.1125453E+00
         25   -1    0    0    0    0  0.00000000000E+00  0.00000000000E+00  0.99999998245E-14  0.12509000000E+03  0.12509000000E+03 0.  0.
        -13    1    3    3    0    0  0.68621712718E+01 -0.33350738330E+02 -0.14402083203E+02  0.36970154264E+02  0.10566000000E+00 0. -1.
         23    2    1    0    0    0 -0.16183630889E+02  0.69903269977E+01  0.22644744959E+02  0.96392281371E+02  0.92021263050E+02 0.  0.
         13    1    3    3    0    0 -0.23045802161E+02  0.40341065328E+02  0.37046828162E+02  0.59422127106E+02  0.10566000000E+00 0.  1.
         22    1    1    0    0    0  0.16183630889E+02 -0.69903269977E+01 -0.22644744959E+02  0.28697718629E+02  0.00000000000E+00 0.  1.
</event>
<event>
 5    1  0.1261138E-009  0.9118800E+02  0.7561462E-02  0.1125453E+00
         25   -1    0    0    0    0  0.00000000000E+00  0.00000000000E+00  0.99999998245E-14  0.12509000000E+03  0.12509000000E+03 0.  0.
        -13    1    3    3    0    0 -0.13198604278E+02 -0.32143617047E+02 -0.96422342946E+01  0.36061047100E+02  0.10566000000E+00 0.  1.
         23    2    1    0    0    0 -0.10385463729E+01  0.13400469083E+02  0.26443284410E+02  0.95426917884E+02  0.90699494024E+02 0.  0.
         13    1    3    3    0    0  0.12160057905E+02  0.45544086130E+02  0.36085518705E+02  0.59365870784E+02  0.10566000000E+00 0. -1.
         22    1    1    0    0    0  0.10385463729E+01 -0.13400469083E+02 -0.26443284410E+02  0.29663082116E+02  0.00000000000E+00 0. -1.
</event>
<event>
 5    1  0.1261138E-009  0.9118800E+02  0.7561462E-02  0.1125453E+00
         25   -1    0    0    0    0  0.00000000000E+00  0.00000000000E+00  0.99999998245E-14  0.12509000000E+03  0.12509000000E+03 0.  0.
        -13    1    3    3    0    0  0.49749896644E+02 -0.25599967469E+02  0.22921887132E+02  0.60463498280E+02  0.10566000000E+00 0.  1.
         23    2    1    0    0    0  0.30362207694E+02 -0.28728260782E+01  0.10216486879E+02  0.92926458685E+02  0.87182758238E+02 0.  0.
         13    1    3    3    0    0 -0.19387688950E+02  0.22727141391E+02 -0.12705400252E+02  0.32462960405E+02  0.10566000000E+00 0. -1.
         22    1    1    0    0    0 -0.30362207694E+02  0.28728260782E+01 -0.10216486879E+02  0.32163541315E+02  0.00000000000E+00 0.  1.
</event>
<event>
 5    1  0.1261138E-009  0.9118800E+02  0.7561462E-02  0.1125453E+00
         25   -1    0    0    0    0  0.00000000000E+00  0.00000000000E+00  0.99999998245E-14  0.12509000000E+03  0.12509000000E+03 0.  0.
        -13    1    3    3    0    0  0.27707879056E+02 -0.30822572185E+02 -0.14599675462E+01  0.41471679338E+02  0.10566000000E+00 0.  1.
         23    2    1    0    0    0 -0.24251596053E+02 -0.16650295657E+02 -0.40699444764E+01  0.95392580843E+02  0.90652125045E+02 0.  0.
         13    1    3    3    0    0 -0.51959475108E+02  0.14172276527E+02 -0.26099769302E+01  0.53920901505E+02  0.10566000000E+00 0. -1.
         22    1    1    0    0    0  0.24251596053E+02  0.16650295657E+02  0.40699444764E+01  0.29697419157E+02  0.00000000000E+00 0. -1.
</event>
<event>
 5    1  0.1261138E-009  0.9118800E+02  0.7561462E-02  0.1125453E+00
         25   -1    0    0    0    0  0.00000000000E+00  0.00000000000E+00  0.99999998245E-14  0.12509000000E+03  0.12509000000E+03 0.  0.
        -13    1    3    3    0    0 -0.87549219360E+01  0.12802684837E+02 -0.31774234583E+02  0.35357750841E+02  0.10566000000E+00 0.  1.
         23    2    1    0    0    0  0.11730038082E+02 -0.18407798539E+02  0.17454868122E+02  0.97141596438E+02  0.93034275925E+02 0.  0.
         13    1    3    3    0    0  0.20484960018E+02 -0.31210483377E+02  0.49229102706E+02  0.61783845597E+02  0.10566000000E+00 0. -1.
         22    1    1    0    0    0 -0.11730038082E+02  0.18407798539E+02 -0.17454868122E+02  0.27948403562E+02  0.00000000000E+00 0. -1.
</event>
<event>
 5    1  0.1261138E-009  0.9118800E+02  0.7561462E-02  0.1125453E+00
         25   -1    0    0    0    0  0.00000000000E+00  0.00000000000E+00  0.99999998245E-14  0.12509000000E+03  0.12509000000E+03 0.  0.
        -13    1    3    3    0    0 -0.25061830016E+02 -0.47289501958E+02  0.15224277331E+01  0.53541771258E+02  0.10566000000E+00 0. -1.
         23    2    1    0    0    0  0.12750769003E+02 -0.23836055980E+02  0.20279968032E+00  0.98057042290E+02  0.94257109758E+02 0.  0.
         13    1    3    3    0    0  0.37812599019E+02  0.23453445978E+02 -0.13196280528E+01  0.44515271032E+02  0.10566000000E+00 0.  1.
         22    1    1    0    0    0 -0.12750769003E+02  0.23836055980E+02 -0.20279968032E+00  0.27032957710E+02  0.00000000000E+00 0. -1.
</event>
<event>
 5    1  0.1261138E-009  0.9118800E+02  0.7561462E-02  0.1125453E+00
         25   -1    0    0    0    0  0.00000000000E+00  0.00000000000E+00  0.99999998245E-14  0.12509000000E+03  0.12509000000E+03 0.  0.
        -13    1    3    3    0    0  0.10585891781E+02 -0.15120960336E+02  0.14912758933E+02  0.23729856496E+02  0.10566000000E+00 0. -1.
         23    2    1    0    0    0  0.53173432350E+01 -0.18478146306E+02 -0.40902329582E+02  0.79893577628E+02  0.65880703936E+02 0.  0.
         13    1    3    3    0    0 -0.52685485460E+01 -0.33571859700E+01 -0.55815088515E+02  0.56163721132E+02  0.10566000000E+00 0.  1.
         22    1    1    0    0    0 -0.53173432350E+01  0.18478146306E+02  0.40902329582E+02  0.45196422372E+02  0.00000000000E+00 0.  1.
</event>
<event>
 5    1  0.1261138E-009  0.9118800E+02  0.7561462E-02  0.1125453E+00
         25   -1    0    0    0    0  0.00000000000E+00  0.00000000000E+00  0.99999998245E-14  0.12509000000E+03  0.12509000000E+03 0.  0.
        -13    1    3    3    0    0 -0.11965611796E+02  0.25118802696E+02  0.42058579614E+02  0.50428815153E+02  0.10566000000E+00 0.  1.
         23    2    1    0    0    0 -0.21285336548E+02 -0.72012554319E+01  0.32825567277E+02  0.85310086742E+02  0.75467671231E+02 0.  0.
         13    1    3    3    0    0 -0.93197247515E+01 -0.32320058128E+02 -0.92330123363E+01  0.34881271589E+02  0.10566000000E+00 0. -1.
         22    1    1    0    0    0  0.21285336548E+02  0.72012554319E+01 -0.32825567277E+02  0.39779913258E+02  0.00000000000E+00 0.  1.
</event>
<event>
 5    1  0.1261138E-009  0.9118800E+02  0.7561462E-02  0.1125453E+00
         25   -1    0    0    0    0  0.00000000000E+00  0.00000000000E+00  0.99999998245E-14  0.12509000000E+03  0.12509000000E+03 0.  0.
        -13    1    3    3    0    0 -0.10709614893E+02 -0.72051028810E+01  0.50142120951E+02  0.51776952558E+02  0.10566000000E+00 0.  1.
         23    2    1    0    0    0  0.68793561014E+01  0.19831087326E+02  0.16426559812E+02  0.98436117878E+02  0.94758851147E+02 0.  0.
         13    1    3    3    0    0  0.17588970995E+02  0.27036190207E+02 -0.33715561138E+02  0.46659165321E+02  0.10566000000E+00 0. -1.
         22    1    1    0    0    0 -0.68793561014E+01 -0.19831087326E+02 -0.16426559812E+02  0.26653882122E+02  0.00000000000E+00 0.  1.
</event>
<event>
 5    1  0.1261138E-009  0.9118800E+02  0.7561462E-02  0.1125453E+00
         25   -1    0    0    0    0  0.00000000000E+00  0.00000000000E+00  0.99999998245E-14  0.12509000000E+03  0.12509000000E+03 0.  0.
        -13    1    3    3    0    0  0.21244199665E+02  0.23837834700E+02 -0.85729680627E+01  0.33061538501E+02  0.10566000000E+00 0. -1.
         23    2    1    0    0    0 -0.13915977332E+02 -0.25545086467E+02  0.59501731608E+01  0.95398074694E+02  0.90659705642E+02 0.  0.
         13    1    3    3    0    0 -0.35160176998E+02 -0.49382921167E+02  0.14523141224E+02  0.62336536193E+02  0.10566000000E+00 0.  1.
         22    1    1    0    0    0  0.13915977332E+02  0.25545086467E+02 -0.59501731608E+01  0.29691925306E+02  0.00000000000E+00 0.  1.
</event>
<event>
 5    1  0.1261138E-009  0.9118800E+02  0.7561462E-02  0.1125453E+00
         25   -1    0    0    0    0  0.00000000000E+00  0.00000000000E+00  0.99999998245E-14  0.12509000000E+03  0.12509000000E+03 0.  0.
        -13    1    3    3    0    0 -0.37886778065E+02 -0.49175335341E+01 -0.18304189196E+02  0.42363245796E+02  0.10566000000E+00 0.  1.
         23    2    1    0    0    0  0.94692115618E+01  0.19833754968E+02 -0.19349513965E+02  0.95807795602E+02  0.91223276655E+02 0.  0.
         13    1    3    3    0    0  0.47355989627E+02  0.24751288502E+02 -0.10453247687E+01  0.53444549806E+02  0.10566000000E+00 0. -1.
         22    1    1    0    0    0 -0.94692115618E+01 -0.19833754968E+02  0.19349513965E+02  0.29282204398E+02  0.00000000000E+00 0. -1.
</event>
<event>
 5    1  0.1261138E-009  0.9118800E+02  0.7561462E-02  0.1125453E+00
         25   -1    0    0    0    0  0.00000000000E+00  0.00000000000E+00  0.99999998245E-14  0.12509000000E+03  0.12509000000E+03 0.  0.
        -13    1    3    3    0    0  0.12141125238E+02 -0.49974030633E+02 -0.18489383221E+02  0.54650517982E+02  0.10566000000E+00 0.  1.
         23    2    1    0    0    0  0.20387855187E+02 -0.28735202281E+02  0.73480491539E+01  0.89098746679E+02  0.81505928276E+02 0.  0.
         13    1    3    3    0    0  0.82467299494E+01  0.21238828352E+02  0.25837432375E+02  0.34448228697E+02  0.10566000000E+00 0. -1.
         22    1    1    0    0    0 -0.20387855187E+02  0.28735202281E+02 -0.73480491539E+01  0.35991253321E+02  0.00000000000E+00 0.  1.
</event>
<event>
 5    1  0.1261138E-009  0.9118800E+02  0.7561462E-02  0.1125453E+00
         25   -1    0    0    0    0  0.00000000000E+00  0.00000000000E+00  0.99999998245E-14  0.12509000000E+03  0.12509000000E+03 0.  0.
        -13    1    3    3    0    0  0.21782150930E+02  0.56155802982E+02 -0.71866917778E+01  0.60659673676E+02  0.10566000000E+00 0.  1.
         23    2    1    0    0    0  0.29522586548E+00  0.29529822750E+02 -0.31786267813E+00  0.95556990897E+02  0.90878709733E+02 0.  0.
         13    1    3    3    0    0 -0.21486925064E+02 -0.26625980232E+02  0.68688290997E+01  0.34897317222E+02  0.10566000000E+00 0. -1.
         22    1    1    0    0    0 -0.29522586548E+00 -0.29529822750E+02  0.31786267813E+00  0.29533009103E+02  0.00000000000E+00 0.  1.
</event>
<event>
 5    1  0.1261138E-009  0.9118800E+02  0.7561462E-02  0.1125453E+00
         25   -1    0    0    0    0  0.00000000000E+00  0.00000000000E+00  0.99999998245E-14  0.12509000000E+03  0.12509000000E+03 0.  0.
        -13    1    3    3    0    0 -0.15604530914E+02 -0.13535602553E+02 -0.43786532601E+02  0.48414724235E+02  0.10566000000E+00 0. -1.
         23    2    1    0    0    0  0.14967154832E+02 -0.23656809277E+02 -0.93187044708E+01  0.95585786708E+02  0.90918337087E+02 0.  0.
         13    1    3    3    0    0  0.30571685746E+02 -0.10121206724E+02  0.34467828130E+02  0.47171062474E+02  0.10566000000E+00 0.  1.
         22    1    1    0    0    0 -0.14967154832E+02  0.23656809277E+02  0.93187044708E+01  0.29504213292E+02  0.00000000000E+00 0.  1.
</event>
<event>
 5    1  0.1261138E-009  0.9118800E+02  0.7561462E-02  0.1125453E+00
         25   -1    0    0    0    0  0.00000000000E+00  0.00000000000E+00  0.99999998245E-14  0.12509000000E+03  0.12509000000E+03 0.  0.
        -13    1    3    3    0    0  0.40936013045E+02  0.56380418345E+01 -0.47332153652E+01  0.41592777876E+02  0.10566000000E+00 0. -1.
         23    2    1    0    0    0 -0.71748379860E+01 -0.22000099308E+02 -0.14287831421E+02  0.97893956236E+02  0.94040426792E+02 0.  0.
         13    1    3    3    0    0 -0.48110851031E+02 -0.27638141143E+02 -0.95546160559E+01  0.56301178360E+02  0.10566000000E+00 0.  1.
         22    1    1    0    0    0  0.71748379860E+01  0.22000099308E+02  0.14287831421E+02  0.27196043764E+02  0.00000000000E+00 0.  1.
</event>
<event>
 5    1  0.1261138E-009  0.9118800E+02  0.7561462E-02  0.1125453E+00
         25   -1    0    0    0    0  0.00000000000E+00  0.00000000000E+00  0.99999998245E-14  0.12509000000E+03  0.12509000000E+03 0.  0.
        -13    1    3    3    0    0  0.38164607847E+02 -0.39233498505E+02 -0.18007723592E+02  0.57620256595E+02  0.10566000000E+00 0. -1.
         23    2    1    0    0    0  0.27642252255E+02 -0.11418719503E+02  0.44056348534E+01  0.94859371769E+02  0.89913344555E+02 0.  0.
         13    1    3    3    0    0 -0.10522355592E+02  0.27814779002E+02  0.22413358445E+02  0.37239115174E+02  0.10566000000E+00 0.  1.
         22    1    1    0    0    0 -0.27642252255E+02  0.11418719503E+02 -0.44056348534E+01  0.30230628231E+02  0.00000000000E+00 0. -1.
</event>
<event>
 5    1  0.1261138E-009  0.9118800E+02  0.7561462E-02  0.1125453E+00
         25   -1    0    0    0    0  0.00000000000E+00  0.00000000000E+00  0.99999998245E-14  0.12509000000E+03  0.12509000000E+03 0.  0.
        -13    1    3    3    0    0  0.10614338715E+02 -0.38430705298E+02 -0.22824254968E+02  0.45940625539E+02  0.10566000000E+00 0. -1.
         23    2    1    0    0    0  0.25707177043E+02 -0.57429645376E+01  0.12102320208E+02  0.96101955091E+02  0.91625755248E+02 0.  0.
         13    1    3    3    0    0  0.15092838328E+02  0.32687740761E+02  0.34926575176E+02  0.50161329552E+02  0.10566000000E+00 0.  1.
         22    1    1    0    0    0 -0.25707177043E+02  0.57429645376E+01 -0.12102320208E+02  0.28988044909E+02  0.00000000000E+00 0.  1.
</event>
<event>
 5    1  0.1261138E-009  0.9118800E+02  0.7561462E-02  0.1125453E+00
         25   -1    0    0    0    0  0.00000000000E+00  0.00000000000E+00  0.99999998245E-14  0.12509000000E+03  0.12509000000E+03 0.  0.
        -13    1    3    3    0    0  0.26442019567E+01  0.40694778486E+02 -0.42092089324E+02  0.58607268727E+02  0.10566000000E+00 0.  1.
         23    2    1    0    0    0  0.72205539147E+01  0.26668313126E+02 -0.71283293041E+01  0.96556714131E+02  0.92244515508E+02 0.  0.
         13    1    3    3    0    0  0.45763519580E+01 -0.14026465360E+02  0.34963760020E+02  0.37949445404E+02  0.10566000000E+00 0. -1.
         22    1    1    0    0    0 -0.72205539147E+01 -0.26668313126E+02  0.71283293041E+01  0.28533285869E+02  0.00000000000E+00 0.  1.
</event>
<event>
 5    1  0.1261138E-009  0.9118800E+02  0.7561462E-02  0.1125453E+00
         25   -1    0    0    0    0  0.00000000000E+00  0.00000000000E+00  0.99999998245E-14  0.12509000000E+03  0.12509000000E+03 0.  0.
        -13    1    3    3    0    0  0.23566606039E+02 -0.61698327172E+01  0.32454585433E+02  0.40580328185E+02  0.10566000000E+00 0.  1.
         23    2    1    0    0    0 -0.26842952147E+02 -0.43801590380E+01  0.73899037491E+01  0.96905952197E+02  0.92716897169E+02 0.  0.
         13    1    3    3    0    0 -0.50409558186E+02  0.17896736792E+01 -0.25064681684E+02  0.56325624012E+02  0.10566000000E+00 0. -1.
         22    1    1    0    0    0  0.26842952147E+02  0.43801590380E+01 -0.73899037491E+01  0.28184047803E+02  0.00000000000E+00 0. -1.
</event>
<event>
 5    1  0.1261138E-009  0.9118800E+02  0.7561462E-02  0.1125453E+00
         25   -1    0    0    0    0  0.00000000000E+00  0.00000000000E+00  0.99999998245E-14  0.12509000000E+03  0.12509000000E+03 0.  0.
        -13    1    3    3    0    0 -0.75905403813E+01  0.45818075048E+01 -0.55734895334E+02  0.56435795247E+02  0.10566000000E+00 0.  1.
         23    2    1    0    0    0 -0.22240653487E+02  0.23102644635E+01 -0.20132141791E+02  0.95002010328E+02  0.90111568868E+02 0.  0.
         13    1    3    3    0    0 -0.14650113105E+02 -0.22715430412E+01  0.35602753543E+02  0.38566215080E+02  0.10566000000E+00 0. -1.
         22    1    1    0    0    0  0.22240653487E+02 -0.23102644635E+01  0.20132141791E+02  0.30087989672E+02  0.00000000000E+00 0. -1.
</event>
<event>
 5    1  0.1261138E-009  0.9118800E+02  0.7561462E-02  0.1125453E+00
         25   -1    0    0    0    0  0.00000000000E+00  0.00000000000E+00  0.99999998245E-14  0.12509000000E+03  0.12509000000E+03 0.  0.
        -13    1    3    3    0    0  0.17727933450E+02 -0.31264862882E+02  0.30213925891E+02  0.46953847097E+02  0.10566000000E+00 0.  1.
         23    2    1    0    0    0  0.27490037361E+02  0.93291896295E+01  0.52803941896E+01  0.95583754965E+02  0.90915541670E+02 0.  0.
         13    1    3    3    0    0  0.97621039111E+01  0.40594052512E+02 -0.24933531702E+02  0.48629907868E+02  0.10566000000E+00 0. -1.
         22    1    1    0    0    0 -0.27490037361E+02 -0.93291896295E+01 -0.52803941896E+01  0.29506245035E+02  0.00000000000E+00 0. -1.
</event>
<event>
 5    1  0.1261138E-009  0.9118800E+02  0.7561462E-02  0.1125453E+00
         25   -1    0    0    0    0  0.00000000000E+00  0.00000000000E+00  0.99999998245E-14  0.12509000000E+03  0.12509000000E+03 0.  0.
        -13    1    3    3    0    0  0.23078825964E+02 -0.41618113643E+01  0.28414931623E+02  0.36842534995E+02  0.10566000000E+00 0. -1.
         23    2    1    0    0    0  0.50864951268E+01  0.13147549874E+02 -0.25328793290E+02  0.96102446293E+02  0.91626425848E+02 0.  0.
         13    1    3    3    0    0 -0.17992330837E+02  0.17309361239E+02 -0.53743724913E+02  0.59259911298E+02  0.10566000000E+00 0.  1.
         22    1    1    0    0    0 -0.50864951268E+01 -0.13147549874E+02  0.25328793290E+02  0.28987553707E+02  0.00000000000E+00 0.  1.
</event>
<event>
 5    1  0.1261138E-009  0.9118800E+02  0.7561462E-02  0.1125453E+00
         25   -1    0    0    0    0  0.00000000000E+00  0.00000000000E+00  0.99999998245E-14  0.12509000000E+03  0.12509000000E+03 0.  0.
        -13    1    3    3    0    0 -0.45286251642E+02  0.25709918713E+02  0.33898183172E+02  0.62136482798E+02  0.10566000000E+00 0.  1.
         23    2    1    0    0    0 -0.21974477636E+02  0.67208028694E+01  0.14472033990E+02  0.97933295001E+02  0.94092739589E+02 0.  0.
         13    1    3    3    0    0  0.23311774006E+02 -0.18989115844E+02 -0.19426149183E+02  0.35796812204E+02  0.10566000000E+00 0. -1.
         22    1    1    0    0    0  0.21974477636E+02 -0.67208028694E+01 -0.14472033990E+02  0.27156704999E+02  0.00000000000E+00 0.  1.
</event>
<event>
 5    1  0.1261138E-009  0.9118800E+02  0.7561462E-02  0.1125453E+00
         25   -1    0    0    0    0  0.00000000000E+00  0.00000000000E+00  0.99999998245E-14  0.12509000000E+03  0.12509000000E+03 0.  0.
        -13    1    3    3    0    0 -0.40299114188E+02 -0.88783177386E+01 -0.38256386239E+02  0.56270821766E+02  0.10566000000E+00 0. -1.
         23    2    1    0    0    0 -0.17931032632E+02  0.15683946530E+02 -0.13438658760E+02  0.97738479763E+02  0.93833388339E+02 0.  0.
         13    1    3    3    0    0  0.22368081556E+02  0.24562264269E+02  0.24817727478E+02  0.41467657997E+02  0.10566000000E+00 0.  1.
         22    1    1    0    0    0  0.17931032632E+02 -0.15683946530E+02  0.13438658760E+02  0.27351520237E+02  0.00000000000E+00 0. -1.
</event>
<event>
 5    1  0.1261138E-009  0.9118800E+02  0.7561462E-02  0.1125453E+00
         25   -1    0    0    0    0  0.00000000000E+00  0.00000000000E+00  0.99999998245E-14  0.12509000000E+03  0.12509000000E+03 0.  0.
        -13    1    3    3    0    0  0.52522190617E+02  0.14917491206E+01 -0.62927770483E+01  0.52918957186E+02  0.10566000000E+00 0.  1.
         23    2    1    0    0    0  0.33706741200E+02 -0.23062875449E+02 -0.56409995700E+01  0.83860623308E+02  0.73025630015E+02 0.  0.
         13    1    3    3    0    0 -0.18815449416E+02 -0.24554624569E+02  0.65177747837E+00  0.30941666122E+02  0.10566000000E+00 0. -1.
         22    1    1    0    0    0 -0.33706741200E+02  0.23062875449E+02  0.56409995700E+01  0.41229376692E+02  0.00000000000E+00 0.  1.
</event>
<event>
 5    1  0.1261138E-009  0.9118800E+02  0.7561462E-02  0.1125453E+00
         25   -1    0    0    0    0  0.00000000000E+00  0.00000000000E+00  0.99999998245E-14  0.12509000000E+03  0.12509000000E+03 0.  0.
        -13    1    3    3    0    0  0.22879590302E+02  0.23180401982E+02 -0.29371462147E+02  0.43857731828E+02  0.10566000000E+00 0.  1.
         23    2    1    0    0    0 -0.10933830188E+02  0.15267408383E+02 -0.40601963723E+02  0.80355652352E+02  0.66752295881E+02 0.  0.
         13    1    3    3    0    0 -0.33813420490E+02 -0.79129935989E+01 -0.11230501576E+02  0.36497920524E+02  0.10566000000E+00 0. -1.
         22    1    1    0    0    0  0.10933830188E+02 -0.15267408383E+02  0.40601963723E+02  0.44734347648E+02  0.00000000000E+00 0. -1.
</event>
<event>
 5    1  0.1261138E-009  0.9118800E+02  0.7561462E-02  0.1125453E+00
         25   -1    0    0    0    0  0.00000000000E+00  0.00000000000E+00  0.99999998245E-14  0.12509000000E+03  0.12509000000E+03 0.  0.
        -13    1    3    3    0    0 -0.33762980898E+02 -0.14855522143E+02  0.97904008840E+01  0.38163969013E+02  0.10566000000E+00 0. -1.
         23    2    1    0    0    0  0.69005133090E+01  0.58149377873E+00 -0.28284601589E+02  0.95970008482E+02  0.91445440685E+02 0.  0.
         13    1    3    3    0    0  0.40663494207E+02  0.15437015922E+02 -0.38075002473E+02  0.57806039469E+02  0.10566000000E+00 0.  1.
         22    1    1    0    0    0 -0.69005133090E+01 -0.58149377873E+00  0.28284601589E+02  0.29119991518E+02  0.00000000000E+00 0.  1.
</event>
<event>
 5    1  0.1261138E-009  0.9118800E+02  0.7561462E-02  0.1125453E+00
         25   -1    0    0    0    0  0.00000000000E+00  0.00000000000E+00  0.99999998245E-14  0.12509000000E+03  0.12509000000E+03 0.  0.
        -13    1    3    3    0    0 -0.25139053225E+02 -0.52686593325E+02 -0.87442453412E+01  0.59028146709E+02  0.10566000000E+00 0. -1.
         23    2    1    0    0    0 -0.18089581826E+02 -0.23639495378E+02  0.92526435485E+01  0.93918376286E+02  0.88594533009E+02 0.  0.
         13    1    3    3    0    0  0.70494713995E+01  0.29047097947E+02  0.17996888890E+02  0.34890229577E+02  0.10566000000E+00 0.  1.
         22    1    1    0    0    0  0.18089581826E+02  0.23639495378E+02 -0.92526435485E+01  0.31171623714E+02  0.00000000000E+00 0. -1.
</event>
<event>
 5    1  0.1261138E-009  0.9118800E+02  0.7561462E-02  0.1125453E+00
         25   -1    0    0    0    0  0.00000000000E+00  0.00000000000E+00  0.99999998245E-14  0.12509000000E+03  0.12509000000E+03 0.  0.
        -13    1    3    3    0    0  0.13044722047E+02  0.56373066656E+01  0.34836517094E+02  0.37623637344E+02  0.10566000000E+00 0.  1.
         23    2    1    0    0    0 -0.28514749125E+02  0.19408403146E+02  0.59206226483E+01  0.90092417185E+02  0.83016943038E+02 0.  0.
         13    1    3    3    0    0 -0.41559471172E+02  0.13771096480E+02 -0.28915894446E+02  0.52468779841E+02  0.10566000000E+00 0. -1.
         22    1    1    0    0    0  0.28514749125E+02 -0.19408403146E+02 -0.59206226483E+01  0.34997582815E+02  0.00000000000E+00 0. -1.
</event>
<event>
 5    1  0.1261138E-009  0.9118800E+02  0.7561462E-02  0.1125453E+00
         25   -1    0    0    0    0  0.00000000000E+00  0.00000000000E+00  0.99999998245E-14  0.12509000000E+03  0.12509000000E+03 0.  0.
        -13    1    3    3    0    0 -0.38286771696E+02  0.30564340398E+01 -0.12483070132E+02  0.40386345216E+02  0.10566000000E+00 0. -1.
         23    2    1    0    0    0 -0.80583300777E+01  0.73284530157E+01  0.30269612768E+02  0.92920257005E+02  0.87173859600E+02 0.  0.
         13    1    3    3    0    0  0.30228441618E+02  0.42720189759E+01  0.42752682899E+02  0.52533911790E+02  0.10566000000E+00 0.  1.
         22    1    1    0    0    0  0.80583300777E+01 -0.73284530157E+01 -0.30269612768E+02  0.32169742995E+02  0.00000000000E+00 0.  1.
</event>
<event>
 5    1  0.1261138E-009  0.9118800E+02  0.7561462E-02  0.1125453E+00
         25   -1    0    0    0    0  0.00000000000E+00  0.00000000000E+00  0.99999998245E-14  0.12509000000E+03  0.12509000000E+03 0.  0.
        -13    1    3    3    0    0  0.41001773787E+01 -0.34939865208E+02  0.40169946496E+02  0.53397016779E+02  0.10566000000E+00 0.  1.
         23    2    1    0    0    0 -0.17952146768E+02 -0.38900108145E+01  0.24234446811E+02  0.94680788074E+02  0.89664549630E+02 0.  0.
         13    1    3    3    0    0 -0.22052324146E+02  0.31049854394E+02 -0.15935499685E+02  0.41283771295E+02  0.10566000000E+00 0. -1.
         22    1    1    0    0    0  0.17952146768E+02  0.38900108145E+01 -0.24234446811E+02  0.30409211926E+02  0.00000000000E+00 0. -1.
</event>
<event>
 5    1  0.1261138E-009  0.9118800E+02  0.7561462E-02  0.1125453E+00
         25   -1    0    0    0    0  0.00000000000E+00  0.00000000000E+00  0.99999998245E-14  0.12509000000E+03  0.12509000000E+03 0.  0.
        -13    1    3    3    0    0  0.39639757508E+02  0.74051507208E+00 -0.96567352853E+01  0.40805911806E+02  0.10566000000E+00 0.  1.
         23    2    1    0    0    0 -0.40558564293E+01  0.29336175945E+02  0.50250047089E+01  0.95051493666E+02  0.90180233896E+02 0.  0.
         13    1    3    3    0    0 -0.43695613938E+02  0.28595660872E+02  0.14681739994E+02  0.54245581861E+02  0.10566000000E+00 0. -1.
         22    1    1    0    0    0  0.40558564293E+01 -0.29336175945E+02 -0.50250047089E+01  0.30038506334E+02  0.00000000000E+00 0. -1.
</event>
<event>
 5    1  0.1261138E-009  0.9118800E+02  0.7561462E-02  0.1125453E+00
         25   -1    0    0    0    0  0.00000000000E+00  0.00000000000E+00  0.99999998245E-14  0.12509000000E+03  0.12509000000E+03 0.  0.
        -13    1    3    3    0    0  0.34138643697E+02 -0.51304504384E+02  0.85835542399E+01  0.62219673183E+02  0.10566000000E+00 0. -1.
         23    2    1    0    0    0  0.14421393255E+02 -0.22623890549E+02  0.82322326461E+01  0.97026025561E+02  0.92878754163E+02 0.  0.
         13    1    3    3    0    0 -0.19717250443E+02  0.28680613835E+02 -0.35132159371E+00  0.34806352378E+02  0.10566000000E+00 0.  1.
         22    1    1    0    0    0 -0.14421393255E+02  0.22623890549E+02 -0.82322326461E+01  0.28063974439E+02  0.00000000000E+00 0. -1.
</event>
<event>
 5    1  0.1261138E-009  0.9118800E+02  0.7561462E-02  0.1125453E+00
         25   -1    0    0    0    0  0.00000000000E+00  0.00000000000E+00  0.99999998245E-14  0.12509000000E+03  0.12509000000E+03 0.  0.
        -13    1    3    3    0    0  0.29924409874E+02  0.26722118590E+02 -0.25373091709E+02  0.47469430955E+02  0.10566000000E+00 0.  1.
         23    2    1    0    0    0  0.18426351757E+02  0.10697968533E+02  0.19324644076E+02  0.96325111012E+02  0.91929909024E+02 0.  0.
         13    1    3    3    0    0 -0.11498058117E+02 -0.16024150057E+02  0.44697735785E+02  0.48855680058E+02  0.10566000000E+00 0. -1.
         22    1    1    0    0    0 -0.18426351757E+02 -0.10697968533E+02 -0.19324644076E+02  0.28764888988E+02  0.00000000000E+00 0.  1.
</event>
<event>
 5    1  0.1261138E-009  0.9118800E+02  0.7561462E-02  0.1125453E+00
         25   -1    0    0    0    0  0.00000000000E+00  0.00000000000E+00  0.99999998245E-14  0.12509000000E+03  0.12509000000E+03 0.  0.
        -13    1    3    3    0    0 -0.12311411346E+02  0.17046051700E+02 -0.35326546514E+02  0.41111005589E+02  0.10566000000E+00 0. -1.
         23    2    1    0    0    0 -0.22736600840E+02  0.15256376822E+01  0.16988388238E+02  0.96666665871E+02  0.92393497432E+02 0.  0.
         13    1    3    3    0    0 -0.10425189494E+02 -0.15520414018E+02  0.52314934752E+02  0.55555660282E+02  0.10566000000E+00 0.  1.
         22    1    1    0    0    0  0.22736600840E+02 -0.15256376822E+01 -0.16988388238E+02  0.28423334129E+02  0.00000000000E+00 0.  1.
</event>
<event>
 5    1  0.1261138E-009  0.9118800E+02  0.7561462E-02  0.1125453E+00
         25   -1    0    0    0    0  0.00000000000E+00  0.00000000000E+00  0.99999998245E-14  0.12509000000E+03  0.12509000000E+03 0.  0.
        -13    1    3    3    0    0 -0.37268767521E+02 -0.21056610002E+02  0.18664128058E+02  0.46697994577E+02  0.10566000000E+00 0.  1.
         23    2    1    0    0    0  0.13431929326E+02 -0.19387974550E+02  0.14051197048E+02  0.97635557353E+02  0.93696081234E+02 0.  0.
         13    1    3    3    0    0  0.50700696847E+02  0.16686354514E+01 -0.46129310108E+01  0.50937562776E+02  0.10566000000E+00 0. -1.
         22    1    1    0    0    0 -0.13431929326E+02  0.19387974550E+02 -0.14051197048E+02  0.27454442647E+02  0.00000000000E+00 0.  1.
</event>
<event>
 5    1  0.1261138E-009  0.9118800E+02  0.7561462E-02  0.1125453E+00
         25   -1    0    0    0    0  0.00000000000E+00  0.00000000000E+00  0.99999998245E-14  0.12509000000E+03  0.12509000000E+03 0.  0.
        -13    1    3    3    0    0 -0.12172194574E+02 -0.46283896334E+02  0.20496496936E+02  0.52062260144E+02  0.10566000000E+00 0.  1.
         23    2    1    0    0    0  0.10148597504E+02 -0.27197053018E+02 -0.99865751907E+01  0.94391377747E+02  0.89259883401E+02 0.  0.
         13    1    3    3    0    0  0.22320792077E+02  0.19086843316E+02 -0.30483072127E+02  0.42329117603E+02  0.10566000000E+00 0. -1.
         22    1    1    0    0    0 -0.10148597504E+02  0.27197053018E+02  0.99865751907E+01  0.30698622253E+02  0.00000000000E+00 0.  1.
</event>
<event>
 5    1  0.1261138E-009  0.9118800E+02  0.7561462E-02  0.1125453E+00
         25   -1    0    0    0    0  0.00000000000E+00  0.00000000000E+00  0.99999998245E-14  0.12509000000E+03  0.12509000000E+03 0.  0.
        -13    1    3    3    0    0  0.42719978571E+02  0.43804343563E+02 -0.39668043509E+01  0.61315281822E+02  0.10566000000E+00 0. -1.
         23    2    1    0    0    0  0.33920267696E+02  0.23878100445E+02 -0.59289794268E+01  0.83186527131E+02  0.71861653597E+02 0.  0.
         13    1    3    3    0    0 -0.87997108758E+01 -0.19926243118E+02 -0.19621750759E+01  0.21871245309E+02  0.10566000000E+00 0.  1.
         22    1    1    0    0    0 -0.33920267696E+02 -0.23878100445E+02  0.59289794268E+01  0.41903472869E+02  0.00000000000E+00 0. -1.
</event>
<event>
 5    1  0.1261138E-009  0.9118800E+02  0.7561462E-02  0.1125453E+00
         25   -1    0    0    0    0  0.00000000000E+00  0.00000000000E+00  0.99999998245E-14  0.12509000000E+03  0.12509000000E+03 0.  0.
        -13    1    3    3    0    0 -0.17455585270E+02  0.18580251485E+02  0.28380643007E+02  0.38149643037E+02  0.10566000000E+00 0.  1.
         23    2    1    0    0    0 -0.15441856291E+02 -0.19081761991E+02 -0.15536466481E+02  0.96039245154E+02  0.91540101883E+02 0.  0.
         13    1    3    3    0    0  0.20137289792E+01 -0.37662013476E+02 -0.43917109488E+02  0.57889602117E+02  0.10566000000E+00 0. -1.
         22    1    1    0    0    0  0.15441856291E+02  0.19081761991E+02  0.15536466481E+02  0.29050754846E+02  0.00000000000E+00 0. -1.
</event>
<event>
 5    1  0.1261138E-009  0.9118800E+02  0.7561462E-02  0.1125453E+00
         25   -1    0    0    0    0  0.00000000000E+00  0.00000000000E+00  0.99999998245E-14  0.12509000000E+03  0.12509000000E+03 0.  0.
        -13    1    3    3    0    0  0.15494547450E+02  0.26062844551E+02  0.16169032758E+02  0.34362794577E+02  0.10566000000E+00 0. -1.
         23    2    1    0    0    0 -0.47807695218E+01 -0.13670779618E+02 -0.25731103071E+02  0.95563137013E+02  0.90887169161E+02 0.  0.
         13    1    3    3    0    0 -0.20275316972E+02 -0.39733624169E+02 -0.41900135829E+02  0.61200342437E+02  0.10566000000E+00 0.  1.
         22    1    1    0    0    0  0.47807695218E+01  0.13670779618E+02  0.25731103071E+02  0.29526862987E+02  0.00000000000E+00 0.  1.
</event>
<event>
 5    1  0.1261138E-009  0.9118800E+02  0.7561462E-02  0.1125453E+00
         25   -1    0    0    0    0  0.00000000000E+00  0.00000000000E+00  0.99999998245E-14  0.12509000000E+03  0.12509000000E+03 0.  0.
        -13    1    3    3    0    0  0.30545870215E+01 -0.37221591733E+02 -0.94596615880E+01  0.38526273560E+02  0.10566000000E+00 0.  1.
         23    2    1    0    0    0  0.20126015285E+02  0.86425294781E+01  0.19816306476E+02  0.95552975617E+02  0.90873182733E+02 0.  0.
         13    1    3    3    0    0  0.17071428263E+02  0.45864121211E+02  0.29275968064E+02  0.57026702057E+02  0.10566000000E+00 0. -1.
         22    1    1    0    0    0 -0.20126015285E+02 -0.86425294781E+01 -0.19816306476E+02  0.29537024383E+02  0.00000000000E+00 0. -1.
</event>
<event>
 5    1  0.1261138E-009  0.9118800E+02  0.7561462E-02  0.1125453E+00
         25   -1    0    0    0    0  0.00000000000E+00  0.00000000000E+00  0.99999998245E-14  0.12509000000E+03  0.12509000000E+03 0.  0.
        -13    1    3    3    0    0  0.42849329746E+02 -0.34890761010E+01 -0.23662393020E+01  0.43056346387E+02  0.10566000000E+00 0. -1.
         23    2    1    0    0    0  0.47639446676E+00 -0.24226917968E+02 -0.20253071815E+02  0.93509033836E+02  0.88014669147E+02 0.  0.
         13    1    3    3    0    0 -0.42372935279E+02 -0.20737841867E+02 -0.17886832513E+02  0.50452687449E+02  0.10566000000E+00 0.  1.
         22    1    1    0    0    0 -0.47639446676E+00  0.24226917968E+02  0.20253071815E+02  0.31580966164E+02  0.00000000000E+00 0.  1.
</event>
<event>
 5    1  0.1261138E-009  0.9118800E+02  0.7561462E-02  0.1125453E+00
         25   -1    0    0    0    0  0.00000000000E+00  0.00000000000E+00  0.99999998245E-14  0.12509000000E+03  0.12509000000E+03 0.  0.
        -13    1    3    3    0    0  0.11812874083E+02  0.34344521276E+02 -0.13100052675E+02  0.38609748509E+02  0.10566000000E+00 0.  1.
         23    2    1    0    0    0 -0.84974988997E+01 -0.35542099713E+01  0.26481512013E+02  0.97052340066E+02  0.92914188033E+02 0.  0.
         13    1    3    3    0    0 -0.20310372983E+02 -0.37898731247E+02  0.39581564687E+02  0.58442591558E+02  0.10566000000E+00 0. -1.
         22    1    1    0    0    0  0.84974988997E+01  0.35542099713E+01 -0.26481512013E+02  0.28037659934E+02  0.00000000000E+00 0. -1.
</event>
<event>
 5    1  0.1261138E-009  0.9118800E+02  0.7561462E-02  0.1125453E+00
         25   -1    0    0    0    0  0.00000000000E+00  0.00000000000E+00  0.99999998245E-14  0.12509000000E+03  0.12509000000E+03 0.  0.
        -13    1    3    3    0    0  0.12372812506E+02 -0.27003321812E+02 -0.44786738524E+02  0.53741315484E+02  0.10566000000E+00 0.  1.
         23    2    1    0    0    0 -0.14499953433E+02 -0.20078023851E+02 -0.96625807551E+01  0.98505396220E+02  0.94850260549E+02 0.  0.
         13    1    3    3    0    0 -0.26872765939E+02  0.69252979615E+01  0.35124157769E+02  0.44764080736E+02  0.10566000000E+00 0. -1.
         22    1    1    0    0    0  0.14499953433E+02  0.20078023851E+02  0.96625807551E+01  0.26584603780E+02  0.00000000000E+00 0. -1.
</event>
<event>
 5    1  0.1261138E-009  0.9118800E+02  0.7561462E-02  0.1125453E+00
         25   -1    0    0    0    0  0.00000000000E+00  0.00000000000E+00  0.99999998245E-14  0.12509000000E+03  0.12509000000E+03 0.  0.
        -13    1    3    3    0    0  0.36681624555E+01  0.46495198805E+02 -0.23930925593E+02  0.52420981406E+02  0.10566000000E+00 0.  1.
         23    2    1    0    0    0  0.24315904691E+02  0.38015973808E+02 -0.95815032590E+01  0.78956685680E+02  0.64077106078E+02 0.  0.
         13    1    3    3    0    0  0.20647742235E+02 -0.84792249978E+01  0.14349422334E+02  0.26535704274E+02  0.10566000000E+00 0. -1.
         22    1    1    0    0    0 -0.24315904691E+02 -0.38015973808E+02  0.95815032590E+01  0.46133314320E+02  0.00000000000E+00 0.  1.
</event>
<event>
 5    1  0.1261138E-009  0.9118800E+02  0.7561462E-02  0.1125453E+00
         25   -1    0    0    0    0  0.00000000000E+00  0.00000000000E+00  0.99999998245E-14  0.12509000000E+03  0.12509000000E+03 0.  0.
        -13    1    3    3    0    0  0.33197180223E+01  0.18593814190E+02  0.31277962359E+02  0.36538644573E+02  0.10566000000E+00 0.  1.
         23    2    1    0    0    0 -0.25563096541E+02  0.17663473582E+00 -0.16007418268E+02  0.94928094486E+02  0.90008902774E+02 0.  0.
         13    1    3    3    0    0 -0.28882814564E+02 -0.18417179454E+02 -0.47285380627E+02  0.58389449913E+02  0.10566000000E+00 0. -1.
         22    1    1    0    0    0  0.25563096541E+02 -0.17663473582E+00  0.16007418268E+02  0.30161905514E+02  0.00000000000E+00 0. -1.
</event>
<event>
 5    1  0.1261138E-009  0.9118800E+02  0.7561462E-02  0.1125453E+00
         25   -1    0    0    0    0  0.00000000000E+00  0.00000000000E+00  0.99999998245E-14  0.12509000000E+03  0.12509000000E+03 0.  0.
        -13    1    3    3    0    0 -0.44434497060E+02  0.25410667016E+02  0.13575476746E+02  0.52956881140E+02  0.10566000000E+00 0.  1.
         23    2    1    0    0    0 -0.30600092278E+01  0.28944164118E+02  0.83556229292E+01  0.94808904784E+02  0.89843106017E+02 0.  0.
         13    1    3    3    0    0  0.41374487832E+02  0.35334971021E+01 -0.52198538172E+01  0.41852023643E+02  0.10566000000E+00 0. -1.
         22    1    1    0    0    0  0.30600092278E+01 -0.28944164118E+02 -0.83556229292E+01  0.30281095216E+02  0.00000000000E+00 0.  1.
</event>
<event>
 5    1  0.1261138E-009  0.9118800E+02  0.7561462E-02  0.1125453E+00
         25   -1    0    0    0    0  0.00000000000E+00  0.00000000000E+00  0.99999998245E-14  0.12509000000E+03  0.12509000000E+03 0.  0.
        -13    1    3    3    0    0  0.23558785454E+02  0.22285496589E+02  0.22113732773E+02  0.39251599604E+02  0.10566000000E+00 0. -1.
         23    2    1    0    0    0  0.34722075767E+01  0.74595253562E+01 -0.28359068998E+02  0.95561411506E+02  0.90884794276E+02 0.  0.
         13    1    3    3    0    0 -0.20086577877E+02 -0.14825971232E+02 -0.50472801771E+02  0.56309811902E+02  0.10566000000E+00 0.  1.
         22    1    1    0    0    0 -0.34722075767E+01 -0.74595253562E+01  0.28359068998E+02  0.29528588494E+02  0.00000000000E+00 0.  1.
</event>
<event>
 5    1  0.1261138E-009  0.9118800E+02  0.7561462E-02  0.1125453E+00
         25   -1    0    0    0    0  0.00000000000E+00  0.00000000000E+00  0.99999998245E-14  0.12509000000E+03  0.12509000000E+03 0.  0.
        -13    1    3    3    0    0  0.24606032717E+02 -0.35443561860E+01  0.19343959243E+02  0.31499511585E+02  0.10566000000E+00 0. -1.
         23    2    1    0    0    0 -0.15457505420E+02  0.14889435522E+02 -0.23694019323E+02  0.93120697292E+02  0.87461008160E+02 0.  0.
         13    1    3    3    0    0 -0.40063538138E+02  0.18433791708E+02 -0.43037978566E+02  0.61621185707E+02  0.10566000000E+00 0.  1.
         22    1    1    0    0    0  0.15457505420E+02 -0.14889435522E+02  0.23694019323E+02  0.31969302708E+02  0.00000000000E+00 0.  1.
</event>
<event>
 5    1  0.1261138E-009  0.9118800E+02  0.7561462E-02  0.1125453E+00
         25   -1    0    0    0    0  0.00000000000E+00  0.00000000000E+00  0.99999998245E-14  0.12509000000E+03  0.12509000000E+03 0.  0.
        -13    1    3    3    0    0 -0.89407262520E+00 -0.36720049984E+02  0.33464300521E+02  0.49689355099E+02  0.10566000000E+00 0.  1.
         23    2    1    0    0    0 -0.26771478722E+02 -0.60992935260E+01  0.12718936798E+02  0.94829715669E+02  0.89872076677E+02 0.  0.
         13    1    3    3    0    0 -0.25877406097E+02  0.30620756458E+02 -0.20745363723E+02  0.45140360571E+02  0.10566000000E+00 0. -1.
         22    1    1    0    0    0  0.26771478722E+02  0.60992935260E+01 -0.12718936798E+02  0.30260284331E+02  0.00000000000E+00 0. -1.
</event>
<event>
 5    1  0.1261138E-009  0.9118800E+02  0.7561462E-02  0.1125453E+00
         25   -1    0    0    0    0  0.00000000000E+00  0.00000000000E+00  0.99999998245E-14  0.12509000000E+03  0.12509000000E+03 0.  0.
        -13    1    3    3    0    0 -0.51313324447E+02 -0.22466309065E+02  0.19912033553E+02  0.59449916342E+02  0.10566000000E+00 0. -1.
         23    2    1    0    0    0 -0.16056794424E+02 -0.11978282900E+02  0.20756629288E+02  0.96243205242E+02  0.91818391336E+02 0.  0.
         13    1    3    3    0    0  0.35256530023E+02  0.10488026165E+02  0.84459573483E+00  0.36793288900E+02  0.10566000000E+00 0.  1.
         22    1    1    0    0    0  0.16056794424E+02  0.11978282900E+02 -0.20756629288E+02  0.28846794758E+02  0.00000000000E+00 0. -1.
</event>
<event>
 5    1  0.1261138E-009  0.9118800E+02  0.7561462E-02  0.1125453E+00
         25   -1    0    0    0    0  0.00000000000E+00  0.00000000000E+00  0.99999998245E-14  0.12509000000E+03  0.12509000000E+03 0.  0.
        -13    1    3    3    0    0 -0.19100178330E+02 -0.27730967083E+02  0.40393451257E+02  0.52587692630E+02  0.10566000000E+00 0. -1.
         23    2    1    0    0    0 -0.27941951771E+02 -0.12660081760E+02  0.25044758434E+01  0.94311716452E+02  0.89148175091E+02 0.  0.
         13    1    3    3    0    0 -0.88417734402E+01  0.15070885323E+02 -0.37888975414E+02  0.41724023823E+02  0.10566000000E+00 0.  1.
         22    1    1    0    0    0  0.27941951771E+02  0.12660081760E+02 -0.25044758434E+01  0.30778283548E+02  0.00000000000E+00 0. -1.
</event>
<event>
 5    1  0.1261138E-009  0.9118800E+02  0.7561462E-02  0.1125453E+00
         25   -1    0    0    0    0  0.00000000000E+00  0.00000000000E+00  0.99999998245E-14  0.12509000000E+03  0.12509000000E+03 0.  0.
        -13    1    3    3    0    0  0.30258378953E+02  0.23538764056E+02  0.19797248421E+02  0.43146090428E+02  0.10566000000E+00 0.  1.
         23    2    1    0    0    0  0.50161532991E+01  0.18385304010E+02 -0.24294400493E+02  0.94212838654E+02  0.89009324649E+02 0.  0.
         13    1    3    3    0    0 -0.25242225654E+02 -0.51534600455E+01 -0.44091648914E+02  0.51066748226E+02  0.10566000000E+00 0. -1.
         22    1    1    0    0    0 -0.50161532991E+01 -0.18385304010E+02  0.24294400493E+02  0.30877161346E+02  0.00000000000E+00 0. -1.
</event>
<event>
 5    1  0.1261138E-009  0.9118800E+02  0.7561462E-02  0.1125453E+00
         25   -1    0    0    0    0  0.00000000000E+00  0.00000000000E+00  0.99999998245E-14  0.12509000000E+03  0.12509000000E+03 0.  0.
        -13    1    3    3    0    0  0.25207057553E+02 -0.64673665106E+01 -0.31481097579E+02  0.40844745671E+02  0.10566000000E+00 0.  1.
         23    2    1    0    0    0 -0.11287542928E+02 -0.26582584088E+02  0.44519982229E+01  0.95869071022E+02  0.91307261970E+02 0.  0.
         13    1    3    3    0    0 -0.36494600481E+02 -0.20115217577E+02  0.35933095802E+02  0.55024325352E+02  0.10566000000E+00 0. -1.
         22    1    1    0    0    0  0.11287542928E+02  0.26582584088E+02 -0.44519982229E+01  0.29220928978E+02  0.00000000000E+00 0. -1.
</event>
<event>
 5    1  0.1261138E-009  0.9118800E+02  0.7561462E-02  0.1125453E+00
         25   -1    0    0    0    0  0.00000000000E+00  0.00000000000E+00  0.99999998245E-14  0.12509000000E+03  0.12509000000E+03 0.  0.
        -13    1    3    3    0    0  0.23946971053E+02  0.20724804555E+02 -0.23850553737E+02  0.39646374665E+02  0.10566000000E+00 0.  1.
         23    2    1    0    0    0  0.10669738608E+02  0.11702122995E+01  0.27170316263E+02  0.95876325041E+02  0.91317199358E+02 0.  0.
         13    1    3    3    0    0 -0.13277232444E+02 -0.19554592256E+02  0.51020870000E+02  0.56229950376E+02  0.10566000000E+00 0. -1.
         22    1    1    0    0    0 -0.10669738608E+02 -0.11702122995E+01 -0.27170316263E+02  0.29213674959E+02  0.00000000000E+00 0. -1.
</event>
<event>
 5    1  0.1261138E-009  0.9118800E+02  0.7561462E-02  0.1125453E+00
         25   -1    0    0    0    0  0.00000000000E+00  0.00000000000E+00  0.99999998245E-14  0.12509000000E+03  0.12509000000E+03 0.  0.
        -13    1    3    3    0    0 -0.51607580340E+02  0.15174341851E+02 -0.93327349213E+00  0.53800419725E+02  0.10566000000E+00 0.  1.
         23    2    1    0    0    0 -0.16607344476E+02  0.14696632401E+02  0.20537547446E+02  0.94864418954E+02  0.89920366068E+02 0.  0.
         13    1    3    3    0    0  0.35000235864E+02 -0.47770944952E+00  0.21470820938E+02  0.41063999229E+02  0.10566000000E+00 0. -1.
         22    1    1    0    0    0  0.16607344476E+02 -0.14696632401E+02 -0.20537547446E+02  0.30225581046E+02  0.00000000000E+00 0.  1.
</event>
<event>
 5    1  0.1261138E-009  0.9118800E+02  0.7561462E-02  0.1125453E+00
         25   -1    0    0    0    0  0.00000000000E+00  0.00000000000E+00  0.99999998245E-14  0.12509000000E+03  0.12509000000E+03 0.  0.
        -13    1    3    3    0    0  0.29945130698E+02 -0.27274304837E+02  0.42303840039E+02  0.58568119340E+02  0.10566000000E+00 0.  1.
         23    2    1    0    0    0 -0.31582716853E+00 -0.13847974804E+02  0.26357598469E+02  0.95314353071E+02  0.90544114946E+02 0.  0.
         13    1    3    3    0    0 -0.30260957867E+02  0.13426330033E+02 -0.15946241570E+02  0.36746233731E+02  0.10566000000E+00 0. -1.
         22    1    1    0    0    0  0.31582716853E+00  0.13847974804E+02 -0.26357598469E+02  0.29775646929E+02  0.00000000000E+00 0.  1.
</event>
<event>
 5    1  0.1261138E-009  0.9118800E+02  0.7561462E-02  0.1125453E+00
         25   -1    0    0    0    0  0.00000000000E+00  0.00000000000E+00  0.99999998245E-14  0.12509000000E+03  0.12509000000E+03 0.  0.
        -13    1    3    3    0    0 -0.49007841879E+02  0.21160199935E+02 -0.19257050196E+02  0.56748284320E+02  0.10566000000E+00 0. -1.
         23    2    1    0    0    0 -0.26311255873E+02 -0.87112044952E+01 -0.47570382692E+01  0.96968892581E+02  0.92801775015E+02 0.  0.
         13    1    3    3    0    0  0.22696586006E+02 -0.29871404431E+02  0.14500011927E+02  0.40220608261E+02  0.10566000000E+00 0.  1.
         22    1    1    0    0    0  0.26311255873E+02  0.87112044952E+01  0.47570382692E+01  0.28121107419E+02  0.00000000000E+00 0. -1.
</event>
<event>
 5    1  0.1261138E-009  0.9118800E+02  0.7561462E-02  0.1125453E+00
         25   -1    0    0    0    0  0.00000000000E+00  0.00000000000E+00  0.99999998245E-14  0.12509000000E+03  0.12509000000E+03 0.  0.
        -13    1    3    3    0    0 -0.18132828263E+02 -0.49981439972E+02 -0.24766565178E+02  0.58654392140E+02  0.10566000000E+00 0.  1.
         23    2    1    0    0    0  0.44893085693E+01 -0.26786068024E+02 -0.28283086434E+01  0.97783468521E+02  0.93893344038E+02 0.  0.
         13    1    3    3    0    0  0.22622136833E+02  0.23195371948E+02  0.21938256535E+02  0.39129076382E+02  0.10566000000E+00 0. -1.
         22    1    1    0    0    0 -0.44893085693E+01  0.26786068024E+02  0.28283086434E+01  0.27306531479E+02  0.00000000000E+00 0.  1.
</event>
<event>
 5    1  0.1261138E-009  0.9118800E+02  0.7561462E-02  0.1125453E+00
         25   -1    0    0    0    0  0.00000000000E+00  0.00000000000E+00  0.99999998245E-14  0.12509000000E+03  0.12509000000E+03 0.  0.
        -13    1    3    3    0    0  0.92752976683E+01 -0.29265148306E+02  0.11679318995E+02  0.32846578337E+02  0.10566000000E+00 0. -1.
         23    2    1    0    0    0  0.23803723253E+02  0.21943788978E+02 -0.11264941195E+02  0.90811055799E+02  0.84092816814E+02 0.  0.
         13    1    3    3    0    0  0.14528425585E+02  0.51208937284E+02 -0.22944260190E+02  0.57964477462E+02  0.10566000000E+00 0.  1.
         22    1    1    0    0    0 -0.23803723253E+02 -0.21943788978E+02  0.11264941195E+02  0.34278944201E+02  0.00000000000E+00 0.  1.
</event>
<event>
 5    1  0.1261138E-009  0.9118800E+02  0.7561462E-02  0.1125453E+00
         25   -1    0    0    0    0  0.00000000000E+00  0.00000000000E+00  0.99999998245E-14  0.12509000000E+03  0.12509000000E+03 0.  0.
        -13    1    3    3    0    0 -0.20311137270E+02  0.29369321781E+02  0.19368917701E+02  0.40623459922E+02  0.10566000000E+00 0. -1.
         23    2    1    0    0    0  0.17193543881E+02  0.15618627006E+02 -0.18292105827E+02  0.95523793001E+02  0.90833002994E+02 0.  0.
         13    1    3    3    0    0  0.37504681150E+02 -0.13750694775E+02 -0.37661023528E+02  0.54900333079E+02  0.10566000000E+00 0.  1.
         22    1    1    0    0    0 -0.17193543881E+02 -0.15618627006E+02  0.18292105827E+02  0.29566206999E+02  0.00000000000E+00 0.  1.
</event>
<event>
 5    1  0.1261138E-009  0.9118800E+02  0.7561462E-02  0.1125453E+00
         25   -1    0    0    0    0  0.00000000000E+00  0.00000000000E+00  0.99999998245E-14  0.12509000000E+03  0.12509000000E+03 0.  0.
        -13    1    3    3    0    0 -0.63435640539E+01  0.30017585746E+01 -0.32306807979E+02  0.33060435044E+02  0.10566000000E+00 0. -1.
         23    2    1    0    0    0  0.10871929783E+02  0.44132954304E+01  0.27435975615E+02  0.95250281642E+02  0.90455554617E+02 0.  0.
         13    1    3    3    0    0  0.17215493837E+02  0.14115368558E+01  0.59742783594E+02  0.62189846598E+02  0.10566000000E+00 0.  1.
         22    1    1    0    0    0 -0.10871929783E+02 -0.44132954304E+01 -0.27435975615E+02  0.29839718358E+02  0.00000000000E+00 0.  1.
</event>
<event>
 5    1  0.1261138E-009  0.9118800E+02  0.7561462E-02  0.1125453E+00
         25   -1    0    0    0    0  0.00000000000E+00  0.00000000000E+00  0.99999998245E-14  0.12509000000E+03  0.12509000000E+03 0.  0.
        -13    1    3    3    0    0 -0.15420710295E+02 -0.19427622911E+02  0.46200132903E+02  0.52437527423E+02  0.10566000000E+00 0. -1.
         23    2    1    0    0    0 -0.25826958631E+02  0.57574024080E+01  0.12362710488E+02  0.95883560894E+02  0.91327110786E+02 0.  0.
         13    1    3    3    0    0 -0.10406248336E+02  0.25185025319E+02 -0.33837422415E+02  0.43446033472E+02  0.10566000000E+00 0.  1.
         22    1    1    0    0    0  0.25826958631E+02 -0.57574024080E+01 -0.12362710488E+02  0.29206439106E+02  0.00000000000E+00 0. -1.
</event>
<event>
 5    1  0.1261138E-009  0.9118800E+02  0.7561462E-02  0.1125453E+00
         25   -1    0    0    0    0  0.00000000000E+00  0.00000000000E+00  0.99999998245E-14  0.12509000000E+03  0.12509000000E+03 0.  0.
        -13    1    3    3    0    0  0.80461755015E+01  0.32586993376E+02 -0.33994704409E+02  0.47773467211E+02  0.10566000000E+00 0. -1.
         23    2    1    0    0    0  0.11125417147E+02  0.24600567679E+02  0.12704668664E+02  0.95250907475E+02  0.90456420071E+02 0.  0.
         13    1    3    3    0    0  0.30792416458E+01 -0.79864256968E+01  0.46699373073E+02  0.47477440264E+02  0.10566000000E+00 0.  1.
         22    1    1    0    0    0 -0.11125417147E+02 -0.24600567679E+02 -0.12704668664E+02  0.29839092525E+02  0.00000000000E+00 0.  1.
</event>
<event>
 5    1  0.1261138E-009  0.9118800E+02  0.7561462E-02  0.1125453E+00
         25   -1    0    0    0    0  0.00000000000E+00  0.00000000000E+00  0.99999998245E-14  0.12509000000E+03  0.12509000000E+03 0.  0.
        -13    1    3    3    0    0  0.41520975536E+02  0.38215297672E+02 -0.16608889802E+02  0.58824032249E+02  0.10566000000E+00 0. -1.
         23    2    1    0    0    0  0.21806059971E+02  0.82185646362E+01 -0.19316508813E+02  0.94821591240E+02  0.89860767838E+02 0.  0.
         13    1    3    3    0    0 -0.19714915565E+02 -0.29996733036E+02 -0.27076190110E+01  0.35997558991E+02  0.10566000000E+00 0.  1.
         22    1    1    0    0    0 -0.21806059971E+02 -0.82185646362E+01  0.19316508813E+02  0.30268408760E+02  0.00000000000E+00 0. -1.
</event>
<event>
 5    1  0.1261138E-009  0.9118800E+02  0.7561462E-02  0.1125453E+00
         25   -1    0    0    0    0  0.00000000000E+00  0.00000000000E+00  0.99999998245E-14  0.12509000000E+03  0.12509000000E+03 0.  0.
        -13    1    3    3    0    0 -0.27398844787E+02  0.27283799277E+02  0.31378032990E+02  0.49796531174E+02  0.10566000000E+00 0. -1.
         23    2    1    0    0    0  0.13280154979E+02  0.66999507091E+01  0.25232835225E+02  0.95799253521E+02  0.91211562567E+02 0.  0.
         13    1    3    3    0    0  0.40678999765E+02 -0.20583848568E+02 -0.61451977643E+01  0.46002722347E+02  0.10566000000E+00 0.  1.
         22    1    1    0    0    0 -0.13280154979E+02 -0.66999507091E+01 -0.25232835225E+02  0.29290746479E+02  0.00000000000E+00 0. -1.
</event>
<event>
 5    1  0.1261138E-009  0.9118800E+02  0.7561462E-02  0.1125453E+00
         25   -1    0    0    0    0  0.00000000000E+00  0.00000000000E+00  0.99999998245E-14  0.12509000000E+03  0.12509000000E+03 0.  0.
        -13    1    3    3    0    0 -0.13032319687E+02 -0.34233058314E+02  0.46526686938E+02  0.59215600980E+02  0.10566000000E+00 0. -1.
         23    2    1    0    0    0 -0.15157591515E+02 -0.22270802801E+02  0.12413436550E+02  0.95427993242E+02  0.90700977113E+02 0.  0.
         13    1    3    3    0    0 -0.21252718284E+01  0.11962255513E+02 -0.34113250388E+02  0.36212392262E+02  0.10566000000E+00 0.  1.
         22    1    1    0    0    0  0.15157591515E+02  0.22270802801E+02 -0.12413436550E+02  0.29662006758E+02  0.00000000000E+00 0. -1.
</event>
<event>
 5    1  0.1261138E-009  0.9118800E+02  0.7561462E-02  0.1125453E+00
         25   -1    0    0    0    0  0.00000000000E+00  0.00000000000E+00  0.99999998245E-14  0.12509000000E+03  0.12509000000E+03 0.  0.
        -13    1    3    3    0    0  0.16790332161E+02  0.32646872455E+02 -0.43115492525E+02  0.56627646913E+02  0.10566000000E+00 0.  1.
         23    2    1    0    0    0  0.11363135194E+00  0.63382589134E+00 -0.30075920310E+02  0.95007187136E+02  0.90118754861E+02 0.  0.
         13    1    3    3    0    0 -0.16676700809E+02 -0.32013046564E+02  0.13039572215E+02  0.38379540223E+02  0.10566000000E+00 0. -1.
         22    1    1    0    0    0 -0.11363135194E+00 -0.63382589134E+00  0.30075920310E+02  0.30082812864E+02  0.00000000000E+00 0.  1.
</event>
<event>
 5    1  0.1261138E-009  0.9118800E+02  0.7561462E-02  0.1125453E+00
         25   -1    0    0    0    0  0.00000000000E+00  0.00000000000E+00  0.99999998245E-14  0.12509000000E+03  0.12509000000E+03 0.  0.
        -13    1    3    3    0    0 -0.28753385266E+02  0.45264751672E+02 -0.28391337061E+02  0.60677294702E+02  0.10566000000E+00 0. -1.
         23    2    1    0    0    0 -0.28294424916E+02  0.25637745977E+02 -0.18420617513E+02  0.82696749951E+02  0.71003977373E+02 0.  0.
         13    1    3    3    0    0  0.45896034915E+00 -0.19627005695E+02  0.99707195480E+01  0.22019455250E+02  0.10566000000E+00 0.  1.
         22    1    1    0    0    0  0.28294424916E+02 -0.25637745977E+02  0.18420617513E+02  0.42393250049E+02  0.00000000000E+00 0. -1.
</event>
<event>
 5    1  0.1261138E-009  0.9118800E+02  0.7561462E-02  0.1125453E+00
         25   -1    0    0    0    0  0.00000000000E+00  0.00000000000E+00  0.99999998245E-14  0.12509000000E+03  0.12509000000E+03 0.  0.
        -13    1    3    3    0    0 -0.20758521988E+02  0.40176383285E+02  0.22189537115E+02  0.50373055599E+02  0.10566000000E+00 0.  1.
         23    2    1    0    0    0 -0.29692495609E+02  0.52299807013E+01 -0.36165441481E+01  0.94724289318E+02  0.89725217201E+02 0.  0.
         13    1    3    3    0    0 -0.89339736214E+01 -0.34946402584E+02 -0.25806081263E+02  0.44351233719E+02  0.10566000000E+00 0. -1.
         22    1    1    0    0    0  0.29692495609E+02 -0.52299807013E+01  0.36165441481E+01  0.30365710682E+02  0.00000000000E+00 0.  1.
</event>
<event>
 5    1  0.1261138E-009  0.9118800E+02  0.7561462E-02  0.1125453E+00
         25   -1    0    0    0    0  0.00000000000E+00  0.00000000000E+00  0.99999998245E-14  0.12509000000E+03  0.12509000000E+03 0.  0.
        -13    1    3    3    0    0  0.52823720346E+02 -0.37970528040E+01  0.33233721755E+02  0.62524031116E+02  0.10566000000E+00 0.  1.
         23    2    1    0    0    0  0.24301401327E+02 -0.15782262878E+01  0.16615287278E+02  0.95609215139E+02  0.90950565384E+02 0.  0.
         13    1    3    3    0    0 -0.28522319020E+02  0.22188265162E+01 -0.16618434477E+02  0.33085184024E+02  0.10566000000E+00 0. -1.
         22    1    1    0    0    0 -0.24301401327E+02  0.15782262878E+01 -0.16615287278E+02  0.29480784861E+02  0.00000000000E+00 0.  1.
</event>
<event>
 5    1  0.1261138E-009  0.9118800E+02  0.7561462E-02  0.1125453E+00
         25   -1    0    0    0    0  0.00000000000E+00  0.00000000000E+00  0.99999998245E-14  0.12509000000E+03  0.12509000000E+03 0.  0.
        -13    1    3    3    0    0 -0.92240848226E+00  0.41764171905E+02  0.33366338863E+02  0.53464199475E+02  0.10566000000E+00 0.  1.
         23    2    1    0    0    0 -0.65544748232E+01  0.32130960920E+02 -0.36207326899E+01  0.92098038932E+02  0.85985924895E+02 0.  0.
         13    1    3    3    0    0 -0.56320663410E+01 -0.96332109849E+01 -0.36987071553E+02  0.38633839457E+02  0.10566000000E+00 0. -1.
         22    1    1    0    0    0  0.65544748232E+01 -0.32130960920E+02  0.36207326899E+01  0.32991961068E+02  0.00000000000E+00 0.  1.
</event>
<event>
 5    1  0.1261138E-009  0.9118800E+02  0.7561462E-02  0.1125453E+00
         25   -1    0    0    0    0  0.00000000000E+00  0.00000000000E+00  0.99999998245E-14  0.12509000000E+03  0.12509000000E+03 0.  0.
        -13    1    3    3    0    0  0.26552810686E+02 -0.30573379840E+02 -0.28640222584E+01  0.40595530514E+02  0.10566000000E+00 0.  1.
         23    2    1    0    0    0  0.23702774135E+01  0.13601396708E+02  0.23796789204E+02  0.97578122859E+02  0.93619371269E+02 0.  0.
         13    1    3    3    0    0 -0.24182533272E+02  0.44174776548E+02  0.26660811462E+02  0.56982592345E+02  0.10566000000E+00 0. -1.
         22    1    1    0    0    0 -0.23702774135E+01 -0.13601396708E+02 -0.23796789204E+02  0.27511877141E+02  0.00000000000E+00 0.  1.
</event>
<event>
 4    1  0.1261138E-009  0.9118800E+02  0.7561462E-02  0.1125453E+00
         25   -1    0    0    0    0  0.00000000000E+00  0.00000000000E+00  0.99999998245E-14  0.12509000000E+03  0.12509000000E+03 0.  0.
        -13    1    1    0    0    0 -0.18780325234E+02 -0.37801830551E+02 -0.18590342763E+02  0.46122565160E+02  0.10566000000E+00 0.  1.
         13    1    1    0    0    0 -0.17661303999E+02  0.15259939974E+02 -0.12070825633E+02  0.26277431809E+02  0.10566000000E+00 0. -1.
         22    1    1    0    0    0  0.36441629234E+02  0.22541890576E+02  0.30661168396E+02  0.52690003031E+02  0.00000000000E+00 0.  1.
</event>
<event>
 5    1  0.1261138E-009  0.9118800E+02  0.7561462E-02  0.1125453E+00
         25   -1    0    0    0    0  0.00000000000E+00  0.00000000000E+00  0.99999998245E-14  0.12509000000E+03  0.12509000000E+03 0.  0.
        -13    1    3    3    0    0  0.38237308028E+02 -0.12893870777E+02 -0.43284563801E+02  0.59176923343E+02  0.10566000000E+00 0. -1.
         23    2    1    0    0    0  0.85130339777E+01  0.22367288432E+01 -0.27762321966E+02  0.95965762252E+02  0.91439632000E+02 0.  0.
         13    1    3    3    0    0 -0.29724274051E+02  0.15130599620E+02  0.15522241835E+02  0.36788838910E+02  0.10566000000E+00 0.  1.
         22    1    1    0    0    0 -0.85130339777E+01 -0.22367288432E+01  0.27762321966E+02  0.29124237748E+02  0.00000000000E+00 0. -1.
</event>
<event>
 5    1  0.1261138E-009  0.9118800E+02  0.7561462E-02  0.1125453E+00
         25   -1    0    0    0    0  0.00000000000E+00  0.00000000000E+00  0.99999998245E-14  0.12509000000E+03  0.12509000000E+03 0.  0.
        -13    1    3    3    0    0  0.34518142684E+02 -0.34895892419E+02  0.25671130124E+02  0.55391728335E+02  0.10566000000E+00 0. -1.
         23    2    1    0    0    0  0.29153126298E+02 -0.22423584975E+01  0.25926588058E+01  0.95736042443E+02  0.91124831952E+02 0.  0.
         13    1    3    3    0    0 -0.53650163863E+01  0.32653533921E+02 -0.23078471319E+02  0.40344314107E+02  0.10566000000E+00 0.  1.
         22    1    1    0    0    0 -0.29153126298E+02  0.22423584975E+01 -0.25926588058E+01  0.29353957557E+02  0.00000000000E+00 0. -1.
</event>
<event>
 5    1  0.1261138E-009  0.9118800E+02  0.7561462E-02  0.1125453E+00
         25   -1    0    0    0    0  0.00000000000E+00  0.00000000000E+00  0.99999998245E-14  0.12509000000E+03  0.12509000000E+03 0.  0.
        -13    1    3    3    0    0  0.48532649529E+02  0.19622521697E+02  0.25014501912E+02  0.58018944303E+02  0.10566000000E+00 0.  1.
         23    2    1    0    0    0  0.20378585393E+02 -0.40433491333E+01  0.21857861169E+02  0.94933715253E+02  0.90016713904E+02 0.  0.
         13    1    3    3    0    0 -0.28154064136E+02 -0.23665870830E+02 -0.31566407431E+01  0.36914770950E+02  0.10566000000E+00 0. -1.
         22    1    1    0    0    0 -0.20378585393E+02  0.40433491333E+01 -0.21857861169E+02  0.30156284747E+02  0.00000000000E+00 0.  1.
</event>
<event>
 5    1  0.1261138E-009  0.9118800E+02  0.7561462E-02  0.1125453E+00
         25   -1    0    0    0    0  0.00000000000E+00  0.00000000000E+00  0.99999998245E-14  0.12509000000E+03  0.12509000000E+03 0.  0.
        -13    1    3    3    0    0 -0.35227447457E+02  0.11991001584E+02 -0.33109913428E+02  0.49809985993E+02  0.10566000000E+00 0.  1.
         23    2    1    0    0    0 -0.15989759927E+02 -0.22518494791E+02 -0.92553029370E+01  0.95962424360E+02  0.91435065629E+02 0.  0.
         13    1    3    3    0    0  0.19237687530E+02 -0.34509496375E+02  0.23854610491E+02  0.46152438368E+02  0.10566000000E+00 0. -1.
         22    1    1    0    0    0  0.15989759927E+02  0.22518494791E+02  0.92553029370E+01  0.29127575640E+02  0.00000000000E+00 0. -1.
</event>
<event>
 5    1  0.1261138E-009  0.9118800E+02  0.7561462E-02  0.1125453E+00
         25   -1    0    0    0    0  0.00000000000E+00  0.00000000000E+00  0.99999998245E-14  0.12509000000E+03  0.12509000000E+03 0.  0.
        -13    1    3    3    0    0 -0.33675398058E+02 -0.24713599771E+01  0.51166078194E+02  0.61303497260E+02  0.10566000000E+00 0.  1.
         23    2    1    0    0    0 -0.18227873696E+02 -0.91559357754E+01  0.21221052267E+02  0.95654993652E+02  0.91013505656E+02 0.  0.
         13    1    3    3    0    0  0.15447524362E+02 -0.66845757983E+01 -0.29945025928E+02  0.34351496392E+02  0.10566000000E+00 0. -1.
         22    1    1    0    0    0  0.18227873696E+02  0.91559357754E+01 -0.21221052267E+02  0.29435006348E+02  0.00000000000E+00 0.  1.
</event>
<event>
 5    1  0.1261138E-009  0.9118800E+02  0.7561462E-02  0.1125453E+00
         25   -1    0    0    0    0  0.00000000000E+00  0.00000000000E+00  0.99999998245E-14  0.12509000000E+03  0.12509000000E+03 0.  0.
        -13    1    3    3    0    0 -0.77861132174E+01  0.42112379970E+01  0.36423106988E+02  0.37483489315E+02  0.10566000000E+00 0. -1.
         23    2    1    0    0    0 -0.18962889804E+02 -0.58874587988E+01 -0.20609400461E+02  0.96471810886E+02  0.92129308841E+02 0.  0.
         13    1    3    3    0    0 -0.11176776586E+02 -0.10098696796E+02 -0.57032507449E+02  0.58988321571E+02  0.10566000000E+00 0.  1.
         22    1    1    0    0    0  0.18962889804E+02  0.58874587988E+01  0.20609400461E+02  0.28618189114E+02  0.00000000000E+00 0.  1.
</event>
<event>
 5    1  0.1261138E-009  0.9118800E+02  0.7561462E-02  0.1125453E+00
         25   -1    0    0    0    0  0.00000000000E+00  0.00000000000E+00  0.99999998245E-14  0.12509000000E+03  0.12509000000E+03 0.  0.
        -13    1    3    3    0    0  0.52715907479E+00 -0.40800390683E+02 -0.74904641663E+01  0.41485756520E+02  0.10566000000E+00 0.  1.
         23    2    1    0    0    0  0.27041342658E+02  0.74361078668E+01 -0.51286336069E+01  0.96579777349E+02  0.92275785541E+02 0.  0.
         13    1    3    3    0    0  0.26514183583E+02  0.48236498550E+02  0.23618305595E+01  0.55094020829E+02  0.10566000000E+00 0. -1.
         22    1    1    0    0    0 -0.27041342658E+02 -0.74361078668E+01  0.51286336069E+01  0.28510222651E+02  0.00000000000E+00 0. -1.
</event>
<event>
 5    1  0.1261138E-009  0.9118800E+02  0.7561462E-02  0.1125453E+00
         25   -1    0    0    0    0  0.00000000000E+00  0.00000000000E+00  0.99999998245E-14  0.12509000000E+03  0.12509000000E+03 0.  0.
        -13    1    3    3    0    0 -0.38306443741E+02  0.16621147112E+02  0.38491125860E+02  0.56791056491E+02  0.10566000000E+00 0. -1.
         23    2    1    0    0    0 -0.25123053476E+02  0.17810628406E+02  0.36298716896E+01  0.94080932477E+02  0.88823755759E+02 0.  0.
         13    1    3    3    0    0  0.13183390265E+02  0.11894812941E+01 -0.34861254171E+02  0.37289875986E+02  0.10566000000E+00 0.  1.
         22    1    1    0    0    0  0.25123053476E+02 -0.17810628406E+02 -0.36298716896E+01  0.31009067523E+02  0.00000000000E+00 0. -1.
</event>
<event>
 5    1  0.1261138E-009  0.9118800E+02  0.7561462E-02  0.1125453E+00
         25   -1    0    0    0    0  0.00000000000E+00  0.00000000000E+00  0.99999998245E-14  0.12509000000E+03  0.12509000000E+03 0.  0.
        -13    1    3    3    0    0 -0.35193183863E+02 -0.16148202440E+02  0.16065982780E+02  0.41921970364E+02  0.10566000000E+00 0.  1.
         23    2    1    0    0    0 -0.20650893458E+00  0.26081803773E+02  0.10234123608E+02  0.97071427231E+02  0.92939881454E+02 0.  0.
         13    1    3    3    0    0  0.34986674929E+02  0.42230006213E+02 -0.58318591724E+01  0.55149456867E+02  0.10566000000E+00 0. -1.
         22    1    1    0    0    0  0.20650893458E+00 -0.26081803773E+02 -0.10234123608E+02  0.28018572769E+02  0.00000000000E+00 0. -1.
</event>
<event>
 5    1  0.1261138E-009  0.9118800E+02  0.7561462E-02  0.1125453E+00
         25   -1    0    0    0    0  0.00000000000E+00  0.00000000000E+00  0.99999998245E-14  0.12509000000E+03  0.12509000000E+03 0.  0.
        -13    1    3    3    0    0 -0.10932639600E+02 -0.95683083163E+01  0.44934381551E+02  0.47224833955E+02  0.10566000000E+00 0. -1.
         23    2    1    0    0    0  0.24379930882E+02  0.54680043589E+01  0.14550972959E+02  0.96176146650E+02  0.91726987681E+02 0.  0.
         13    1    3    3    0    0  0.35312570482E+02  0.15036312675E+02 -0.30383408592E+02  0.48951312696E+02  0.10566000000E+00 0.  1.
         22    1    1    0    0    0 -0.24379930882E+02 -0.54680043589E+01 -0.14550972959E+02  0.28913853350E+02  0.00000000000E+00 0.  1.
</event>
<event>
 5    1  0.1261138E-009  0.9118800E+02  0.7561462E-02  0.1125453E+00
         25   -1    0    0    0    0  0.00000000000E+00  0.00000000000E+00  0.99999998245E-14  0.12509000000E+03  0.12509000000E+03 0.  0.
        -13    1    3    3    0    0  0.45195626468E+01 -0.33432378852E+02 -0.18061567634E+02  0.38267241757E+02  0.10566000000E+00 0.  1.
         23    2    1    0    0    0 -0.14986656642E+02 -0.14891267590E+01  0.25360970009E+02  0.95594302422E+02  0.90930052678E+02 0.  0.
         13    1    3    3    0    0 -0.19506219289E+02  0.31943252093E+02  0.43422537642E+02  0.57327060666E+02  0.10566000000E+00 0. -1.
         22    1    1    0    0    0  0.14986656642E+02  0.14891267590E+01 -0.25360970009E+02  0.29495697578E+02  0.00000000000E+00 0. -1.
</event>
<event>
 5    1  0.1261138E-009  0.9118800E+02  0.7561462E-02  0.1125453E+00
         25   -1    0    0    0    0  0.00000000000E+00  0.00000000000E+00  0.99999998245E-14  0.12509000000E+03  0.12509000000E+03 0.  0.
        -13    1    3    3    0    0  0.49928784209E+02  0.30955170636E+01 -0.22203099392E+02  0.54730745519E+02  0.10566000000E+00 0.  1.
         23    2    1    0    0    0  0.17896642246E+02 -0.20296173881E+02 -0.10208193999E+02  0.96168871000E+02  0.91717065189E+02 0.  0.
         13    1    3    3    0    0 -0.32032141963E+02 -0.23391690944E+02  0.11994905392E+02  0.41438125481E+02  0.10566000000E+00 0. -1.
         22    1    1    0    0    0 -0.17896642246E+02  0.20296173881E+02  0.10208193999E+02  0.28921129000E+02  0.00000000000E+00 0.  1.
</event>
<event>
 5    1  0.1261138E-009  0.9118800E+02  0.7561462E-02  0.1125453E+00
         25   -1    0    0    0    0  0.00000000000E+00  0.00000000000E+00  0.99999998245E-14  0.12509000000E+03  0.12509000000E+03 0.  0.
        -13    1    3    3    0    0  0.13361206379E+02  0.32840042343E+02 -0.15823394596E+02  0.38825007374E+02  0.10566000000E+00 0.  1.
         23    2    1    0    0    0 -0.18836408587E+02  0.39464654002E+01  0.21694992226E+02  0.96089007512E+02  0.91608077151E+02 0.  0.
         13    1    3    3    0    0 -0.32197614966E+02 -0.28893576943E+02  0.37518386822E+02  0.57264000138E+02  0.10566000000E+00 0. -1.
         22    1    1    0    0    0  0.18836408587E+02 -0.39464654002E+01 -0.21694992226E+02  0.29000992488E+02  0.00000000000E+00 0. -1.
</event>
<event>
 5    1  0.1261138E-009  0.9118800E+02  0.7561462E-02  0.1125453E+00
         25   -1    0    0    0    0  0.00000000000E+00  0.00000000000E+00  0.99999998245E-14  0.12509000000E+03  0.12509000000E+03 0.  0.
        -13    1    3    3    0    0 -0.39593886321E+02 -0.24620182779E+02  0.62822328523E+01  0.47045795218E+02  0.10566000000E+00 0.  1.
         23    2    1    0    0    0 -0.22435695473E+02  0.18221677061E+02 -0.75365452719E+01  0.95220459312E+02  0.90414304237E+02 0.  0.
         13    1    3    3    0    0  0.17158190848E+02  0.42841859840E+02 -0.13818778124E+02  0.48174664094E+02  0.10566000000E+00 0. -1.
         22    1    1    0    0    0  0.22435695473E+02 -0.18221677061E+02  0.75365452719E+01  0.29869540688E+02  0.00000000000E+00 0.  1.
</event>
<event>
 5    1  0.1261138E-009  0.9118800E+02  0.7561462E-02  0.1125453E+00
         25   -1    0    0    0    0  0.00000000000E+00  0.00000000000E+00  0.99999998245E-14  0.12509000000E+03  0.12509000000E+03 0.  0.
        -13    1    3    3    0    0  0.23201648842E+02 -0.33062621513E+02  0.41662164222E+02  0.58027584320E+02  0.10566000000E+00 0. -1.
         23    2    1    0    0    0  0.66174064408E+00 -0.64965653059E+01  0.29417357766E+02  0.94956560114E+02  0.90048454231E+02 0.  0.
         13    1    3    3    0    0 -0.22539908198E+02  0.26566056207E+02 -0.12244806457E+02  0.36928975794E+02  0.10566000000E+00 0.  1.
         22    1    1    0    0    0 -0.66174064408E+00  0.64965653059E+01 -0.29417357766E+02  0.30133439886E+02  0.00000000000E+00 0. -1.
</event>
<event>
 5    1  0.1261138E-009  0.9118800E+02  0.7561462E-02  0.1125453E+00
         25   -1    0    0    0    0  0.00000000000E+00  0.00000000000E+00  0.99999998245E-14  0.12509000000E+03  0.12509000000E+03 0.  0.
        -13    1    3    3    0    0 -0.11861417594E+02 -0.24818307769E+02  0.11107251501E+02  0.29665195563E+02  0.10566000000E+00 0. -1.
         23    2    1    0    0    0  0.18157798319E+02  0.24243386793E+02 -0.13125930594E+02  0.92078827695E+02  0.85957972363E+02 0.  0.
         13    1    3    3    0    0  0.30019215913E+02  0.49061694562E+02 -0.24233182096E+02  0.62413632132E+02  0.10566000000E+00 0.  1.
         22    1    1    0    0    0 -0.18157798319E+02 -0.24243386793E+02  0.13125930594E+02  0.33011172305E+02  0.00000000000E+00 0.  1.
</event>
<event>
 5    1  0.1261138E-009  0.9118800E+02  0.7561462E-02  0.1125453E+00
         25   -1    0    0    0    0  0.00000000000E+00  0.00000000000E+00  0.99999998245E-14  0.12509000000E+03  0.12509000000E+03 0.  0.
        -13    1    3    3    0    0  0.12342036084E+02 -0.50561782091E+01 -0.56653016595E+02  0.58201943663E+02  0.10566000000E+00 0.  1.
         23    2    1    0    0    0  0.19682414925E+02 -0.10792377031E+02 -0.23698208114E+02  0.92448340620E+02  0.86494033068E+02 0.  0.
         13    1    3    3    0    0  0.73403788415E+01 -0.57361988223E+01  0.32954808481E+02  0.34246396957E+02  0.10566000000E+00 0. -1.
         22    1    1    0    0    0 -0.19682414925E+02  0.10792377031E+02  0.23698208114E+02  0.32641659380E+02  0.00000000000E+00 0.  1.
</event>
<event>
 5    1  0.1261138E-009  0.9118800E+02  0.7561462E-02  0.1125453E+00
         25   -1    0    0    0    0  0.00000000000E+00  0.00000000000E+00  0.99999998245E-14  0.12509000000E+03  0.12509000000E+03 0.  0.
        -13    1    3    3    0    0  0.33172877680E+02  0.29854986681E+02 -0.20102342657E+02  0.48947680104E+02  0.10566000000E+00 0.  1.
         23    2    1    0    0    0  0.15874180092E+02  0.12286945750E+02  0.20467290015E+02  0.96421749443E+02  0.92061312046E+02 0.  0.
         13    1    3    3    0    0 -0.17298697588E+02 -0.17568040930E+02  0.40569632672E+02  0.47474069338E+02  0.10566000000E+00 0. -1.
         22    1    1    0    0    0 -0.15874180092E+02 -0.12286945750E+02 -0.20467290015E+02  0.28668250557E+02  0.00000000000E+00 0. -1.
</event>
<event>
 5    1  0.1261138E-009  0.9118800E+02  0.7561462E-02  0.1125453E+00
         25   -1    0    0    0    0  0.00000000000E+00  0.00000000000E+00  0.99999998245E-14  0.12509000000E+03  0.12509000000E+03 0.  0.
        -13    1    3    3    0    0 -0.51407323049E+02 -0.37103068471E+01 -0.13947773803E+02  0.53395044696E+02  0.10566000000E+00 0. -1.
         23    2    1    0    0    0 -0.20211923176E+02 -0.24969452215E+02 -0.23847678486E+01  0.92876920357E+02  0.87111651545E+02 0.  0.
         13    1    3    3    0    0  0.31195399873E+02 -0.21259145367E+02  0.11563005955E+02  0.39481875661E+02  0.10566000000E+00 0.  1.
         22    1    1    0    0    0  0.20211923176E+02  0.24969452215E+02  0.23847678486E+01  0.32213079643E+02  0.00000000000E+00 0. -1.
</event>
<event>
 5    1  0.1261138E-009  0.9118800E+02  0.7561462E-02  0.1125453E+00
         25   -1    0    0    0    0  0.00000000000E+00  0.00000000000E+00  0.99999998245E-14  0.12509000000E+03  0.12509000000E+03 0.  0.
        -13    1    3    3    0    0  0.36032305596E+02  0.25135808543E+02 -0.13952343725E+02  0.46095715388E+02  0.10566000000E+00 0.  1.
         23    2    1    0    0    0 -0.10292041517E+02  0.41486936292E+01 -0.24642801078E+02  0.98063986191E+02  0.94266324662E+02 0.  0.
         13    1    3    3    0    0 -0.46324347113E+02 -0.20987114914E+02 -0.10690457353E+02  0.51968270803E+02  0.10566000000E+00 0. -1.
         22    1    1    0    0    0  0.10292041517E+02 -0.41486936292E+01  0.24642801078E+02  0.27026013809E+02  0.00000000000E+00 0. -1.
</event>
<event>
 5    1  0.1261138E-009  0.9118800E+02  0.7561462E-02  0.1125453E+00
         25   -1    0    0    0    0  0.00000000000E+00  0.00000000000E+00  0.99999998245E-14  0.12509000000E+03  0.12509000000E+03 0.  0.
        -13    1    3    3    0    0  0.78645360534E+01  0.60633310830E+02 -0.12182129649E+02  0.62343121164E+02  0.10566000000E+00 0.  1.
         23    2    1    0    0    0  0.64552057319E+01  0.26777360313E+02 -0.74372493255E+01  0.96559150312E+02  0.92247819081E+02 0.  0.
         13    1    3    3    0    0 -0.14093303215E+01 -0.33855950517E+02  0.47448803238E+01  0.34216029149E+02  0.10566000000E+00 0. -1.
         22    1    1    0    0    0 -0.64552057319E+01 -0.26777360313E+02  0.74372493255E+01  0.28530849688E+02  0.00000000000E+00 0.  1.
</event>
<event>
 5    1  0.1261138E-009  0.9118800E+02  0.7561462E-02  0.1125453E+00
         25   -1    0    0    0    0  0.00000000000E+00  0.00000000000E+00  0.99999998245E-14  0.12509000000E+03  0.12509000000E+03 0.  0.
        -13    1    3    3    0    0  0.97004504544E+01 -0.36397420538E+02  0.13501141829E+02  0.40014534304E+02  0.10566000000E+00 0.  1.
         23    2    1    0    0    0 -0.36528092060E+01  0.17643189559E+02 -0.14159890521E+02  0.10217433609E+03  0.99571418102E+02 0.  0.
         13    1    3    3    0    0 -0.13353259660E+02  0.54040610097E+02 -0.27661032350E+02  0.62159801785E+02  0.10566000000E+00 0. -1.
         22    1    1    0    0    0  0.36528092060E+01 -0.17643189559E+02  0.14159890521E+02  0.22915663911E+02  0.00000000000E+00 0. -1.
</event>
<event>
 5    1  0.1261138E-009  0.9118800E+02  0.7561462E-02  0.1125453E+00
         25   -1    0    0    0    0  0.00000000000E+00  0.00000000000E+00  0.99999998245E-14  0.12509000000E+03  0.12509000000E+03 0.  0.
        -13    1    3    3    0    0  0.39717746440E+01  0.35866140194E+02  0.19462484136E+02  0.40999444619E+02  0.10566000000E+00 0. -1.
         23    2    1    0    0    0 -0.29156389689E+02 -0.45614412919E+01  0.59518961565E+01  0.94984736769E+02  0.90087587074E+02 0.  0.
         13    1    3    3    0    0 -0.33128164333E+02 -0.40427581486E+02 -0.13510587979E+02  0.53985292150E+02  0.10566000000E+00 0.  1.
         22    1    1    0    0    0  0.29156389689E+02  0.45614412919E+01 -0.59518961565E+01  0.30105263231E+02  0.00000000000E+00 0. -1.
</event>
<event>
 5    1  0.1261138E-009  0.9118800E+02  0.7561462E-02  0.1125453E+00
         25   -1    0    0    0    0  0.00000000000E+00  0.00000000000E+00  0.99999998245E-14  0.12509000000E+03  0.12509000000E+03 0.  0.
        -13    1    3    3    0    0  0.19816879011E+02 -0.32248675983E+02  0.67216964532E+01  0.38443180977E+02  0.10566000000E+00 0. -1.
         23    2    1    0    0    0  0.14129165613E+02  0.24516482478E+02 -0.40636228386E+01  0.96503215210E+02  0.92171938687E+02 0.  0.
         13    1    3    3    0    0 -0.56877133972E+01  0.56765158462E+02 -0.10785319292E+02  0.58060034233E+02  0.10566000000E+00 0.  1.
         22    1    1    0    0    0 -0.14129165613E+02 -0.24516482478E+02  0.40636228386E+01  0.28586784790E+02  0.00000000000E+00 0.  1.
</event>
<event>
 5    1  0.1261138E-009  0.9118800E+02  0.7561462E-02  0.1125453E+00
         25   -1    0    0    0    0  0.00000000000E+00  0.00000000000E+00  0.99999998245E-14  0.12509000000E+03  0.12509000000E+03 0.  0.
        -13    1    3    3    0    0  0.27164111298E+02 -0.21626698288E+01 -0.27627042557E+02  0.38805034826E+02  0.10566000000E+00 0. -1.
         23    2    1    0    0    0  0.31820658917E+01 -0.38251927509E+02 -0.14092327833E+02  0.84200769080E+02  0.73605980113E+02 0.  0.
         13    1    3    3    0    0 -0.23982045406E+02 -0.36089257680E+02  0.13534714723E+02  0.45395734254E+02  0.10566000000E+00 0.  1.
         22    1    1    0    0    0 -0.31820658917E+01  0.38251927509E+02  0.14092327833E+02  0.40889230920E+02  0.00000000000E+00 0.  1.
</event>
<event>
 5    1  0.1261138E-009  0.9118800E+02  0.7561462E-02  0.1125453E+00
         25   -1    0    0    0    0  0.00000000000E+00  0.00000000000E+00  0.99999998245E-14  0.12509000000E+03  0.12509000000E+03 0.  0.
        -13    1    3    3    0    0 -0.42608146700E+02 -0.25323898718E+02 -0.33360273276E+02  0.59746740569E+02  0.10566000000E+00 0.  1.
         23    2    1    0    0    0 -0.94274407748E+01 -0.17822553257E+02 -0.21096656408E+02  0.95908002883E+02  0.91360582645E+02 0.  0.
         13    1    3    3    0    0  0.33180705926E+02  0.75013454604E+01  0.12263616868E+02  0.36161262314E+02  0.10566000000E+00 0. -1.
         22    1    1    0    0    0  0.94274407748E+01  0.17822553257E+02  0.21096656408E+02  0.29181997117E+02  0.00000000000E+00 0.  1.
</event>
<event>
 5    1  0.1261138E-009  0.9118800E+02  0.7561462E-02  0.1125453E+00
         25   -1    0    0    0    0  0.00000000000E+00  0.00000000000E+00  0.99999998245E-14  0.12509000000E+03  0.12509000000E+03 0.  0.
        -13    1    3    3    0    0  0.11821407225E+02  0.58033088907E+02 -0.11217173413E+01  0.59235584665E+02  0.10566000000E+00 0. -1.
         23    2    1    0    0    0 -0.43401477415E+01  0.30086799361E+02  0.95337908043E+01  0.93231789986E+02  0.87619753017E+02 0.  0.
         13    1    3    3    0    0 -0.16161554967E+02 -0.27946289546E+02  0.10655508146E+02  0.33996205321E+02  0.10566000000E+00 0.  1.
         22    1    1    0    0    0  0.43401477415E+01 -0.30086799361E+02 -0.95337908043E+01  0.31858210014E+02  0.00000000000E+00 0. -1.
</event>
<event>
 5    1  0.1261138E-009  0.9118800E+02  0.7561462E-02  0.1125453E+00
         25   -1    0    0    0    0  0.00000000000E+00  0.00000000000E+00  0.99999998245E-14  0.12509000000E+03  0.12509000000E+03 0.  0.
        -13    1    3    3    0    0  0.47703270826E+02  0.25825733765E+02 -0.46491988385E+01  0.54444437603E+02  0.10566000000E+00 0.  1.
         23    2    1    0    0    0  0.67921044111E+01  0.25600534824E+02 -0.12001160341E+02  0.96011693393E+02  0.91502444520E+02 0.  0.
         13    1    3    3    0    0 -0.40911166415E+02 -0.22519894143E+00 -0.73519615026E+01  0.41567255791E+02  0.10566000000E+00 0. -1.
         22    1    1    0    0    0 -0.67921044111E+01 -0.25600534824E+02  0.12001160341E+02  0.29078306607E+02  0.00000000000E+00 0.  1.
</event>
<event>
 5    1  0.1261138E-009  0.9118800E+02  0.7561462E-02  0.1125453E+00
         25   -1    0    0    0    0  0.00000000000E+00  0.00000000000E+00  0.99999998245E-14  0.12509000000E+03  0.12509000000E+03 0.  0.
        -13    1    3    3    0    0 -0.19663507634E+02  0.39958089977E+02 -0.38228097032E+02  0.58691575663E+02  0.10566000000E+00 0. -1.
         23    2    1    0    0    0 -0.13825328595E+02  0.58017268631E+01 -0.25308694985E+02  0.95673511644E+02  0.91038953438E+02 0.  0.
         13    1    3    3    0    0  0.58381790384E+01 -0.34156363114E+02  0.12919402047E+02  0.36981935982E+02  0.10566000000E+00 0.  1.
         22    1    1    0    0    0  0.13825328595E+02 -0.58017268631E+01  0.25308694985E+02  0.29416488356E+02  0.00000000000E+00 0.  1.
</event>
<event>
 5    1  0.1261138E-009  0.9118800E+02  0.7561462E-02  0.1125453E+00
         25   -1    0    0    0    0  0.00000000000E+00  0.00000000000E+00  0.99999998245E-14  0.12509000000E+03  0.12509000000E+03 0.  0.
        -13    1    3    3    0    0 -0.26861386945E+02 -0.21731619315E+02  0.43641759523E+02  0.55663378670E+02  0.10566000000E+00 0. -1.
         23    2    1    0    0    0 -0.26369970768E+02 -0.10939693806E+02  0.45996167163E+01  0.96172726048E+02  0.91722322816E+02 0.  0.
         13    1    3    3    0    0  0.49141617664E+00  0.10791925509E+02 -0.39042142806E+02  0.40509347378E+02  0.10566000000E+00 0.  1.
         22    1    1    0    0    0  0.26369970768E+02  0.10939693806E+02 -0.45996167163E+01  0.28917273952E+02  0.00000000000E+00 0. -1.
</event>
<event>
 5    1  0.1261138E-009  0.9118800E+02  0.7561462E-02  0.1125453E+00
         25   -1    0    0    0    0  0.00000000000E+00  0.00000000000E+00  0.99999998245E-14  0.12509000000E+03  0.12509000000E+03 0.  0.
        -13    1    3    3    0    0 -0.44726248377E+01 -0.53720439091E+02  0.28418502348E+02  0.60938595231E+02  0.10566000000E+00 0. -1.
         23    2    1    0    0    0  0.65846170088E+01 -0.23675781205E+02  0.18079257493E+02  0.94581651171E+02  0.89526138026E+02 0.  0.
         13    1    3    3    0    0  0.11057241847E+02  0.30044657886E+02 -0.10339244855E+02  0.33643055939E+02  0.10566000000E+00 0.  1.
         22    1    1    0    0    0 -0.65846170088E+01  0.23675781205E+02 -0.18079257493E+02  0.30508348829E+02  0.00000000000E+00 0. -1.
</event>
<event>
 5    1  0.1261138E-009  0.9118800E+02  0.7561462E-02  0.1125453E+00
         25   -1    0    0    0    0  0.00000000000E+00  0.00000000000E+00  0.99999998245E-14  0.12509000000E+03  0.12509000000E+03 0.  0.
        -13    1    3    3    0    0  0.24826175864E+02  0.20659551257E+02 -0.15896326847E+02  0.35998061579E+02  0.10566000000E+00 0. -1.
         23    2    1    0    0    0 -0.25077160747E+02 -0.11779248086E+02 -0.92149210053E+01  0.95891893114E+02  0.91338522646E+02 0.  0.
         13    1    3    3    0    0 -0.49903336612E+02 -0.32438799344E+02  0.66814058413E+01  0.59893831534E+02  0.10566000000E+00 0.  1.
         22    1    1    0    0    0  0.25077160747E+02  0.11779248086E+02  0.92149210053E+01  0.29198106886E+02  0.00000000000E+00 0.  1.
</event>
<event>
 5    1  0.1261138E-009  0.9118800E+02  0.7561462E-02  0.1125453E+00
         25   -1    0    0    0    0  0.00000000000E+00  0.00000000000E+00  0.99999998245E-14  0.12509000000E+03  0.12509000000E+03 0.  0.
        -13    1    3    3    0    0 -0.49650085625E+02  0.15426345182E+02  0.33097390136E+02  0.61632390235E+02  0.10566000000E+00 0.  1.
         23    2    1    0    0    0 -0.35105375732E+02  0.14627985380E+02  0.30297210128E+02  0.76466072730E+02  0.59015031777E+02 0.  0.
         13    1    3    3    0    0  0.14544709893E+02 -0.79835980200E+00 -0.28001800075E+01  0.14833682495E+02  0.10566000000E+00 0. -1.
         22    1    1    0    0    0  0.35105375732E+02 -0.14627985380E+02 -0.30297210128E+02  0.48623927270E+02  0.00000000000E+00 0.  1.
</event>
<event>
 5    1  0.1261138E-009  0.9118800E+02  0.7561462E-02  0.1125453E+00
         25   -1    0    0    0    0  0.00000000000E+00  0.00000000000E+00  0.99999998245E-14  0.12509000000E+03  0.12509000000E+03 0.  0.
        -13    1    3    3    0    0  0.24996381385E+02 -0.91523944492E+01  0.24178680950E+02  0.35961162147E+02  0.10566000000E+00 0.  1.
         23    2    1    0    0    0  0.30470994965E+01 -0.78586096526E+01 -0.29733624778E+02  0.94184806206E+02  0.88969920291E+02 0.  0.
         13    1    3    3    0    0 -0.21949281888E+02  0.12937847966E+01 -0.53912305728E+02  0.58223644058E+02  0.10566000000E+00 0. -1.
         22    1    1    0    0    0 -0.30470994965E+01  0.78586096526E+01  0.29733624778E+02  0.30905193794E+02  0.00000000000E+00 0. -1.
</event>
<event>
 5    1  0.1261138E-009  0.9118800E+02  0.7561462E-02  0.1125453E+00
         25   -1    0    0    0    0  0.00000000000E+00  0.00000000000E+00  0.99999998245E-14  0.12509000000E+03  0.12509000000E+03 0.  0.
        -13    1    3    3    0    0 -0.17430081372E+02  0.17254965926E+02  0.34236399213E+02  0.42115125321E+02  0.10566000000E+00 0.  1.
         23    2    1    0    0    0  0.27231862994E+02  0.14901772887E+01  0.63136129945E+01  0.97096131037E+02  0.92973124949E+02 0.  0.
         13    1    3    3    0    0  0.44661944366E+02 -0.15764788638E+02 -0.27922786218E+02  0.54981005716E+02  0.10566000000E+00 0. -1.
         22    1    1    0    0    0 -0.27231862994E+02 -0.14901772887E+01 -0.63136129945E+01  0.27993868963E+02  0.00000000000E+00 0. -1.
</event>
<event>
 5    1  0.1261138E-009  0.9118800E+02  0.7561462E-02  0.1125453E+00
         25   -1    0    0    0    0  0.00000000000E+00  0.00000000000E+00  0.99999998245E-14  0.12509000000E+03  0.12509000000E+03 0.  0.
        -13    1    3    3    0    0  0.36756592952E+02  0.66496427691E+01 -0.10461361439E+02  0.38790670548E+02  0.10566000000E+00 0.  1.
         23    2    1    0    0    0 -0.61670003298E+01  0.10117721420E+02  0.26832152654E+02  0.95758027754E+02  0.91155006903E+02 0.  0.
         13    1    3    3    0    0 -0.42923593281E+02  0.34680786511E+01  0.37293514092E+02  0.56967357206E+02  0.10566000000E+00 0. -1.
         22    1    1    0    0    0  0.61670003298E+01 -0.10117721420E+02 -0.26832152654E+02  0.29331972246E+02  0.00000000000E+00 0. -1.
</event>
<event>
 5    1  0.1261138E-009  0.9118800E+02  0.7561462E-02  0.1125453E+00
         25   -1    0    0    0    0  0.00000000000E+00  0.00000000000E+00  0.99999998245E-14  0.12509000000E+03  0.12509000000E+03 0.  0.
        -13    1    3    3    0    0 -0.13054617038E+02 -0.35701576769E+02 -0.26874845374E+02  0.46554205908E+02  0.10566000000E+00 0. -1.
         23    2    1    0    0    0  0.54077822502E+01 -0.20211503820E+02  0.17999423576E+02  0.97490575284E+02  0.93502320959E+02 0.  0.
         13    1    3    3    0    0  0.18462399288E+02  0.15490072948E+02  0.44874268950E+02  0.50936369377E+02  0.10566000000E+00 0.  1.
         22    1    1    0    0    0 -0.54077822502E+01  0.20211503820E+02 -0.17999423576E+02  0.27599424716E+02  0.00000000000E+00 0.  1.
</event>
<event>
 5    1  0.1261138E-009  0.9118800E+02  0.7561462E-02  0.1125453E+00
         25   -1    0    0    0    0  0.00000000000E+00  0.00000000000E+00  0.99999998245E-14  0.12509000000E+03  0.12509000000E+03 0.  0.
        -13    1    3    3    0    0  0.46518312227E+02  0.94519909214E+01 -0.34197988633E+02  0.58504761306E+02  0.10566000000E+00 0.  1.
         23    2    1    0    0    0  0.31145636424E+02 -0.16347823037E+01 -0.47258905284E+01  0.93545472381E+02  0.88066441850E+02 0.  0.
         13    1    3    3    0    0 -0.15372675803E+02 -0.11086773225E+02  0.29472098105E+02  0.35040711075E+02  0.10566000000E+00 0. -1.
         22    1    1    0    0    0 -0.31145636424E+02  0.16347823037E+01  0.47258905284E+01  0.31544527619E+02  0.00000000000E+00 0.  1.
</event>
<event>
 5    1  0.1261138E-009  0.9118800E+02  0.7561462E-02  0.1125453E+00
         25   -1    0    0    0    0  0.00000000000E+00  0.00000000000E+00  0.99999998245E-14  0.12509000000E+03  0.12509000000E+03 0.  0.
        -13    1    3    3    0    0  0.63793400909E+01 -0.73422657073E+01 -0.44414002009E+02  0.45466686532E+02  0.10566000000E+00 0. -1.
         23    2    1    0    0    0  0.30798549893E+01 -0.36501188475E+02 -0.26925235105E+02  0.79628031803E+02  0.65374558480E+02 0.  0.
         13    1    3    3    0    0 -0.32994851017E+01 -0.29158922768E+02  0.17488766903E+02  0.34161345271E+02  0.10566000000E+00 0.  1.
         22    1    1    0    0    0 -0.30798549893E+01  0.36501188475E+02  0.26925235105E+02  0.45461968197E+02  0.00000000000E+00 0. -1.
</event>
<event>
 5    1  0.1261138E-009  0.9118800E+02  0.7561462E-02  0.1125453E+00
         25   -1    0    0    0    0  0.00000000000E+00  0.00000000000E+00  0.99999998245E-14  0.12509000000E+03  0.12509000000E+03 0.  0.
        -13    1    3    3    0    0  0.45775691811E+01 -0.49561351247E+02 -0.21067412552E+02  0.54047467218E+02  0.10566000000E+00 0.  1.
         23    2    1    0    0    0 -0.18273027747E+02 -0.21015454349E+02  0.18143854774E+01  0.97182207912E+02  0.93088864401E+02 0.  0.
         13    1    3    3    0    0 -0.22850596928E+02  0.28545896897E+02  0.22881798030E+02  0.43134740694E+02  0.10566000000E+00 0. -1.
         22    1    1    0    0    0  0.18273027747E+02  0.21015454349E+02 -0.18143854774E+01  0.27907792088E+02  0.00000000000E+00 0.  1.
</event>
<event>
 5    1  0.1261138E-009  0.9118800E+02  0.7561462E-02  0.1125453E+00
         25   -1    0    0    0    0  0.00000000000E+00  0.00000000000E+00  0.99999998245E-14  0.12509000000E+03  0.12509000000E+03 0.  0.
        -13    1    3    3    0    0  0.31748456721E+02 -0.11341192700E+02  0.24696198513E+02  0.41791153861E+02  0.10566000000E+00 0.  1.
         23    2    1    0    0    0 -0.16655055958E+02 -0.24107850533E+02  0.63332403384E+01  0.95111853301E+02  0.90263920582E+02 0.  0.
         13    1    3    3    0    0 -0.48403512679E+02 -0.12766657834E+02 -0.18362958175E+02  0.53320699441E+02  0.10566000000E+00 0. -1.
         22    1    1    0    0    0  0.16655055958E+02  0.24107850533E+02 -0.63332403384E+01  0.29978146699E+02  0.00000000000E+00 0. -1.
</event>
<event>
 5    1  0.1261138E-009  0.9118800E+02  0.7561462E-02  0.1125453E+00
         25   -1    0    0    0    0  0.00000000000E+00  0.00000000000E+00  0.99999998245E-14  0.12509000000E+03  0.12509000000E+03 0.  0.
        -13    1    3    3    0    0 -0.70303550798E+01  0.27452551788E+02 -0.22364657072E+02  0.36100658474E+02  0.10566000000E+00 0.  1.
         23    2    1    0    0    0 -0.15633738279E+02 -0.26051992854E+02 -0.16244474200E+02  0.90637089437E+02  0.83833638448E+02 0.  0.
         13    1    3    3    0    0 -0.86033831988E+01 -0.53504544642E+02  0.61201828719E+01  0.54536430964E+02  0.10566000000E+00 0. -1.
         22    1    1    0    0    0  0.15633738279E+02  0.26051992854E+02  0.16244474200E+02  0.34452910563E+02  0.00000000000E+00 0.  1.
</event>
<event>
 5    1  0.1261138E-009  0.9118800E+02  0.7561462E-02  0.1125453E+00
         25   -1    0    0    0    0  0.00000000000E+00  0.00000000000E+00  0.99999998245E-14  0.12509000000E+03  0.12509000000E+03 0.  0.
        -13    1    3    3    0    0  0.26892189067E+02  0.24290328234E+00 -0.34562520623E+02  0.43793011208E+02  0.10566000000E+00 0.  1.
         23    2    1    0    0    0 -0.18335577667E+02  0.16280266340E+02 -0.18417787502E+02  0.94423155086E+02  0.89304405488E+02 0.  0.
         13    1    3    3    0    0 -0.45227766734E+02  0.16037363057E+02  0.16144733121E+02  0.50630143879E+02  0.10566000000E+00 0. -1.
         22    1    1    0    0    0  0.18335577667E+02 -0.16280266340E+02  0.18417787502E+02  0.30666844914E+02  0.00000000000E+00 0. -1.
</event>
<event>
 5    1  0.1261138E-009  0.9118800E+02  0.7561462E-02  0.1125453E+00
         25   -1    0    0    0    0  0.00000000000E+00  0.00000000000E+00  0.99999998245E-14  0.12509000000E+03  0.12509000000E+03 0.  0.
        -13    1    3    3    0    0  0.15453082473E+02 -0.52449243313E+02  0.27139036298E+02  0.61043094100E+02  0.10566000000E+00 0.  1.
         23    2    1    0    0    0  0.40115230349E+00 -0.17553317681E+02  0.17607991259E+02  0.10022393395E+03  0.97090245107E+02 0.  0.
         13    1    3    3    0    0 -0.15051930169E+02  0.34895925632E+02 -0.95310450394E+01  0.39180839847E+02  0.10566000000E+00 0. -1.
         22    1    1    0    0    0 -0.40115230349E+00  0.17553317681E+02 -0.17607991259E+02  0.24866066053E+02  0.00000000000E+00 0.  1.
</event>
<event>
 5    1  0.1261138E-009  0.9118800E+02  0.7561462E-02  0.1125453E+00
         25   -1    0    0    0    0  0.00000000000E+00  0.00000000000E+00  0.99999998245E-14  0.12509000000E+03  0.12509000000E+03 0.  0.
        -13    1    3    3    0    0 -0.20174329975E+02 -0.13060790922E+02  0.21694695741E+02  0.32376825612E+02  0.10566000000E+00 0. -1.
         23    2    1    0    0    0  0.83482421250E+01  0.18665336979E+02 -0.23102421725E+02  0.94238584462E+02  0.89045499385E+02 0.  0.
         13    1    3    3    0    0  0.28522572100E+02  0.31726127901E+02 -0.44797117465E+02  0.61861758850E+02  0.10566000000E+00 0.  1.
         22    1    1    0    0    0 -0.83482421250E+01 -0.18665336979E+02  0.23102421725E+02  0.30851415538E+02  0.00000000000E+00 0.  1.
</event>
<event>
 5    1  0.1261138E-009  0.9118800E+02  0.7561462E-02  0.1125453E+00
         25   -1    0    0    0    0  0.00000000000E+00  0.00000000000E+00  0.99999998245E-14  0.12509000000E+03  0.12509000000E+03 0.  0.
        -13    1    3    3    0    0  0.15545272717E+02 -0.43018238811E+02  0.30604273453E+02  0.55035053301E+02  0.10566000000E+00 0.  1.
         23    2    1    0    0    0  0.16142475853E+02 -0.26154729674E+01  0.24104629840E+02  0.95961776484E+02  0.91434179281E+02 0.  0.
         13    1    3    3    0    0  0.59720313587E+00  0.40402765843E+02 -0.64996436132E+01  0.40926723183E+02  0.10566000000E+00 0. -1.
         22    1    1    0    0    0 -0.16142475853E+02  0.26154729674E+01 -0.24104629840E+02  0.29128223516E+02  0.00000000000E+00 0.  1.
</event>
<event>
 5    1  0.1261138E-009  0.9118800E+02  0.7561462E-02  0.1125453E+00
         25   -1    0    0    0    0  0.00000000000E+00  0.00000000000E+00  0.99999998245E-14  0.12509000000E+03  0.12509000000E+03 0.  0.
        -13    1    3    3    0    0 -0.30327505713E+02 -0.46464732999E+02 -0.98901947503E+01  0.56360945092E+02  0.10566000000E+00 0.  1.
         23    2    1    0    0    0  0.19761574135E+01 -0.28309574159E+02 -0.13635334395E+02  0.93605725651E+02  0.88151984342E+02 0.  0.
         13    1    3    3    0    0  0.32303663127E+02  0.18155158839E+02 -0.37451396450E+01  0.37244780559E+02  0.10566000000E+00 0. -1.
         22    1    1    0    0    0 -0.19761574135E+01  0.28309574159E+02  0.13635334395E+02  0.31484274349E+02  0.00000000000E+00 0.  1.
</event>
<event>
 5    1  0.1261138E-009  0.9118800E+02  0.7561462E-02  0.1125453E+00
         25   -1    0    0    0    0  0.00000000000E+00  0.00000000000E+00  0.99999998245E-14  0.12509000000E+03  0.12509000000E+03 0.  0.
        -13    1    3    3    0    0  0.40053687945E+02  0.37421124698E+02 -0.18298165345E+02  0.57788169297E+02  0.10566000000E+00 0.  1.
         23    2    1    0    0    0  0.26829801524E+02  0.20513178024E+01 -0.58001119060E+01  0.97563876905E+02  0.93600334530E+02 0.  0.
         13    1    3    3    0    0 -0.13223886421E+02 -0.35369806896E+02  0.12498053439E+02  0.39775707608E+02  0.10566000000E+00 0. -1.
         22    1    1    0    0    0 -0.26829801524E+02 -0.20513178024E+01  0.58001119060E+01  0.27526123095E+02  0.00000000000E+00 0.  1.
</event>
<event>
 5    1  0.1261138E-009  0.9118800E+02  0.7561462E-02  0.1125453E+00
         25   -1    0    0    0    0  0.00000000000E+00  0.00000000000E+00  0.99999998245E-14  0.12509000000E+03  0.12509000000E+03 0.  0.
        -13    1    3    3    0    0 -0.28921304758E+02 -0.34326575773E+02 -0.35799975756E+02  0.57414328363E+02  0.10566000000E+00 0.  1.
         23    2    1    0    0    0  0.18663466839E+01 -0.22218550244E+02 -0.23461722787E+02  0.92723355735E+02  0.86890857043E+02 0.  0.
         13    1    3    3    0    0  0.30787651442E+02  0.12108025530E+02  0.12338252969E+02  0.35309027371E+02  0.10566000000E+00 0. -1.
         22    1    1    0    0    0 -0.18663466839E+01  0.22218550244E+02  0.23461722787E+02  0.32366644265E+02  0.00000000000E+00 0.  1.
</event>
<event>
 5    1  0.1261138E-009  0.9118800E+02  0.7561462E-02  0.1125453E+00
         25   -1    0    0    0    0  0.00000000000E+00  0.00000000000E+00  0.99999998245E-14  0.12509000000E+03  0.12509000000E+03 0.  0.
        -13    1    3    3    0    0 -0.35120516951E+02 -0.23438926964E+02  0.16823400901E+02  0.45451864539E+02  0.10566000000E+00 0. -1.
         23    2    1    0    0    0  0.93964981032E+01 -0.27077061416E+02 -0.62949517594E+01  0.95745701590E+02  0.91138090411E+02 0.  0.
         13    1    3    3    0    0  0.44517015054E+02 -0.36381344515E+01 -0.23118352660E+02  0.50293837052E+02  0.10566000000E+00 0.  1.
         22    1    1    0    0    0 -0.93964981032E+01  0.27077061416E+02  0.62949517594E+01  0.29344298410E+02  0.00000000000E+00 0.  1.
</event>
<event>
 5    1  0.1261138E-009  0.9118800E+02  0.7561462E-02  0.1125453E+00
         25   -1    0    0    0    0  0.00000000000E+00  0.00000000000E+00  0.99999998245E-14  0.12509000000E+03  0.12509000000E+03 0.  0.
        -13    1    3    3    0    0 -0.33566534315E+02 -0.39607115924E+02 -0.83972559136E+01  0.52592403716E+02  0.10566000000E+00 0.  1.
         23    2    1    0    0    0 -0.27158218184E+02  0.12735777708E-01  0.92002762664E+01  0.96415724760E+02  0.92053125534E+02 0.  0.
         13    1    3    3    0    0  0.64083161303E+01  0.39619851702E+02  0.17597532180E+02  0.43823321044E+02  0.10566000000E+00 0. -1.
         22    1    1    0    0    0  0.27158218184E+02 -0.12735777708E-01 -0.92002762664E+01  0.28674275240E+02  0.00000000000E+00 0.  1.
</event>
<event>
 5    1  0.1261138E-009  0.9118800E+02  0.7561462E-02  0.1125453E+00
         25   -1    0    0    0    0  0.00000000000E+00  0.00000000000E+00  0.99999998245E-14  0.12509000000E+03  0.12509000000E+03 0.  0.
        -13    1    3    3    0    0  0.67036687974E+01 -0.18892481036E+02 -0.32640341573E+02  0.38304935414E+02  0.10566000000E+00 0.  1.
         23    2    1    0    0    0 -0.22842134474E+02 -0.88334636961E+01  0.15811020084E+02  0.95938987251E+02  0.91402996289E+02 0.  0.
         13    1    3    3    0    0 -0.29545803271E+02  0.10059017340E+02  0.48451361657E+02  0.57634051837E+02  0.10566000000E+00 0. -1.
         22    1    1    0    0    0  0.22842134474E+02  0.88334636961E+01 -0.15811020084E+02  0.29151012749E+02  0.00000000000E+00 0. -1.
</event>
<event>
 5    1  0.1261138E-009  0.9118800E+02  0.7561462E-02  0.1125453E+00
         25   -1    0    0    0    0  0.00000000000E+00  0.00000000000E+00  0.99999998245E-14  0.12509000000E+03  0.12509000000E+03 0.  0.
        -13    1    3    3    0    0 -0.43104459104E+02  0.27037657933E+01  0.42032698809E+02  0.60266604992E+02  0.10566000000E+00 0.  1.
         23    2    1    0    0    0 -0.22451030159E+02 -0.10056305633E+02  0.16684410589E+02  0.95365471494E+02  0.90614709393E+02 0.  0.
         13    1    3    3    0    0  0.20653428945E+02 -0.12760071426E+02 -0.25348288220E+02  0.35098866502E+02  0.10566000000E+00 0. -1.
         22    1    1    0    0    0  0.22451030159E+02  0.10056305633E+02 -0.16684410589E+02  0.29724528506E+02  0.00000000000E+00 0.  1.
</event>
<event>
 5    1  0.1261138E-009  0.9118800E+02  0.7561462E-02  0.1125453E+00
         25   -1    0    0    0    0  0.00000000000E+00  0.00000000000E+00  0.99999998245E-14  0.12509000000E+03  0.12509000000E+03 0.  0.
        -13    1    3    3    0    0  0.41559196146E+02  0.35066794255E+01  0.13965559667E+02  0.43983083177E+02  0.10566000000E+00 0. -1.
         23    2    1    0    0    0  0.57432255510E+01  0.17799555438E+02 -0.21652511250E+02  0.96478113363E+02  0.92137865729E+02 0.  0.
         13    1    3    3    0    0 -0.35815970595E+02  0.14292876012E+02 -0.35618070917E+02  0.52495030186E+02  0.10566000000E+00 0.  1.
         22    1    1    0    0    0 -0.57432255510E+01 -0.17799555438E+02  0.21652511250E+02  0.28611886637E+02  0.00000000000E+00 0.  1.
</event>
<event>
 5    1  0.1261138E-009  0.9118800E+02  0.7561462E-02  0.1125453E+00
         25   -1    0    0    0    0  0.00000000000E+00  0.00000000000E+00  0.99999998245E-14  0.12509000000E+03  0.12509000000E+03 0.  0.
        -13    1    3    3    0    0  0.24045336192E+02  0.92461429427E+01  0.25389890910E+02  0.36170804198E+02  0.10566000000E+00 0. -1.
         23    2    1    0    0    0  0.15752233008E+02 -0.15441181925E+02 -0.24299746701E+02  0.92271702760E+02  0.86238196274E+02 0.  0.
         13    1    3    3    0    0 -0.82931031846E+01 -0.24687324868E+02 -0.49689637611E+02  0.56100898562E+02  0.10566000000E+00 0.  1.
         22    1    1    0    0    0 -0.15752233008E+02  0.15441181925E+02  0.24299746701E+02  0.32818297240E+02  0.00000000000E+00 0.  1.
</event>
<event>
 5    1  0.1261138E-009  0.9118800E+02  0.7561462E-02  0.1125453E+00
         25   -1    0    0    0    0  0.00000000000E+00  0.00000000000E+00  0.99999998245E-14  0.12509000000E+03  0.12509000000E+03 0.  0.
        -13    1    3    3    0    0 -0.62636637073E+01 -0.38198157517E+02 -0.30915761781E+02  0.49539158363E+02  0.10566000000E+00 0.  1.
         23    2    1    0    0    0 -0.26778896626E+02 -0.50523768896E+01 -0.26086079016E+01  0.97714086281E+02  0.93800863567E+02 0.  0.
         13    1    3    3    0    0 -0.20515232919E+02  0.33145780628E+02  0.28307153880E+02  0.48174927918E+02  0.10566000000E+00 0. -1.
         22    1    1    0    0    0  0.26778896626E+02  0.50523768896E+01  0.26086079016E+01  0.27375913719E+02  0.00000000000E+00 0. -1.
</event>
<event>
 5    1  0.1261138E-009  0.9118800E+02  0.7561462E-02  0.1125453E+00
         25   -1    0    0    0    0  0.00000000000E+00  0.00000000000E+00  0.99999998245E-14  0.12509000000E+03  0.12509000000E+03 0.  0.
        -13    1    3    3    0    0 -0.23459618916E+02  0.32484882675E+02  0.60941871464E+01  0.40531118947E+02  0.10566000000E+00 0.  1.
         23    2    1    0    0    0 -0.34493214627E-01 -0.43720709753E+01 -0.28507729810E+02  0.96248938068E+02  0.91826201195E+02 0.  0.
         13    1    3    3    0    0  0.23425125701E+02 -0.36856953650E+02 -0.34601916957E+02  0.55717819121E+02  0.10566000000E+00 0. -1.
         22    1    1    0    0    0  0.34493214627E-01  0.43720709753E+01  0.28507729810E+02  0.28841061932E+02  0.00000000000E+00 0. -1.
</event>
<event>
 5    1  0.1261138E-009  0.9118800E+02  0.7561462E-02  0.1125453E+00
         25   -1    0    0    0    0  0.00000000000E+00  0.00000000000E+00  0.99999998245E-14  0.12509000000E+03  0.12509000000E+03 0.  0.
        -13    1    3    3    0    0 -0.26551621229E+02  0.23531695026E+02 -0.21314303237E+01  0.35542698546E+02  0.10566000000E+00 0.  1.
         23    2    1    0    0    0 -0.10112888671E+02 -0.30551887953E+02 -0.65722417850E+01  0.92243649566E+02  0.86197495024E+02 0.  0.
         13    1    3    3    0    0  0.16438732558E+02 -0.54083582980E+02 -0.44408114614E+01  0.56700951019E+02  0.10566000000E+00 0. -1.
         22    1    1    0    0    0  0.10112888671E+02  0.30551887953E+02  0.65722417850E+01  0.32846350434E+02  0.00000000000E+00 0. -1.
</event>
<event>
 5    1  0.1261138E-009  0.9118800E+02  0.7561462E-02  0.1125453E+00
         25   -1    0    0    0    0  0.00000000000E+00  0.00000000000E+00  0.99999998245E-14  0.12509000000E+03  0.12509000000E+03 0.  0.
        -13    1    3    3    0    0 -0.54073110534E+02 -0.14115345077E+02  0.21897134565E+02  0.60021995265E+02  0.10566000000E+00 0.  1.
         23    2    1    0    0    0 -0.18212647959E+02 -0.12624972881E+02  0.18768301861E+02  0.96049689384E+02  0.91554372861E+02 0.  0.
         13    1    3    3    0    0  0.35860462575E+02  0.14903721955E+01 -0.31288327039E+01  0.36027694118E+02  0.10566000000E+00 0. -1.
         22    1    1    0    0    0  0.18212647959E+02  0.12624972881E+02 -0.18768301861E+02  0.29040310616E+02  0.00000000000E+00 0.  1.
</event>
<event>
 5    1  0.1261138E-009  0.9118800E+02  0.7561462E-02  0.1125453E+00
         25   -1    0    0    0    0  0.00000000000E+00  0.00000000000E+00  0.99999998245E-14  0.12509000000E+03  0.12509000000E+03 0.  0.
        -13    1    3    3    0    0  0.46591406301E+02 -0.20636777541E+02 -0.34032650110E+02  0.61276979086E+02  0.10566000000E+00 0.  1.
         23    2    1    0    0    0  0.26054247555E+02 -0.30188328250E+01 -0.11662300895E+02  0.96385532936E+02  0.92012089042E+02 0.  0.
         13    1    3    3    0    0 -0.20537158746E+02  0.17617944716E+02  0.22370349215E+02  0.35108553850E+02  0.10566000000E+00 0. -1.
         22    1    1    0    0    0 -0.26054247555E+02  0.30188328250E+01  0.11662300895E+02  0.28704467064E+02  0.00000000000E+00 0.  1.
</event>
<event>
 5    1  0.1261138E-009  0.9118800E+02  0.7561462E-02  0.1125453E+00
         25   -1    0    0    0    0  0.00000000000E+00  0.00000000000E+00  0.99999998245E-14  0.12509000000E+03  0.12509000000E+03 0.  0.
        -13    1    3    3    0    0  0.61107315650E+01 -0.22694511148E+02 -0.41222089087E+02  0.47451592905E+02  0.10566000000E+00 0. -1.
         23    2    1    0    0    0 -0.14638781418E+02 -0.17819324455E+02  0.76690469035E+01  0.10078698525E+03  0.97812984160E+02 0.  0.
         13    1    3    3    0    0 -0.20749512983E+02  0.48751866931E+01  0.48891135990E+02  0.53335392347E+02  0.10566000000E+00 0.  1.
         22    1    1    0    0    0  0.14638781418E+02  0.17819324455E+02 -0.76690469035E+01  0.24303014748E+02  0.00000000000E+00 0.  1.
</event>
<event>
 5    1  0.1261138E-009  0.9118800E+02  0.7561462E-02  0.1125453E+00
         25   -1    0    0    0    0  0.00000000000E+00  0.00000000000E+00  0.99999998245E-14  0.12509000000E+03  0.12509000000E+03 0.  0.
        -13    1    3    3    0    0  0.78963664697E+01  0.28194499807E+02  0.51285941036E+02  0.59055409022E+02  0.10566000000E+00 0.  1.
         23    2    1    0    0    0  0.17312155717E+00  0.26354903727E+02  0.18248685615E+02  0.93033402423E+02  0.87336066537E+02 0.  0.
         13    1    3    3    0    0 -0.77232449125E+01 -0.18395960797E+01 -0.33037255422E+02  0.33977993401E+02  0.10566000000E+00 0. -1.
         22    1    1    0    0    0 -0.17312155717E+00 -0.26354903727E+02 -0.18248685615E+02  0.32056597577E+02  0.00000000000E+00 0.  1.
</event>
<event>
 5    1  0.1261138E-009  0.9118800E+02  0.7561462E-02  0.1125453E+00
         25   -1    0    0    0    0  0.00000000000E+00  0.00000000000E+00  0.99999998245E-14  0.12509000000E+03  0.12509000000E+03 0.  0.
        -13    1    3    3    0    0 -0.83771025462E+01 -0.10214196109E+02  0.50143061777E+02  0.51854059220E+02  0.10566000000E+00 0.  1.
         23    2    1    0    0    0 -0.15503963872E+02 -0.23197422151E+02  0.87009953542E+01  0.95863289437E+02  0.91299340914E+02 0.  0.
         13    1    3    3    0    0 -0.71268613259E+01 -0.12983226042E+02 -0.41442066423E+02  0.44009230217E+02  0.10566000000E+00 0. -1.
         22    1    1    0    0    0  0.15503963872E+02  0.23197422151E+02 -0.87009953542E+01  0.29226710563E+02  0.00000000000E+00 0. -1.
</event>
<event>
 5    1  0.1261138E-009  0.9118800E+02  0.7561462E-02  0.1125453E+00
         25   -1    0    0    0    0  0.00000000000E+00  0.00000000000E+00  0.99999998245E-14  0.12509000000E+03  0.12509000000E+03 0.  0.
        -13    1    3    3    0    0  0.34735835644E+02 -0.12131273786E+02  0.22393290474E+02  0.43072226595E+02  0.10566000000E+00 0.  1.
         23    2    1    0    0    0 -0.18100565762E+01  0.21071930327E+02  0.24786137116E+02  0.92506950025E+02  0.86578754075E+02 0.  0.
         13    1    3    3    0    0 -0.36545892220E+02  0.33203204113E+02  0.23928466427E+01  0.49434723430E+02  0.10566000000E+00 0. -1.
         22    1    1    0    0    0  0.18100565762E+01 -0.21071930327E+02 -0.24786137116E+02  0.32583049975E+02  0.00000000000E+00 0. -1.
</event>
<event>
 5    1  0.1261138E-009  0.9118800E+02  0.7561462E-02  0.1125453E+00
         25   -1    0    0    0    0  0.00000000000E+00  0.00000000000E+00  0.99999998245E-14  0.12509000000E+03  0.12509000000E+03 0.  0.
        -13    1    3    3    0    0 -0.41351666078E+02 -0.18566016936E+02 -0.21745253888E+02  0.50274491573E+02  0.10566000000E+00 0. -1.
         23    2    1    0    0    0 -0.26597807627E+01 -0.29079962688E+02  0.41252335278E-02  0.95888652759E+02  0.91334084806E+02 0.  0.
         13    1    3    3    0    0  0.38691885315E+02 -0.10513945752E+02  0.21749379121E+02  0.45614161186E+02  0.10566000000E+00 0.  1.
         22    1    1    0    0    0  0.26597807627E+01  0.29079962688E+02 -0.41252335278E-02  0.29201347241E+02  0.00000000000E+00 0. -1.
</event>
<event>
 5    1  0.1261138E-009  0.9118800E+02  0.7561462E-02  0.1125453E+00
         25   -1    0    0    0    0  0.00000000000E+00  0.00000000000E+00  0.99999998245E-14  0.12509000000E+03  0.12509000000E+03 0.  0.
        -13    1    3    3    0    0 -0.31667512148E+02  0.73876237605E+01  0.19843464423E+02  0.38094390070E+02  0.10566000000E+00 0.  1.
         23    2    1    0    0    0  0.14939007484E+01  0.95501132815E+01 -0.27502039733E+02  0.95938694838E+02  0.91402596104E+02 0.  0.
         13    1    3    3    0    0  0.33161412896E+02  0.21624895209E+01 -0.47345504157E+02  0.57844304768E+02  0.10566000000E+00 0. -1.
         22    1    1    0    0    0 -0.14939007484E+01 -0.95501132815E+01  0.27502039733E+02  0.29151305162E+02  0.00000000000E+00 0. -1.
</event>
<event>
 5    1  0.1261138E-009  0.9118800E+02  0.7561462E-02  0.1125453E+00
         25   -1    0    0    0    0  0.00000000000E+00  0.00000000000E+00  0.99999998245E-14  0.12509000000E+03  0.12509000000E+03 0.  0.
        -13    1    3    3    0    0 -0.42171324059E+02  0.54908058192E+01  0.40167492717E+02  0.58497932927E+02  0.10566000000E+00 0.  1.
         23    2    1    0    0    0 -0.25689592999E+02 -0.11596432922E+02  0.14751024626E+02  0.93277656916E+02  0.87685210311E+02 0.  0.
         13    1    3    3    0    0  0.16481731061E+02 -0.17087238741E+02 -0.25416468091E+02  0.34779723990E+02  0.10566000000E+00 0. -1.
         22    1    1    0    0    0  0.25689592999E+02  0.11596432922E+02 -0.14751024626E+02  0.31812343084E+02  0.00000000000E+00 0.  1.
</event>
<event>
 5    1  0.1261138E-009  0.9118800E+02  0.7561462E-02  0.1125453E+00
         25   -1    0    0    0    0  0.00000000000E+00  0.00000000000E+00  0.99999998245E-14  0.12509000000E+03  0.12509000000E+03 0.  0.
        -13    1    3    3    0    0 -0.56384271360E+02 -0.95343304032E+01  0.10864265794E+02  0.58207670872E+02  0.10566000000E+00 0. -1.
         23    2    1    0    0    0 -0.33882677533E+02  0.79698194480E+01 -0.34575457959E+01  0.90111313893E+02  0.83045411732E+02 0.  0.
         13    1    3    3    0    0  0.22501593827E+02  0.17504149851E+02 -0.14321811590E+02  0.31903643021E+02  0.10566000000E+00 0.  1.
         22    1    1    0    0    0  0.33882677533E+02 -0.79698194480E+01  0.34575457959E+01  0.34978686107E+02  0.00000000000E+00 0. -1.
</event>
<event>
 5    1  0.1261138E-009  0.9118800E+02  0.7561462E-02  0.1125453E+00
         25   -1    0    0    0    0  0.00000000000E+00  0.00000000000E+00  0.99999998245E-14  0.12509000000E+03  0.12509000000E+03 0.  0.
        -13    1    3    3    0    0  0.16731602621E+02 -0.30765665085E+01  0.29320755431E+02  0.33898814888E+02  0.10566000000E+00 0.  1.
         23    2    1    0    0    0 -0.14244840271E+02 -0.77623784738E+01 -0.24224135493E+02  0.95935605231E+02  0.91398367692E+02 0.  0.
         13    1    3    3    0    0 -0.30976442892E+02 -0.46858119653E+01 -0.53544890924E+02  0.62036790343E+02  0.10566000000E+00 0. -1.
         22    1    1    0    0    0  0.14244840271E+02  0.77623784738E+01  0.24224135493E+02  0.29154394769E+02  0.00000000000E+00 0. -1.
</event>
<event>
 5    1  0.1261138E-009  0.9118800E+02  0.7561462E-02  0.1125453E+00
         25   -1    0    0    0    0  0.00000000000E+00  0.00000000000E+00  0.99999998245E-14  0.12509000000E+03  0.12509000000E+03 0.  0.
        -13    1    3    3    0    0  0.30152121793E+01  0.41350368232E+02  0.80543802880E+01  0.42235395858E+02  0.10566000000E+00 0. -1.
         23    2    1    0    0    0 -0.30147048418E+02  0.24729739543E+01  0.95885429915E+01  0.93358307874E+02  0.87800189999E+02 0.  0.
         13    1    3    3    0    0 -0.33162260597E+02 -0.38877394278E+02  0.15341627036E+01  0.51122912016E+02  0.10566000000E+00 0.  1.
         22    1    1    0    0    0  0.30147048418E+02 -0.24729739543E+01 -0.95885429915E+01  0.31731692126E+02  0.00000000000E+00 0.  1.
</event>
<event>
 5    1  0.1261138E-009  0.9118800E+02  0.7561462E-02  0.1125453E+00
         25   -1    0    0    0    0  0.00000000000E+00  0.00000000000E+00  0.99999998245E-14  0.12509000000E+03  0.12509000000E+03 0.  0.
        -13    1    3    3    0    0 -0.12936775924E+02 -0.21282181306E+02 -0.35673795179E+02  0.43507726198E+02  0.10566000000E+00 0.  1.
         23    2    1    0    0    0  0.87423791385E+01 -0.24706427641E+02  0.12206765193E+02  0.96179069952E+02  0.91730974161E+02 0.  0.
         13    1    3    3    0    0  0.21679155063E+02 -0.34242463348E+01  0.47880560372E+02  0.52671343753E+02  0.10566000000E+00 0. -1.
         22    1    1    0    0    0 -0.87423791385E+01  0.24706427641E+02 -0.12206765193E+02  0.28910930048E+02  0.00000000000E+00 0.  1.
</event>
<event>
 5    1  0.1261138E-009  0.9118800E+02  0.7561462E-02  0.1125453E+00
         25   -1    0    0    0    0  0.00000000000E+00  0.00000000000E+00  0.99999998245E-14  0.12509000000E+03  0.12509000000E+03 0.  0.
        -13    1    3    3    0    0 -0.34884411841E+02 -0.19944188900E+01 -0.16382762215E+00  0.34941921810E+02  0.10566000000E+00 0.  1.
         23    2    1    0    0    0  0.21809593356E+02  0.32910321539E+00  0.20331437625E+02  0.95271649489E+02  0.90485099156E+02 0.  0.
         13    1    3    3    0    0  0.56694005198E+02  0.23235221054E+01  0.20495265247E+02  0.60329727680E+02  0.10566000000E+00 0. -1.
         22    1    1    0    0    0 -0.21809593356E+02 -0.32910321539E+00 -0.20331437625E+02  0.29818350511E+02  0.00000000000E+00 0. -1.
</event>
<event>
 5    1  0.1261138E-009  0.9118800E+02  0.7561462E-02  0.1125453E+00
         25   -1    0    0    0    0  0.00000000000E+00  0.00000000000E+00  0.99999998245E-14  0.12509000000E+03  0.12509000000E+03 0.  0.
        -13    1    3    3    0    0 -0.16108505280E+02  0.34445496163E+02 -0.55885816633E+01  0.38434614052E+02  0.10566000000E+00 0. -1.
         23    2    1    0    0    0  0.37254023354E+00 -0.27320237015E+01 -0.35855460532E+02  0.89128676475E+02  0.81551849645E+02 0.  0.
         13    1    3    3    0    0  0.16481045513E+02 -0.37177519864E+02 -0.30266878868E+02  0.50694062423E+02  0.10566000000E+00 0.  1.
         22    1    1    0    0    0 -0.37254023354E+00  0.27320237015E+01  0.35855460532E+02  0.35961323525E+02  0.00000000000E+00 0.  1.
</event>
<event>
 5    1  0.1261138E-009  0.9118800E+02  0.7561462E-02  0.1125453E+00
         25   -1    0    0    0    0  0.00000000000E+00  0.00000000000E+00  0.99999998245E-14  0.12509000000E+03  0.12509000000E+03 0.  0.
        -13    1    3    3    0    0 -0.22188132292E+02  0.29141164259E+02  0.81874700542E+00  0.36636077570E+02  0.10566000000E+00 0. -1.
         23    2    1    0    0    0 -0.76751449476E+00 -0.24167045581E+02 -0.15511565664E+02  0.96362942372E+02  0.91981372150E+02 0.  0.
         13    1    3    3    0    0  0.21420617797E+02 -0.53308209841E+02 -0.16330312669E+02  0.59726864802E+02  0.10566000000E+00 0.  1.
         22    1    1    0    0    0  0.76751449476E+00  0.24167045581E+02  0.15511565664E+02  0.28727057628E+02  0.00000000000E+00 0.  1.
</event>
<event>
 5    1  0.1261138E-009  0.9118800E+02  0.7561462E-02  0.1125453E+00
         25   -1    0    0    0    0  0.00000000000E+00  0.00000000000E+00  0.99999998245E-14  0.12509000000E+03  0.12509000000E+03 0.  0.
        -13    1    3    3    0    0  0.12286052250E+02  0.38245600055E+02  0.22996184481E+02  0.46287240879E+02  0.10566000000E+00 0.  1.
         23    2    1    0    0    0  0.11791964695E+02  0.16779179188E+02 -0.21305156438E+02  0.95518037325E+02  0.90825076262E+02 0.  0.
         13    1    3    3    0    0 -0.49408755497E+00 -0.21466420868E+02 -0.44301340919E+02  0.49230796445E+02  0.10566000000E+00 0. -1.
         22    1    1    0    0    0 -0.11791964695E+02 -0.16779179188E+02  0.21305156438E+02  0.29571962675E+02  0.00000000000E+00 0.  1.
</event>
<event>
 5    1  0.1261138E-009  0.9118800E+02  0.7561462E-02  0.1125453E+00
         25   -1    0    0    0    0  0.00000000000E+00  0.00000000000E+00  0.99999998245E-14  0.12509000000E+03  0.12509000000E+03 0.  0.
        -13    1    3    3    0    0  0.24800805433E+02  0.39393173111E+02  0.33756638123E+02  0.57501511452E+02  0.10566000000E+00 0. -1.
         23    2    1    0    0    0  0.19143195014E+02  0.36710513770E+01  0.22370205693E+02  0.95419060744E+02  0.90688657047E+02 0.  0.
         13    1    3    3    0    0 -0.56576104192E+01 -0.35722121734E+02 -0.11386432430E+02  0.37917549292E+02  0.10566000000E+00 0.  1.
         22    1    1    0    0    0 -0.19143195014E+02 -0.36710513770E+01 -0.22370205693E+02  0.29670939256E+02  0.00000000000E+00 0. -1.
</event>
<event>
 5    1  0.1261138E-009  0.9118800E+02  0.7561462E-02  0.1125453E+00
         25   -1    0    0    0    0  0.00000000000E+00  0.00000000000E+00  0.99999998245E-14  0.12509000000E+03  0.12509000000E+03 0.  0.
        -13    1    3    3    0    0  0.16930925392E+02 -0.22780747772E+02 -0.19937035765E+02  0.34685951952E+02  0.10566000000E+00 0.  1.
         23    2    1    0    0    0 -0.26425628549E+02  0.15069499978E+01  0.14272834837E+02  0.95018442728E+02  0.90134376914E+02 0.  0.
         13    1    3    3    0    0 -0.43356553941E+02  0.24287697770E+02  0.34209870601E+02  0.60332490776E+02  0.10566000000E+00 0. -1.
         22    1    1    0    0    0  0.26425628549E+02 -0.15069499978E+01 -0.14272834837E+02  0.30071557272E+02  0.00000000000E+00 0. -1.
</event>
<event>
 5    1  0.1261138E-009  0.9118800E+02  0.7561462E-02  0.1125453E+00
         25   -1    0    0    0    0  0.00000000000E+00  0.00000000000E+00  0.99999998245E-14  0.12509000000E+03  0.12509000000E+03 0.  0.
        -13    1    3    3    0    0  0.23559087462E+02 -0.58283568593E+01 -0.25105441763E+02  0.34918400821E+02  0.10566000000E+00 0.  1.
         23    2    1    0    0    0 -0.15551179581E+01 -0.92246170616E+01  0.28974912605E+02  0.94642380844E+02  0.89610952119E+02 0.  0.
         13    1    3    3    0    0 -0.25114205420E+02 -0.33962602023E+01  0.54080354368E+02  0.59723980023E+02  0.10566000000E+00 0. -1.
         22    1    1    0    0    0  0.15551179581E+01  0.92246170616E+01 -0.28974912605E+02  0.30447619156E+02  0.00000000000E+00 0. -1.
</event>
<event>
 5    1  0.1261138E-009  0.9118800E+02  0.7561462E-02  0.1125453E+00
         25   -1    0    0    0    0  0.00000000000E+00  0.00000000000E+00  0.99999998245E-14  0.12509000000E+03  0.12509000000E+03 0.  0.
        -13    1    3    3    0    0 -0.30692869552E+02  0.15387666639E+02 -0.46396473809E+02  0.57718943786E+02  0.10566000000E+00 0. -1.
         23    2    1    0    0    0  0.53571328754E+00  0.11259135803E+02 -0.29597240029E+02  0.93419007829E+02  0.87886627416E+02 0.  0.
         13    1    3    3    0    0  0.31228582839E+02 -0.41285308353E+01  0.16799233780E+02  0.35700064042E+02  0.10566000000E+00 0.  1.
         22    1    1    0    0    0 -0.53571328754E+00 -0.11259135803E+02  0.29597240029E+02  0.31670992171E+02  0.00000000000E+00 0. -1.
</event>
<event>
 5    1  0.1261138E-009  0.9118800E+02  0.7561462E-02  0.1125453E+00
         25   -1    0    0    0    0  0.00000000000E+00  0.00000000000E+00  0.99999998245E-14  0.12509000000E+03  0.12509000000E+03 0.  0.
        -13    1    3    3    0    0 -0.11827043680E+02  0.24730994665E+02  0.20832156802E+02  0.34430959621E+02  0.10566000000E+00 0. -1.
         23    2    1    0    0    0 -0.11458443922E+02 -0.42135045416E+01 -0.29873802667E+02  0.92817819357E+02  0.87026742711E+02 0.  0.
         13    1    3    3    0    0  0.36859975769E+00 -0.28944499207E+02 -0.50705959469E+02  0.58386859736E+02  0.10566000000E+00 0.  1.
         22    1    1    0    0    0  0.11458443922E+02  0.42135045416E+01  0.29873802667E+02  0.32272180643E+02  0.00000000000E+00 0.  1.
</event>
<event>
 5    1  0.1261138E-009  0.9118800E+02  0.7561462E-02  0.1125453E+00
         25   -1    0    0    0    0  0.00000000000E+00  0.00000000000E+00  0.99999998245E-14  0.12509000000E+03  0.12509000000E+03 0.  0.
        -13    1    3    3    0    0  0.16902970357E+02 -0.86308966370E+00 -0.29665098123E+02  0.34153836407E+02  0.10566000000E+00 0. -1.
         23    2    1    0    0    0  0.21484430764E+01  0.65329355696E+01  0.29097774472E+02  0.95190576360E+02  0.90372951118E+02 0.  0.
         13    1    3    3    0    0 -0.14754527281E+02  0.73960252333E+01  0.58762872594E+02  0.61036739953E+02  0.10566000000E+00 0.  1.
         22    1    1    0    0    0 -0.21484430764E+01 -0.65329355696E+01 -0.29097774472E+02  0.29899423640E+02  0.00000000000E+00 0.  1.
</event>
<event>
 5    1  0.1261138E-009  0.9118800E+02  0.7561462E-02  0.1125453E+00
         25   -1    0    0    0    0  0.00000000000E+00  0.00000000000E+00  0.99999998245E-14  0.12509000000E+03  0.12509000000E+03 0.  0.
        -13    1    3    3    0    0  0.34415594271E+02 -0.12378168276E+02  0.47350605058E+02  0.59830954716E+02  0.10566000000E+00 0. -1.
         23    2    1    0    0    0  0.48170268930E+01 -0.57838050930E+01  0.28672051524E+02  0.95446405615E+02  0.90726366932E+02 0.  0.
         13    1    3    3    0    0 -0.29598567377E+02  0.65943631833E+01 -0.18678553533E+02  0.35615450899E+02  0.10566000000E+00 0.  1.
         22    1    1    0    0    0 -0.48170268930E+01  0.57838050930E+01 -0.28672051524E+02  0.29643594385E+02  0.00000000000E+00 0. -1.
</event>
<event>
 5    1  0.1261138E-009  0.9118800E+02  0.7561462E-02  0.1125453E+00
         25   -1    0    0    0    0  0.00000000000E+00  0.00000000000E+00  0.99999998245E-14  0.12509000000E+03  0.12509000000E+03 0.  0.
        -13    1    3    3    0    0  0.20170700572E+02 -0.22284958300E+02 -0.65213277697E+01  0.30757363474E+02  0.10566000000E+00 0.  1.
         23    2    1    0    0    0 -0.28337298133E+02  0.15492638758E+02  0.14868638098E+01  0.92759904344E+02  0.86943457308E+02 0.  0.
         13    1    3    3    0    0 -0.48507998704E+02  0.37777597059E+02  0.80081915795E+01  0.62002540869E+02  0.10566000000E+00 0. -1.
         22    1    1    0    0    0  0.28337298133E+02 -0.15492638758E+02 -0.14868638098E+01  0.32330095656E+02  0.00000000000E+00 0. -1.
</event>
<event>
 5    1  0.1261138E-009  0.9118800E+02  0.7561462E-02  0.1125453E+00
         25   -1    0    0    0    0  0.00000000000E+00  0.00000000000E+00  0.99999998245E-14  0.12509000000E+03  0.12509000000E+03 0.  0.
        -13    1    3    3    0    0  0.36220077795E+02 -0.14595225763E+02 -0.15095495689E+01  0.39079464613E+02  0.10566000000E+00 0.  1.
         23    2    1    0    0    0 -0.14611050332E+02 -0.40948961472E+01 -0.24836627954E+02  0.95984862062E+02  0.91465756929E+02 0.  0.
         13    1    3    3    0    0 -0.50831128127E+02  0.10500329616E+02 -0.23327078386E+02  0.56905397448E+02  0.10566000000E+00 0. -1.
         22    1    1    0    0    0  0.14611050332E+02  0.40948961472E+01  0.24836627954E+02  0.29105137938E+02  0.00000000000E+00 0. -1.
</event>
<event>
 5    1  0.1261138E-009  0.9118800E+02  0.7561462E-02  0.1125453E+00
         25   -1    0    0    0    0  0.00000000000E+00  0.00000000000E+00  0.99999998245E-14  0.12509000000E+03  0.12509000000E+03 0.  0.
        -13    1    3    3    0    0  0.93043205058E+01 -0.20649954736E+02 -0.24843402852E+02  0.33618400319E+02  0.10566000000E+00 0. -1.
         23    2    1    0    0    0 -0.16850384356E+02  0.15547050385E+02  0.18332424789E+02  0.95734863698E+02  0.91123213837E+02 0.  0.
         13    1    3    3    0    0 -0.26154704862E+02  0.36197005121E+02  0.43175827642E+02  0.62116463379E+02  0.10566000000E+00 0.  1.
         22    1    1    0    0    0  0.16850384356E+02 -0.15547050385E+02 -0.18332424789E+02  0.29355136302E+02  0.00000000000E+00 0.  1.
</event>
<event>
 5    1  0.1261138E-009  0.9118800E+02  0.7561462E-02  0.1125453E+00
         25   -1    0    0    0    0  0.00000000000E+00  0.00000000000E+00  0.99999998245E-14  0.12509000000E+03  0.12509000000E+03 0.  0.
        -13    1    3    3    0    0  0.34497458561E+02 -0.40445040222E+02 -0.11274093850E+02  0.54341441662E+02  0.10566000000E+00 0. -1.
         23    2    1    0    0    0  0.22599348281E+02 -0.41868145720E+01  0.12124187977E+02  0.99104313689E+02  0.95636860564E+02 0.  0.
         13    1    3    3    0    0 -0.11898110280E+02  0.36258225650E+02  0.23398281827E+02  0.44762872026E+02  0.10566000000E+00 0.  1.
         22    1    1    0    0    0 -0.22599348281E+02  0.41868145720E+01 -0.12124187977E+02  0.25985686311E+02  0.00000000000E+00 0. -1.
</event>
<event>
 5    1  0.1261138E-009  0.9118800E+02  0.7561462E-02  0.1125453E+00
         25   -1    0    0    0    0  0.00000000000E+00  0.00000000000E+00  0.99999998245E-14  0.12509000000E+03  0.12509000000E+03 0.  0.
        -13    1    3    3    0    0 -0.30569300031E+02  0.28630753443E+02  0.35899840963E+02  0.55163501451E+02  0.10566000000E+00 0.  1.
         23    2    1    0    0    0 -0.69332516602E+01  0.33036503995E+02  0.11475140465E+02  0.89436677245E+02  0.82022922486E+02 0.  0.
         13    1    3    3    0    0  0.23636048371E+02  0.44057505524E+01 -0.24424700498E+02  0.34273175794E+02  0.10566000000E+00 0. -1.
         22    1    1    0    0    0  0.69332516602E+01 -0.33036503995E+02 -0.11475140465E+02  0.35653322755E+02  0.00000000000E+00 0.  1.
</event>
<event>
 5    1  0.1261138E-009  0.9118800E+02  0.7561462E-02  0.1125453E+00
         25   -1    0    0    0    0  0.00000000000E+00  0.00000000000E+00  0.99999998245E-14  0.12509000000E+03  0.12509000000E+03 0.  0.
        -13    1    3    3    0    0  0.47361070930E+02 -0.44835507166E+01  0.38192518084E+02  0.61006990323E+02  0.10566000000E+00 0.  1.
         23    2    1    0    0    0  0.19616171464E+02 -0.10851054277E+02  0.21618266743E+02  0.93946958742E+02  0.88634880483E+02 0.  0.
         13    1    3    3    0    0 -0.27744899466E+02 -0.63675035599E+01 -0.16574251341E+02  0.32939968420E+02  0.10566000000E+00 0. -1.
         22    1    1    0    0    0 -0.19616171464E+02  0.10851054277E+02 -0.21618266743E+02  0.31143041258E+02  0.00000000000E+00 0.  1.
</event>
<event>
 5    1  0.1261138E-009  0.9118800E+02  0.7561462E-02  0.1125453E+00
         25   -1    0    0    0    0  0.00000000000E+00  0.00000000000E+00  0.99999998245E-14  0.12509000000E+03  0.12509000000E+03 0.  0.
        -13    1    3    3    0    0 -0.24456109710E+02 -0.98903612276E+00  0.36048135140E+02  0.43572453520E+02  0.10566000000E+00 0.  1.
         23    2    1    0    0    0  0.75630594638E+01  0.27806567161E+02  0.72571222518E+01  0.95373491640E+02  0.90625780209E+02 0.  0.
         13    1    3    3    0    0  0.32019169174E+02  0.28795603284E+02 -0.28791012888E+02  0.51801038120E+02  0.10566000000E+00 0. -1.
         22    1    1    0    0    0 -0.75630594638E+01 -0.27806567161E+02 -0.72571222518E+01  0.29716508360E+02  0.00000000000E+00 0.  1.
</event>
<event>
 5    1  0.1261138E-009  0.9118800E+02  0.7561462E-02  0.1125453E+00
         25   -1    0    0    0    0  0.00000000000E+00  0.00000000000E+00  0.99999998245E-14  0.12509000000E+03  0.12509000000E+03 0.  0.
        -13    1    3    3    0    0  0.25318757470E+02  0.28209126346E+02 -0.22663126426E+02  0.44163590801E+02  0.10566000000E+00 0.  1.
         23    2    1    0    0    0  0.10153882181E+02 -0.22537577765E+02 -0.67970511537E+01  0.99453236569E+02  0.96092156937E+02 0.  0.
         13    1    3    3    0    0 -0.15164875289E+02 -0.50746704110E+02  0.15866075272E+02  0.55289645768E+02  0.10566000000E+00 0. -1.
         22    1    1    0    0    0 -0.10153882181E+02  0.22537577765E+02  0.67970511537E+01  0.25636763431E+02  0.00000000000E+00 0. -1.
</event>
<event>
 5    1  0.1261138E-009  0.9118800E+02  0.7561462E-02  0.1125453E+00
         25   -1    0    0    0    0  0.00000000000E+00  0.00000000000E+00  0.99999998245E-14  0.12509000000E+03  0.12509000000E+03 0.  0.
        -13    1    3    3    0    0 -0.32638605045E+02 -0.42275505204E+02  0.25675416480E+02  0.59259894153E+02  0.10566000000E+00 0.  1.
         23    2    1    0    0    0 -0.45619416724E+01 -0.28092464275E+02  0.72277807618E+01  0.95726099107E+02  0.91111181392E+02 0.  0.
         13    1    3    3    0    0  0.28076663373E+02  0.14183040929E+02 -0.18447635718E+02  0.36466204954E+02  0.10566000000E+00 0. -1.
         22    1    1    0    0    0  0.45619416724E+01  0.28092464275E+02 -0.72277807618E+01  0.29363900893E+02  0.00000000000E+00 0.  1.
</event>
<event>
 5    1  0.1261138E-009  0.9118800E+02  0.7561462E-02  0.1125453E+00
         25   -1    0    0    0    0  0.00000000000E+00  0.00000000000E+00  0.99999998245E-14  0.12509000000E+03  0.12509000000E+03 0.  0.
        -13    1    3    3    0    0  0.13797065913E+02 -0.27198932790E+02 -0.24162584725E+02  0.38909929804E+02  0.10566000000E+00 0. -1.
         23    2    1    0    0    0  0.20584755595E+02  0.20253669286E+02  0.60670639222E+01  0.95581483482E+02  0.90912416301E+02 0.  0.
         13    1    3    3    0    0  0.67876896816E+01  0.47452602076E+02  0.30229648647E+02  0.56671553678E+02  0.10566000000E+00 0.  1.
         22    1    1    0    0    0 -0.20584755595E+02 -0.20253669286E+02 -0.60670639222E+01  0.29508516518E+02  0.00000000000E+00 0.  1.
</event>
<event>
 5    1  0.1261138E-009  0.9118800E+02  0.7561462E-02  0.1125453E+00
         25   -1    0    0    0    0  0.00000000000E+00  0.00000000000E+00  0.99999998245E-14  0.12509000000E+03  0.12509000000E+03 0.  0.
        -13    1    3    3    0    0  0.64219591408E+01  0.11732668852E+02  0.41989231715E+02  0.44068172434E+02  0.10566000000E+00 0.  1.
         23    2    1    0    0    0  0.33016906425E+02  0.52924339696E+01  0.32543062419E+01  0.91493624060E+02  0.85102096139E+02 0.  0.
         13    1    3    3    0    0  0.26594947284E+02 -0.64402348822E+01 -0.38734925474E+02  0.47425451625E+02  0.10566000000E+00 0. -1.
         22    1    1    0    0    0 -0.33016906425E+02 -0.52924339696E+01 -0.32543062419E+01  0.33596375940E+02  0.00000000000E+00 0.  1.
</event>
<event>
 5    1  0.1261138E-009  0.9118800E+02  0.7561462E-02  0.1125453E+00
         25   -1    0    0    0    0  0.00000000000E+00  0.00000000000E+00  0.99999998245E-14  0.12509000000E+03  0.12509000000E+03 0.  0.
        -13    1    3    3    0    0 -0.47029582436E+02  0.25082104029E+02 -0.17991622323E+02  0.56254806057E+02  0.10566000000E+00 0. -1.
         23    2    1    0    0    0 -0.93064912131E+01  0.27042015526E+02 -0.61949365284E+01  0.95828102915E+02  0.91251118828E+02 0.  0.
         13    1    3    3    0    0  0.37723091223E+02  0.19599114966E+01  0.11796685794E+02  0.39573296859E+02  0.10566000000E+00 0.  1.
         22    1    1    0    0    0  0.93064912131E+01 -0.27042015526E+02  0.61949365284E+01  0.29261897085E+02  0.00000000000E+00 0. -1.
</event>
<event>
 5    1  0.1261138E-009  0.9118800E+02  0.7561462E-02  0.1125453E+00
         25   -1    0    0    0    0  0.00000000000E+00  0.00000000000E+00  0.99999998245E-14  0.12509000000E+03  0.12509000000E+03 0.  0.
        -13    1    3    3    0    0  0.36928571180E+02 -0.11580480715E+02  0.29270039928E+02  0.48523945681E+02  0.10566000000E+00 0. -1.
         23    2    1    0    0    0  0.55590793777E+01  0.22029256375E+02  0.18617226897E+02  0.95716667923E+02  0.91098232041E+02 0.  0.
         13    1    3    3    0    0 -0.31369491803E+02  0.33609737090E+02 -0.10652813031E+02  0.47192722243E+02  0.10566000000E+00 0.  1.
         22    1    1    0    0    0 -0.55590793777E+01 -0.22029256375E+02 -0.18617226897E+02  0.29373332077E+02  0.00000000000E+00 0. -1.
</event>
<event>
 5    1  0.1261138E-009  0.9118800E+02  0.7561462E-02  0.1125453E+00
         25   -1    0    0    0    0  0.00000000000E+00  0.00000000000E+00  0.99999998245E-14  0.12509000000E+03  0.12509000000E+03 0.  0.
        -13    1    3    3    0    0  0.36079845521E+02  0.24045315174E+02 -0.34019258129E+02  0.55111283077E+02  0.10566000000E+00 0.  1.
         23    2    1    0    0    0  0.10421424404E+02 -0.75374813379E+01 -0.25272914044E+02  0.96732639477E+02  0.92482774853E+02 0.  0.
         13    1    3    3    0    0 -0.25658421118E+02 -0.31582796512E+02  0.87463440849E+01  0.41621356401E+02  0.10566000000E+00 0. -1.
         22    1    1    0    0    0 -0.10421424404E+02  0.75374813379E+01  0.25272914044E+02  0.28357360523E+02  0.00000000000E+00 0.  1.
</event>
<event>
 5    1  0.1261138E-009  0.9118800E+02  0.7561462E-02  0.1125453E+00
         25   -1    0    0    0    0  0.00000000000E+00  0.00000000000E+00  0.99999998245E-14  0.12509000000E+03  0.12509000000E+03 0.  0.
        -13    1    3    3    0    0  0.35123450704E+02  0.43522216342E+02  0.26396761796E+02  0.61843676330E+02  0.10566000000E+00 0. -1.
         23    2    1    0    0    0  0.17779533877E+02  0.22213283160E+02  0.61309790496E+01  0.95984490595E+02  0.91465248904E+02 0.  0.
         13    1    3    3    0    0 -0.17343916827E+02 -0.21308933182E+02 -0.20265782747E+02  0.34140814264E+02  0.10566000000E+00 0.  1.
         22    1    1    0    0    0 -0.17779533877E+02 -0.22213283160E+02 -0.61309790496E+01  0.29105509405E+02  0.00000000000E+00 0. -1.
</event>
<event>
 5    1  0.1261138E-009  0.9118800E+02  0.7561462E-02  0.1125453E+00
         25   -1    0    0    0    0  0.00000000000E+00  0.00000000000E+00  0.99999998245E-14  0.12509000000E+03  0.12509000000E+03 0.  0.
        -13    1    3    3    0    0  0.54620755718E+02 -0.24023259460E+02 -0.13250985190E+02  0.61124002837E+02  0.10566000000E+00 0. -1.
         23    2    1    0    0    0  0.21956827991E+02 -0.11664893372E+02 -0.14930928876E+02  0.96088195403E+02  0.91606968216E+02 0.  0.
         13    1    3    3    0    0 -0.32663927727E+02  0.12358366088E+02 -0.16799436856E+01  0.34964192565E+02  0.10566000000E+00 0.  1.
         22    1    1    0    0    0 -0.21956827991E+02  0.11664893372E+02  0.14930928876E+02  0.29001804597E+02  0.00000000000E+00 0. -1.
</event>
<event>
 5    1  0.1261138E-009  0.9118800E+02  0.7561462E-02  0.1125453E+00
         25   -1    0    0    0    0  0.00000000000E+00  0.00000000000E+00  0.99999998245E-14  0.12509000000E+03  0.12509000000E+03 0.  0.
        -13    1    3    3    0    0 -0.32681964886E+02  0.18288367767E+02 -0.43790428651E+02  0.57621072794E+02  0.10566000000E+00 0. -1.
         23    2    1    0    0    0 -0.10176169394E+02  0.23901790257E+02 -0.13377388969E+02  0.95870066107E+02  0.91308625216E+02 0.  0.
         13    1    3    3    0    0  0.22505795492E+02  0.56134224904E+01  0.30413039682E+02  0.38248993314E+02  0.10566000000E+00 0.  1.
         22    1    1    0    0    0  0.10176169394E+02 -0.23901790257E+02  0.13377388969E+02  0.29219933893E+02  0.00000000000E+00 0. -1.
</event>
<event>
 5    1  0.1261138E-009  0.9118800E+02  0.7561462E-02  0.1125453E+00
         25   -1    0    0    0    0  0.00000000000E+00  0.00000000000E+00  0.99999998245E-14  0.12509000000E+03  0.12509000000E+03 0.  0.
        -13    1    3    3    0    0 -0.35391420694E+02  0.41341763122E+02  0.11175529466E+02  0.55557156692E+02  0.10566000000E+00 0. -1.
         23    2    1    0    0    0 -0.27986973095E+02  0.86012850267E+01 -0.86726772297E+01  0.94553659396E+02  0.89487018096E+02 0.  0.
         13    1    3    3    0    0  0.74044475992E+01 -0.32740478095E+02 -0.19848206695E+02  0.38996502705E+02  0.10566000000E+00 0.  1.
         22    1    1    0    0    0  0.27986973095E+02 -0.86012850267E+01  0.86726772297E+01  0.30536340604E+02  0.00000000000E+00 0. -1.
</event>
<event>
 5    1  0.1261138E-009  0.9118800E+02  0.7561462E-02  0.1125453E+00
         25   -1    0    0    0    0  0.00000000000E+00  0.00000000000E+00  0.99999998245E-14  0.12509000000E+03  0.12509000000E+03 0.  0.
        -13    1    3    3    0    0  0.26342980925E+02 -0.41174679735E+02 -0.14565519566E+02  0.51004631354E+02  0.10566000000E+00 0.  1.
         23    2    1    0    0    0 -0.80231697591E+01 -0.26313452941E+02  0.10037547194E+02  0.95806533464E+02  0.91221545931E+02 0.  0.
         13    1    3    3    0    0 -0.34366150684E+02  0.14861226794E+02  0.24603066760E+02  0.44801902110E+02  0.10566000000E+00 0. -1.
         22    1    1    0    0    0  0.80231697591E+01  0.26313452941E+02 -0.10037547194E+02  0.29283466536E+02  0.00000000000E+00 0.  1.
</event>
<event>
 5    1  0.1261138E-009  0.9118800E+02  0.7561462E-02  0.1125453E+00
         25   -1    0    0    0    0  0.00000000000E+00  0.00000000000E+00  0.99999998245E-14  0.12509000000E+03  0.12509000000E+03 0.  0.
        -13    1    3    3    0    0 -0.15952198423E+02  0.14055772176E+02  0.26994267415E+02  0.34361883000E+02  0.10566000000E+00 0.  1.
         23    2    1    0    0    0  0.10248301077E+02  0.29151720933E+01 -0.27363987596E+02  0.95724821294E+02  0.91109427017E+02 0.  0.
         13    1    3    3    0    0  0.26200499500E+02 -0.11140600083E+02 -0.54358255011E+02  0.61362938294E+02  0.10566000000E+00 0. -1.
         22    1    1    0    0    0 -0.10248301077E+02 -0.29151720933E+01  0.27363987596E+02  0.29365178706E+02  0.00000000000E+00 0. -1.
</event>
<event>
 5    1  0.1261138E-009  0.9118800E+02  0.7561462E-02  0.1125453E+00
         25   -1    0    0    0    0  0.00000000000E+00  0.00000000000E+00  0.99999998245E-14  0.12509000000E+03  0.12509000000E+03 0.  0.
        -13    1    3    3    0    0  0.25171636541E+02 -0.45404010233E+01  0.35429663203E+02  0.43697811459E+02  0.10566000000E+00 0.  1.
         23    2    1    0    0    0  0.30895436659E+02  0.27649890859E+01 -0.11853586352E+02  0.91883363910E+02  0.85673052257E+02 0.  0.
         13    1    3    3    0    0  0.57238001183E+01  0.73053901092E+01 -0.47283249555E+02  0.48185552451E+02  0.10566000000E+00 0. -1.
         22    1    1    0    0    0 -0.30895436659E+02 -0.27649890859E+01  0.11853586352E+02  0.33206636090E+02  0.00000000000E+00 0. -1.
</event>
<event>
 5    1  0.1261138E-009  0.9118800E+02  0.7561462E-02  0.1125453E+00
         25   -1    0    0    0    0  0.00000000000E+00  0.00000000000E+00  0.99999998245E-14  0.12509000000E+03  0.12509000000E+03 0.  0.
        -13    1    3    3    0    0 -0.38325739016E+02  0.35430638966E+02 -0.19219193406E+02  0.55619969506E+02  0.10566000000E+00 0.  1.
         23    2    1    0    0    0 -0.36357882587E+02  0.70948032570E+01 -0.17620229067E+02  0.84069220731E+02  0.73382079165E+02 0.  0.
         13    1    3    3    0    0  0.19678564296E+01 -0.28335835709E+02  0.15989643386E+01  0.28449251225E+02  0.10566000000E+00 0. -1.
         22    1    1    0    0    0  0.36357882587E+02 -0.70948032570E+01  0.17620229067E+02  0.41020779269E+02  0.00000000000E+00 0.  1.
</event>
<event>
 5    1  0.1261138E-009  0.9118800E+02  0.7561462E-02  0.1125453E+00
         25   -1    0    0    0    0  0.00000000000E+00  0.00000000000E+00  0.99999998245E-14  0.12509000000E+03  0.12509000000E+03 0.  0.
        -13    1    3    3    0    0  0.41034282913E+02  0.43091573849E+02 -0.13466048553E+02  0.61008538244E+02  0.10566000000E+00 0.  1.
         23    2    1    0    0    0  0.74272033158E+01  0.20409331898E+02 -0.13331912174E+01  0.10333036819E+03  0.10101328336E+03 0.  0.
         13    1    3    3    0    0 -0.33607079597E+02 -0.22682241951E+02  0.12132857336E+02  0.42321829948E+02  0.10566000000E+00 0. -1.
         22    1    1    0    0    0 -0.74272033158E+01 -0.20409331898E+02  0.13331912174E+01  0.21759631808E+02  0.00000000000E+00 0.  1.
</event>
<event>
 5    1  0.1261138E-009  0.9118800E+02  0.7561462E-02  0.1125453E+00
         25   -1    0    0    0    0  0.00000000000E+00  0.00000000000E+00  0.99999998245E-14  0.12509000000E+03  0.12509000000E+03 0.  0.
        -13    1    3    3    0    0  0.24219099396E+02  0.80666838532E+01 -0.15843101924E+02  0.30044154283E+02  0.10566000000E+00 0.  1.
         23    2    1    0    0    0 -0.23060414113E+02  0.12800310425E+02  0.21964993409E+02  0.90766661271E+02  0.84026752983E+02 0.  0.
         13    1    3    3    0    0 -0.47279513510E+02  0.47336265717E+01  0.37808095333E+02  0.60722506988E+02  0.10566000000E+00 0. -1.
         22    1    1    0    0    0  0.23060414113E+02 -0.12800310425E+02 -0.21964993409E+02  0.34323338729E+02  0.00000000000E+00 0. -1.
</event>
<event>
 5    1  0.1261138E-009  0.9118800E+02  0.7561462E-02  0.1125453E+00
         25   -1    0    0    0    0  0.00000000000E+00  0.00000000000E+00  0.99999998245E-14  0.12509000000E+03  0.12509000000E+03 0.  0.
        -13    1    3    3    0    0 -0.98181382405E+01 -0.29831597265E+02  0.17693688547E+02  0.36047160947E+02  0.10566000000E+00 0.  1.
         23    2    1    0    0    0  0.84134089767E+01  0.10932404099E+02 -0.24171981267E+02  0.97258586303E+02  0.93191442854E+02 0.  0.
         13    1    3    3    0    0  0.18231547217E+02  0.40764001364E+02 -0.41865669814E+02  0.61211425356E+02  0.10566000000E+00 0. -1.
         22    1    1    0    0    0 -0.84134089767E+01 -0.10932404099E+02  0.24171981267E+02  0.27831413697E+02  0.00000000000E+00 0. -1.
</event>
<event>
 5    1  0.1261138E-009  0.9118800E+02  0.7561462E-02  0.1125453E+00
         25   -1    0    0    0    0  0.00000000000E+00  0.00000000000E+00  0.99999998245E-14  0.12509000000E+03  0.12509000000E+03 0.  0.
        -13    1    3    3    0    0  0.40889781867E+02 -0.33767960128E+00 -0.27264918082E+02  0.49147484277E+02  0.10566000000E+00 0. -1.
         23    2    1    0    0    0 -0.44442015769E+01  0.20140475298E+02 -0.12216330405E+02  0.10111859200E+03  0.98236150407E+02 0.  0.
         13    1    3    3    0    0 -0.45333983444E+02  0.20478154899E+02  0.15048587677E+02  0.51971107724E+02  0.10566000000E+00 0.  1.
         22    1    1    0    0    0  0.44442015769E+01 -0.20140475298E+02  0.12216330405E+02  0.23971407999E+02  0.00000000000E+00 0.  1.
</event>
<event>
 5    1  0.1261138E-009  0.9118800E+02  0.7561462E-02  0.1125453E+00
         25   -1    0    0    0    0  0.00000000000E+00  0.00000000000E+00  0.99999998245E-14  0.12509000000E+03  0.12509000000E+03 0.  0.
        -13    1    3    3    0    0 -0.31582140044E+02 -0.35087246161E+02 -0.31516140265E+02  0.56761119388E+02  0.10566000000E+00 0. -1.
         23    2    1    0    0    0 -0.24525046590E+02 -0.16718452328E+02  0.16905843695E+01  0.95360509019E+02  0.90607858635E+02 0.  0.
         13    1    3    3    0    0  0.70570934547E+01  0.18368793833E+02  0.33206724634E+02  0.38599389631E+02  0.10566000000E+00 0.  1.
         22    1    1    0    0    0  0.24525046590E+02  0.16718452328E+02 -0.16905843695E+01  0.29729490981E+02  0.00000000000E+00 0. -1.
</event>
<event>
 5    1  0.1261138E-009  0.9118800E+02  0.7561462E-02  0.1125453E+00
         25   -1    0    0    0    0  0.00000000000E+00  0.00000000000E+00  0.99999998245E-14  0.12509000000E+03  0.12509000000E+03 0.  0.
        -13    1    3    3    0    0  0.11581088133E+02 -0.45364831348E+02  0.19899317255E+02  0.50873210207E+02  0.10566000000E+00 0. -1.
         23    2    1    0    0    0 -0.12294041639E+02 -0.26135757219E+02 -0.10796199876E+02  0.94255292332E+02  0.89068967298E+02 0.  0.
         13    1    3    3    0    0 -0.23875129772E+02  0.19229074129E+02 -0.30695517131E+02  0.43382082124E+02  0.10566000000E+00 0.  1.
         22    1    1    0    0    0  0.12294041639E+02  0.26135757219E+02  0.10796199876E+02  0.30834707668E+02  0.00000000000E+00 0. -1.
</event>
<event>
 5    1  0.1261138E-009  0.9118800E+02  0.7561462E-02  0.1125453E+00
         25   -1    0    0    0    0  0.00000000000E+00  0.00000000000E+00  0.99999998245E-14  0.12509000000E+03  0.12509000000E+03 0.  0.
        -13    1    3    3    0    0 -0.95783911091E+01 -0.42073784643E+02 -0.35351784433E+01  0.43295006422E+02  0.10566000000E+00 0. -1.
         23    2    1    0    0    0  0.97108059540E+00 -0.43366281685E+01  0.29934351834E+02  0.94827568487E+02  0.89869088034E+02 0.  0.
         13    1    3    3    0    0  0.10549471704E+02  0.37737156474E+02  0.33469530277E+02  0.51532562065E+02  0.10566000000E+00 0.  1.
         22    1    1    0    0    0 -0.97108059540E+00  0.43366281685E+01 -0.29934351834E+02  0.30262431513E+02  0.00000000000E+00 0.  1.
</event>
<event>
 5    1  0.1261138E-009  0.9118800E+02  0.7561462E-02  0.1125453E+00
         25   -1    0    0    0    0  0.00000000000E+00  0.00000000000E+00  0.99999998245E-14  0.12509000000E+03  0.12509000000E+03 0.  0.
        -13    1    3    3    0    0  0.52425260410E+02 -0.16324977883E+02 -0.12574995378E+02  0.56329872223E+02  0.10566000000E+00 0.  1.
         23    2    1    0    0    0  0.21153693078E+02 -0.92815349805E+01  0.14095012035E+02  0.98029050522E+02  0.94219954147E+02 0.  0.
         13    1    3    3    0    0 -0.31271567332E+02  0.70434429020E+01  0.26670007413E+02  0.41699178298E+02  0.10566000000E+00 0. -1.
         22    1    1    0    0    0 -0.21153693078E+02  0.92815349805E+01 -0.14095012035E+02  0.27060949478E+02  0.00000000000E+00 0.  1.
</event>
<event>
 5    1  0.1261138E-009  0.9118800E+02  0.7561462E-02  0.1125453E+00
         25   -1    0    0    0    0  0.00000000000E+00  0.00000000000E+00  0.99999998245E-14  0.12509000000E+03  0.12509000000E+03 0.  0.
        -13    1    3    3    0    0 -0.28316084441E+02 -0.45071721135E+02 -0.14060676661E+02  0.55054286630E+02  0.10566000000E+00 0.  1.
         23    2    1    0    0    0 -0.26878887620E+02 -0.45057368087E+01 -0.10791619610E+02  0.95777284027E+02  0.91181428032E+02 0.  0.
         13    1    3    3    0    0  0.14371968204E+01  0.40565984326E+02  0.32690570512E+01  0.40722997398E+02  0.10566000000E+00 0. -1.
         22    1    1    0    0    0  0.26878887620E+02  0.45057368087E+01  0.10791619610E+02  0.29312715973E+02  0.00000000000E+00 0.  1.
</event>
<event>
 5    1  0.1261138E-009  0.9118800E+02  0.7561462E-02  0.1125453E+00
         25   -1    0    0    0    0  0.00000000000E+00  0.00000000000E+00  0.99999998245E-14  0.12509000000E+03  0.12509000000E+03 0.  0.
        -13    1    3    3    0    0  0.34043994241E+02 -0.16764733143E+02 -0.25637965334E+02  0.45797011384E+02  0.10566000000E+00 0.  1.
         23    2    1    0    0    0 -0.16228980474E+02 -0.12940778450E+02 -0.19540257754E+02  0.96582716243E+02  0.92279769449E+02 0.  0.
         13    1    3    3    0    0 -0.50272974715E+02  0.38239546927E+01  0.60977075798E+01  0.50785704858E+02  0.10566000000E+00 0. -1.
         22    1    1    0    0    0  0.16228980474E+02  0.12940778450E+02  0.19540257754E+02  0.28507283757E+02  0.00000000000E+00 0. -1.
</event>
<event>
 5    1  0.1261138E-009  0.9118800E+02  0.7561462E-02  0.1125453E+00
         25   -1    0    0    0    0  0.00000000000E+00  0.00000000000E+00  0.99999998245E-14  0.12509000000E+03  0.12509000000E+03 0.  0.
        -13    1    3    3    0    0  0.55745932509E+01  0.39793619602E+02  0.12039285510E+02  0.41947154976E+02  0.10566000000E+00 0.  1.
         23    2    1    0    0    0  0.20851675100E+02  0.11025650296E+01 -0.21304112215E+02  0.95259257445E+02  0.90467966306E+02 0.  0.
         13    1    3    3    0    0  0.15277081849E+02 -0.38691054572E+02 -0.33343397725E+02  0.53312102469E+02  0.10566000000E+00 0. -1.
         22    1    1    0    0    0 -0.20851675100E+02 -0.11025650296E+01  0.21304112215E+02  0.29830742555E+02  0.00000000000E+00 0. -1.
</event>
<event>
 5    1  0.1261138E-009  0.9118800E+02  0.7561462E-02  0.1125453E+00
         25   -1    0    0    0    0  0.00000000000E+00  0.00000000000E+00  0.99999998245E-14  0.12509000000E+03  0.12509000000E+03 0.  0.
        -13    1    3    3    0    0  0.28257599934E+02 -0.28938748678E+02 -0.10131043415E+02  0.41696430707E+02  0.10566000000E+00 0.  1.
         23    2    1    0    0    0 -0.13167765958E+02 -0.14525630671E+02  0.21665513311E+02  0.95870512089E+02  0.91309236195E+02 0.  0.
         13    1    3    3    0    0 -0.41425365891E+02  0.14413118006E+02  0.31796556726E+02  0.54174081382E+02  0.10566000000E+00 0. -1.
         22    1    1    0    0    0  0.13167765958E+02  0.14525630671E+02 -0.21665513311E+02  0.29219487911E+02  0.00000000000E+00 0. -1.
</event>
<event>
 5    1  0.1261138E-009  0.9118800E+02  0.7561462E-02  0.1125453E+00
         25   -1    0    0    0    0  0.00000000000E+00  0.00000000000E+00  0.99999998245E-14  0.12509000000E+03  0.12509000000E+03 0.  0.
        -13    1    3    3    0    0 -0.35660063256E+02 -0.40877063076E+02  0.26680233907E+01  0.54311176659E+02  0.10566000000E+00 0.  1.
         23    2    1    0    0    0 -0.14131948105E+02 -0.19451021666E+02  0.23758403595E+02  0.91288876609E+02  0.84800607605E+02 0.  0.
         13    1    3    3    0    0  0.21528115151E+02  0.21426041410E+02  0.21090380204E+02  0.36977699951E+02  0.10566000000E+00 0. -1.
         22    1    1    0    0    0  0.14131948105E+02  0.19451021666E+02 -0.23758403595E+02  0.33801123391E+02  0.00000000000E+00 0.  1.
</event>
<event>
 5    1  0.1261138E-009  0.9118800E+02  0.7561462E-02  0.1125453E+00
         25   -1    0    0    0    0  0.00000000000E+00  0.00000000000E+00  0.99999998245E-14  0.12509000000E+03  0.12509000000E+03 0.  0.
        -13    1    3    3    0    0 -0.22362958350E+02  0.15432613762E+02 -0.29226299170E+02  0.39905578569E+02  0.10566000000E+00 0.  1.
         23    2    1    0    0    0 -0.19016403920E+02 -0.14703613429E+02  0.17323704022E+02  0.95460106531E+02  0.90745255259E+02 0.  0.
         13    1    3    3    0    0  0.33465544301E+01 -0.30136227191E+02  0.46550003193E+02  0.55554527962E+02  0.10566000000E+00 0. -1.
         22    1    1    0    0    0  0.19016403920E+02  0.14703613429E+02 -0.17323704022E+02  0.29629893469E+02  0.00000000000E+00 0. -1.
</event>
<event>
 5    1  0.1261138E-009  0.9118800E+02  0.7561462E-02  0.1125453E+00
         25   -1    0    0    0    0  0.00000000000E+00  0.00000000000E+00  0.99999998245E-14  0.12509000000E+03  0.12509000000E+03 0.  0.
        -13    1    3    3    0    0  0.12224078111E+02 -0.27098336028E+02 -0.50658130131E+02  0.58736745003E+02  0.10566000000E+00 0.  1.
         23    2    1    0    0    0  0.41952678544E+01 -0.25063682700E+02 -0.14499302897E+02  0.95832210484E+02  0.91256749443E+02 0.  0.
         13    1    3    3    0    0 -0.80288102563E+01  0.20346533279E+01  0.36158827234E+02  0.37095465481E+02  0.10566000000E+00 0. -1.
         22    1    1    0    0    0 -0.41952678544E+01  0.25063682700E+02  0.14499302897E+02  0.29257789516E+02  0.00000000000E+00 0.  1.
</event>
<event>
 5    1  0.1261138E-009  0.9118800E+02  0.7561462E-02  0.1125453E+00
         25   -1    0    0    0    0  0.00000000000E+00  0.00000000000E+00  0.99999998245E-14  0.12509000000E+03  0.12509000000E+03 0.  0.
        -13    1    3    3    0    0  0.66599952142E+01  0.44362114921E+02  0.21298433948E+02  0.49658707486E+02  0.10566000000E+00 0. -1.
         23    2    1    0    0    0 -0.15163211548E+02  0.52042422420E+01  0.25802259077E+02  0.94712974220E+02  0.89709440921E+02 0.  0.
         13    1    3    3    0    0 -0.21823206762E+02 -0.39157872679E+02  0.45038251290E+01  0.45054266734E+02  0.10566000000E+00 0.  1.
         22    1    1    0    0    0  0.15163211548E+02 -0.52042422420E+01 -0.25802259077E+02  0.30377025780E+02  0.00000000000E+00 0. -1.
</event>
<event>
 5    1  0.1261138E-009  0.9118800E+02  0.7561462E-02  0.1125453E+00
         25   -1    0    0    0    0  0.00000000000E+00  0.00000000000E+00  0.99999998245E-14  0.12509000000E+03  0.12509000000E+03 0.  0.
        -13    1    3    3    0    0 -0.40593744579E+02 -0.23198603761E+01 -0.90109842517E+01  0.41646642750E+02  0.10566000000E+00 0.  1.
         23    2    1    0    0    0 -0.29494684832E+02  0.24485315161E+02  0.19290035825E+02  0.82176452325E+02  0.70081358026E+02 0.  0.
         13    1    3    3    0    0  0.11099059747E+02  0.26805175537E+02  0.28301020077E+02  0.40529809576E+02  0.10566000000E+00 0. -1.
         22    1    1    0    0    0  0.29494684832E+02 -0.24485315161E+02 -0.19290035825E+02  0.42913547675E+02  0.00000000000E+00 0. -1.
</event>
<event>
 5    1  0.1261138E-009  0.9118800E+02  0.7561462E-02  0.1125453E+00
         25   -1    0    0    0    0  0.00000000000E+00  0.00000000000E+00  0.99999998245E-14  0.12509000000E+03  0.12509000000E+03 0.  0.
        -13    1    3    3    0    0  0.16919891600E+02 -0.24914774311E+02 -0.16511884332E+02  0.34346501990E+02  0.10566000000E+00 0.  1.
         23    2    1    0    0    0  0.95328934987E+00  0.17559376681E+02  0.24109349924E+02  0.95248732873E+02  0.90453412816E+02 0.  0.
         13    1    3    3    0    0 -0.15966602250E+02  0.42474150992E+02  0.40621234257E+02  0.60902230882E+02  0.10566000000E+00 0. -1.
         22    1    1    0    0    0 -0.95328934987E+00 -0.17559376681E+02 -0.24109349924E+02  0.29841267127E+02  0.00000000000E+00 0. -1.
</event>
<event>
 5    1  0.1261138E-009  0.9118800E+02  0.7561462E-02  0.1125453E+00
         25   -1    0    0    0    0  0.00000000000E+00  0.00000000000E+00  0.99999998245E-14  0.12509000000E+03  0.12509000000E+03 0.  0.
        -13    1    3    3    0    0  0.36409666346E+02 -0.14728137677E+02  0.17513013919E+02  0.43003472690E+02  0.10566000000E+00 0.  1.
         23    2    1    0    0    0  0.87469757810E+01  0.27841952124E+02  0.33232731085E+01  0.95717767747E+02  0.91099742233E+02 0.  0.
         13    1    3    3    0    0 -0.27662690565E+02  0.42570089801E+02 -0.14189740811E+02  0.52714295056E+02  0.10566000000E+00 0. -1.
         22    1    1    0    0    0 -0.87469757810E+01 -0.27841952124E+02 -0.33232731085E+01  0.29372232253E+02  0.00000000000E+00 0. -1.
</event>
<event>
 5    1  0.1261138E-009  0.9118800E+02  0.7561462E-02  0.1125453E+00
         25   -1    0    0    0    0  0.00000000000E+00  0.00000000000E+00  0.99999998245E-14  0.12509000000E+03  0.12509000000E+03 0.  0.
        -13    1    3    3    0    0 -0.18300439611E+02 -0.70485613913E+01  0.27080038686E+02  0.33435429815E+02  0.10566000000E+00 0. -1.
         23    2    1    0    0    0  0.22321873177E+02  0.13858040596E+02 -0.14387438681E+02  0.95134871840E+02  0.90295814614E+02 0.  0.
         13    1    3    3    0    0  0.40622312788E+02  0.20906601987E+02 -0.41467477367E+02  0.61699442025E+02  0.10566000000E+00 0.  1.
         22    1    1    0    0    0 -0.22321873177E+02 -0.13858040596E+02  0.14387438681E+02  0.29955128160E+02  0.00000000000E+00 0.  1.
</event>
<event>
 5    1  0.1261138E-009  0.9118800E+02  0.7561462E-02  0.1125453E+00
         25   -1    0    0    0    0  0.00000000000E+00  0.00000000000E+00  0.99999998245E-14  0.12509000000E+03  0.12509000000E+03 0.  0.
        -13    1    3    3    0    0  0.40314400081E+02 -0.52100649785E+01  0.14119008083E+01  0.40674319403E+02  0.10566000000E+00 0.  1.
         23    2    1    0    0    0  0.19218300645E+02  0.12769788667E+02 -0.32976043660E+02  0.84842887834E+02  0.74689260127E+02 0.  0.
         13    1    3    3    0    0 -0.21096099436E+02  0.17979853645E+02 -0.34387944468E+02  0.44168568431E+02  0.10566000000E+00 0. -1.
         22    1    1    0    0    0 -0.19218300645E+02 -0.12769788667E+02  0.32976043660E+02  0.40247112166E+02  0.00000000000E+00 0.  1.
</event>
<event>
 5    1  0.1261138E-009  0.9118800E+02  0.7561462E-02  0.1125453E+00
         25   -1    0    0    0    0  0.00000000000E+00  0.00000000000E+00  0.99999998245E-14  0.12509000000E+03  0.12509000000E+03 0.  0.
        -13    1    3    3    0    0  0.30289659017E+02  0.29748020460E+02 -0.19155989530E+02  0.46576509783E+02  0.10566000000E+00 0.  1.
         23    2    1    0    0    0 -0.23795727930E+01 -0.71026262793E+01 -0.27555423215E+02  0.96534597441E+02  0.92214518856E+02 0.  0.
         13    1    3    3    0    0 -0.32669231810E+02 -0.36850646739E+02 -0.83994336853E+01  0.49958087658E+02  0.10566000000E+00 0. -1.
         22    1    1    0    0    0  0.23795727930E+01  0.71026262793E+01  0.27555423215E+02  0.28555402559E+02  0.00000000000E+00 0.  1.
</event>
<event>
 5    1  0.1261138E-009  0.9118800E+02  0.7561462E-02  0.1125453E+00
         25   -1    0    0    0    0  0.00000000000E+00  0.00000000000E+00  0.99999998245E-14  0.12509000000E+03  0.12509000000E+03 0.  0.
        -13    1    3    3    0    0 -0.22526030811E+02  0.45976420937E+02 -0.31476125773E+02  0.60100008353E+02  0.10566000000E+00 0. -1.
         23    2    1    0    0    0 -0.18504604672E+02  0.12910588800E+02 -0.18732146673E+02  0.95764294276E+02  0.91163605907E+02 0.  0.
         13    1    3    3    0    0  0.40214261395E+01 -0.33065832136E+02  0.12743979100E+02  0.35664285923E+02  0.10566000000E+00 0.  1.
         22    1    1    0    0    0  0.18504604672E+02 -0.12910588800E+02  0.18732146673E+02  0.29325705724E+02  0.00000000000E+00 0. -1.
</event>
<event>
 5    1  0.1261138E-009  0.9118800E+02  0.7561462E-02  0.1125453E+00
         25   -1    0    0    0    0  0.00000000000E+00  0.00000000000E+00  0.99999998245E-14  0.12509000000E+03  0.12509000000E+03 0.  0.
        -13    1    3    3    0    0  0.48473652640E+02 -0.15563504273E+02  0.35814074464E+02  0.62246098346E+02  0.10566000000E+00 0.  1.
         23    2    1    0    0    0  0.18389579814E+02 -0.10020204609E+02  0.16555785687E+02  0.98394023039E+02  0.94703265963E+02 0.  0.
         13    1    3    3    0    0 -0.30084072826E+02  0.55432996638E+01 -0.19258288777E+02  0.36147924693E+02  0.10566000000E+00 0. -1.
         22    1    1    0    0    0 -0.18389579814E+02  0.10020204609E+02 -0.16555785687E+02  0.26695976961E+02  0.00000000000E+00 0.  1.
</event>
<event>
 5    1  0.1261138E-009  0.9118800E+02  0.7561462E-02  0.1125453E+00
         25   -1    0    0    0    0  0.00000000000E+00  0.00000000000E+00  0.99999998245E-14  0.12509000000E+03  0.12509000000E+03 0.  0.
        -13    1    3    3    0    0 -0.15188688554E+02  0.36612118536E+02  0.16077622126E+02  0.42774344892E+02  0.10566000000E+00 0.  1.
         23    2    1    0    0    0  0.10522163935E+02 -0.98200633889E+01  0.24657959684E+02  0.96538913250E+02  0.92220373111E+02 0.  0.
         13    1    3    3    0    0  0.25710852490E+02 -0.46432181925E+02  0.85803375579E+01  0.53764568358E+02  0.10566000000E+00 0. -1.
         22    1    1    0    0    0 -0.10522163935E+02  0.98200633889E+01 -0.24657959684E+02  0.28551086750E+02  0.00000000000E+00 0. -1.
</event>
<event>
 5    1  0.1261138E-009  0.9118800E+02  0.7561462E-02  0.1125453E+00
         25   -1    0    0    0    0  0.00000000000E+00  0.00000000000E+00  0.99999998245E-14  0.12509000000E+03  0.12509000000E+03 0.  0.
        -13    1    3    3    0    0  0.13742258773E+02  0.40481736786E+02 -0.39242858743E+02  0.58031317543E+02  0.10566000000E+00 0.  1.
         23    2    1    0    0    0  0.19537344802E+02  0.14684995650E+02 -0.71256599754E+01  0.99631563889E+02  0.96324018571E+02 0.  0.
         13    1    3    3    0    0  0.57950860295E+01 -0.25796741136E+02  0.32117198768E+02  0.41600246346E+02  0.10566000000E+00 0. -1.
         22    1    1    0    0    0 -0.19537344802E+02 -0.14684995650E+02  0.71256599754E+01  0.25458436111E+02  0.00000000000E+00 0.  1.
</event>
<event>
 5    1  0.1261138E-009  0.9118800E+02  0.7561462E-02  0.1125453E+00
         25   -1    0    0    0    0  0.00000000000E+00  0.00000000000E+00  0.99999998245E-14  0.12509000000E+03  0.12509000000E+03 0.  0.
        -13    1    3    3    0    0  0.32910529412E+02  0.15765204878E+02  0.14709218435E+02  0.39344845940E+02  0.10566000000E+00 0.  1.
         23    2    1    0    0    0 -0.23036016316E+02  0.16554937679E+02  0.74047437778E+01  0.95771844538E+02  0.91173965399E+02 0.  0.
         13    1    3    3    0    0 -0.55946545728E+02  0.78973280084E+00 -0.73044746576E+01  0.56426998599E+02  0.10566000000E+00 0. -1.
         22    1    1    0    0    0  0.23036016316E+02 -0.16554937679E+02 -0.74047437778E+01  0.29318155462E+02  0.00000000000E+00 0. -1.
</event>
<event>
 5    1  0.1261138E-009  0.9118800E+02  0.7561462E-02  0.1125453E+00
         25   -1    0    0    0    0  0.00000000000E+00  0.00000000000E+00  0.99999998245E-14  0.12509000000E+03  0.12509000000E+03 0.  0.
        -13    1    3    3    0    0 -0.38672832872E+02  0.10964406605E+02  0.53383488836E+01  0.40550158413E+02  0.10566000000E+00 0.  1.
         23    2    1    0    0    0 -0.33726744410E+01 -0.26217953147E+02 -0.13793377936E+02  0.95273674355E+02  0.90487898363E+02 0.  0.
         13    1    3    3    0    0  0.35300158431E+02 -0.37182359752E+02 -0.19131726819E+02  0.54723515942E+02  0.10566000000E+00 0. -1.
         22    1    1    0    0    0  0.33726744410E+01  0.26217953147E+02  0.13793377936E+02  0.29816325645E+02  0.00000000000E+00 0. -1.
</event>
<event>
 5    1  0.1261138E-009  0.9118800E+02  0.7561462E-02  0.1125453E+00
         25   -1    0    0    0    0  0.00000000000E+00  0.00000000000E+00  0.99999998245E-14  0.12509000000E+03  0.12509000000E+03 0.  0.
        -13    1    3    3    0    0 -0.30452273484E+02 -0.35376263504E+02  0.20909563622E+02  0.51147257940E+02  0.10566000000E+00 0.  1.
         23    2    1    0    0    0 -0.21434512479E+02 -0.91112229543E+01 -0.15629251916E+02  0.97041359670E+02  0.92899403993E+02 0.  0.
         13    1    3    3    0    0  0.90177610056E+01  0.26265040550E+02 -0.36538815538E+02  0.45894101730E+02  0.10566000000E+00 0. -1.
         22    1    1    0    0    0  0.21434512479E+02  0.91112229543E+01  0.15629251916E+02  0.28048640330E+02  0.00000000000E+00 0.  1.
</event>
<event>
 5    1  0.1261138E-009  0.9118800E+02  0.7561462E-02  0.1125453E+00
         25   -1    0    0    0    0  0.00000000000E+00  0.00000000000E+00  0.99999998245E-14  0.12509000000E+03  0.12509000000E+03 0.  0.
        -13    1    3    3    0    0 -0.37274044008E+01  0.56725127529E+01  0.38554907964E+02  0.39147963378E+02  0.10566000000E+00 0.  1.
         23    2    1    0    0    0  0.22285254134E+02 -0.94617160396E+01 -0.12065926683E+02  0.98039247534E+02  0.94233491117E+02 0.  0.
         13    1    3    3    0    0  0.26012658535E+02 -0.15134228793E+02 -0.50620834647E+02  0.58891284156E+02  0.10566000000E+00 0. -1.
         22    1    1    0    0    0 -0.22285254134E+02  0.94617160396E+01  0.12065926683E+02  0.27050752466E+02  0.00000000000E+00 0. -1.
</event>
<event>
 5    1  0.1261138E-009  0.9118800E+02  0.7561462E-02  0.1125453E+00
         25   -1    0    0    0    0  0.00000000000E+00  0.00000000000E+00  0.99999998245E-14  0.12509000000E+03  0.12509000000E+03 0.  0.
        -13    1    3    3    0    0  0.41521870519E+02 -0.13564941601E+02  0.26625961707E+02  0.51156880015E+02  0.10566000000E+00 0. -1.
         23    2    1    0    0    0  0.23184304102E+02  0.70235878334E+01 -0.11553756583E+02  0.98250997897E+02  0.94514160599E+02 0.  0.
         13    1    3    3    0    0 -0.18337566417E+02  0.20588529434E+02 -0.38179718289E+02  0.47094117882E+02  0.10566000000E+00 0.  1.
         22    1    1    0    0    0 -0.23184304102E+02 -0.70235878334E+01  0.11553756583E+02  0.26839002103E+02  0.00000000000E+00 0.  1.
</event>
<event>
 5    1  0.1261138E-009  0.9118800E+02  0.7561462E-02  0.1125453E+00
         25   -1    0    0    0    0  0.00000000000E+00  0.00000000000E+00  0.99999998245E-14  0.12509000000E+03  0.12509000000E+03 0.  0.
        -13    1    3    3    0    0 -0.68129385853E+01  0.28714973864E+02 -0.27857163937E+02  0.40583230562E+02  0.10566000000E+00 0. -1.
         23    2    1    0    0    0 -0.18916018778E+02 -0.21148893123E+02 -0.79304234195E+01  0.95628447727E+02  0.90977013319E+02 0.  0.
         13    1    3    3    0    0 -0.12103080192E+02 -0.49863866987E+02  0.19926740518E+02  0.55045217165E+02  0.10566000000E+00 0.  1.
         22    1    1    0    0    0  0.18916018778E+02  0.21148893123E+02  0.79304234195E+01  0.29461552273E+02  0.00000000000E+00 0.  1.
</event>
<event>
 5    1  0.1261138E-009  0.9118800E+02  0.7561462E-02  0.1125453E+00
         25   -1    0    0    0    0  0.00000000000E+00  0.00000000000E+00  0.99999998245E-14  0.12509000000E+03  0.12509000000E+03 0.  0.
        -13    1    3    3    0    0 -0.55703550233E+02 -0.22420145997E+02 -0.10582730756E+02  0.60971745993E+02  0.10566000000E+00 0. -1.
         23    2    1    0    0    0 -0.22270793178E+02 -0.12040363433E+02 -0.14024883320E+02  0.96147713765E+02  0.91688204965E+02 0.  0.
         13    1    3    3    0    0  0.33432757055E+02  0.10379782564E+02 -0.34421525641E+01  0.35175967772E+02  0.10566000000E+00 0.  1.
         22    1    1    0    0    0  0.22270793178E+02  0.12040363433E+02  0.14024883320E+02  0.28942286235E+02  0.00000000000E+00 0. -1.
</event>
<event>
 5    1  0.1261138E-009  0.9118800E+02  0.7561462E-02  0.1125453E+00
         25   -1    0    0    0    0  0.00000000000E+00  0.00000000000E+00  0.99999998245E-14  0.12509000000E+03  0.12509000000E+03 0.  0.
        -13    1    3    3    0    0  0.20272372576E+02 -0.84759363924E+01  0.39666930294E+02  0.45346302060E+02  0.10566000000E+00 0.  1.
         23    2    1    0    0    0  0.34227310858E+01 -0.27287031146E+02 -0.54536456829E+01  0.97053605651E+02  0.92915891869E+02 0.  0.
         13    1    3    3    0    0 -0.16849641490E+02 -0.18811094754E+02 -0.45120575977E+02  0.51707303591E+02  0.10566000000E+00 0. -1.
         22    1    1    0    0    0 -0.34227310858E+01  0.27287031146E+02  0.54536456829E+01  0.28036394349E+02  0.00000000000E+00 0. -1.
</event>
<event>
 5    1  0.1261138E-009  0.9118800E+02  0.7561462E-02  0.1125453E+00
         25   -1    0    0    0    0  0.00000000000E+00  0.00000000000E+00  0.99999998245E-14  0.12509000000E+03  0.12509000000E+03 0.  0.
        -13    1    3    3    0    0 -0.38529060860E+02 -0.25887725807E+02 -0.83044546425E+01  0.47155466377E+02  0.10566000000E+00 0.  1.
         23    2    1    0    0    0 -0.75999313223E+01 -0.41948617572E+02 -0.39925451722E+01  0.82271944355E+02  0.70251597410E+02 0.  0.
         13    1    3    3    0    0  0.30929129538E+02 -0.16060891765E+02  0.43119094703E+01  0.35116477978E+02  0.10566000000E+00 0. -1.
         22    1    1    0    0    0  0.75999313223E+01  0.41948617572E+02  0.39925451722E+01  0.42818055645E+02  0.00000000000E+00 0.  1.
</event>
<event>
 5    1  0.1261138E-009  0.9118800E+02  0.7561462E-02  0.1125453E+00
         25   -1    0    0    0    0  0.00000000000E+00  0.00000000000E+00  0.99999998245E-14  0.12509000000E+03  0.12509000000E+03 0.  0.
        -13    1    3    3    0    0 -0.19128222593E+01 -0.97481316685E+01 -0.58717907056E+02  0.59552403252E+02  0.10566000000E+00 0.  1.
         23    2    1    0    0    0  0.33598580142E+01  0.86201736027E+01 -0.26614386295E+02  0.96913385643E+02  0.92726925540E+02 0.  0.
         13    1    3    3    0    0  0.52726802734E+01  0.18368305271E+02  0.32103520762E+02  0.37360982390E+02  0.10566000000E+00 0. -1.
         22    1    1    0    0    0 -0.33598580142E+01 -0.86201736027E+01  0.26614386295E+02  0.28176614357E+02  0.00000000000E+00 0.  1.
</event>
<event>
 5    1  0.1261138E-009  0.9118800E+02  0.7561462E-02  0.1125453E+00
         25   -1    0    0    0    0  0.00000000000E+00  0.00000000000E+00  0.99999998245E-14  0.12509000000E+03  0.12509000000E+03 0.  0.
        -13    1    3    3    0    0 -0.99300126515E+01  0.29120163803E+02  0.43684121465E+01  0.31075444967E+02  0.10566000000E+00 0.  1.
         23    2    1    0    0    0  0.27284678081E+02 -0.18869908822E+02  0.21985908708E+01  0.91843031435E+02  0.85614143133E+02 0.  0.
         13    1    3    3    0    0  0.37214690733E+02 -0.47990072624E+02 -0.21698212757E+01  0.60767586469E+02  0.10566000000E+00 0. -1.
         22    1    1    0    0    0 -0.27284678081E+02  0.18869908822E+02 -0.21985908708E+01  0.33246968565E+02  0.00000000000E+00 0. -1.
</event>
<event>
 5    1  0.1261138E-009  0.9118800E+02  0.7561462E-02  0.1125453E+00
         25   -1    0    0    0    0  0.00000000000E+00  0.00000000000E+00  0.99999998245E-14  0.12509000000E+03  0.12509000000E+03 0.  0.
        -13    1    3    3    0    0  0.34070462662E+02  0.41525332169E+01  0.28023607876E+02  0.44309973150E+02  0.10566000000E+00 0.  1.
         23    2    1    0    0    0  0.41037567255E+01 -0.15530337401E+02 -0.16891556775E+02  0.10177998307E+03  0.99074759975E+02 0.  0.
         13    1    3    3    0    0 -0.29966705937E+02 -0.19682870618E+02 -0.44915164651E+02  0.57470009919E+02  0.10566000000E+00 0. -1.
         22    1    1    0    0    0 -0.41037567255E+01  0.15530337401E+02  0.16891556775E+02  0.23310016931E+02  0.00000000000E+00 0. -1.
</event>
<event>
 5    1  0.1261138E-009  0.9118800E+02  0.7561462E-02  0.1125453E+00
         25   -1    0    0    0    0  0.00000000000E+00  0.00000000000E+00  0.99999998245E-14  0.12509000000E+03  0.12509000000E+03 0.  0.
        -13    1    3    3    0    0  0.35279412570E+02 -0.10115820750E+02 -0.18566367512E+02  0.41130134298E+02  0.10566000000E+00 0.  1.
         23    2    1    0    0    0  0.10365950650E+02  0.70637784383E+01  0.26705399885E+02  0.95585283737E+02  0.90917645072E+02 0.  0.
         13    1    3    3    0    0 -0.24913461920E+02  0.17179599189E+02  0.45271767398E+02  0.54455149439E+02  0.10566000000E+00 0. -1.
         22    1    1    0    0    0 -0.10365950650E+02 -0.70637784383E+01 -0.26705399885E+02  0.29504716263E+02  0.00000000000E+00 0. -1.
</event>
<event>
 5    1  0.1261138E-009  0.9118800E+02  0.7561462E-02  0.1125453E+00
         25   -1    0    0    0    0  0.00000000000E+00  0.00000000000E+00  0.99999998245E-14  0.12509000000E+03  0.12509000000E+03 0.  0.
        -13    1    3    3    0    0  0.48844613396E+02 -0.37421486856E+02  0.84135023849E+01  0.62104445273E+02  0.10566000000E+00 0.  1.
         23    2    1    0    0    0  0.22206117833E+02 -0.17363968354E+02 -0.14067044490E+01  0.96865934319E+02  0.92662890889E+02 0.  0.
         13    1    3    3    0    0 -0.26638495563E+02  0.20057518502E+02 -0.98202068339E+01  0.34761489045E+02  0.10566000000E+00 0. -1.
         22    1    1    0    0    0 -0.22206117833E+02  0.17363968354E+02  0.14067044490E+01  0.28224065681E+02  0.00000000000E+00 0.  1.
</event>
<event>
 5    1  0.1261138E-009  0.9118800E+02  0.7561462E-02  0.1125453E+00
         25   -1    0    0    0    0  0.00000000000E+00  0.00000000000E+00  0.99999998245E-14  0.12509000000E+03  0.12509000000E+03 0.  0.
        -13    1    3    3    0    0 -0.29736515153E+02  0.10457677347E+02  0.52456043526E+02  0.61198619392E+02  0.10566000000E+00 0.  1.
         23    2    1    0    0    0 -0.63544436895E+01  0.89571932826E+01  0.27738636738E+02  0.95256424382E+02  0.90464048947E+02 0.  0.
         13    1    3    3    0    0  0.23382071464E+02 -0.15004840642E+01 -0.24717406789E+02  0.34057804990E+02  0.10566000000E+00 0. -1.
         22    1    1    0    0    0  0.63544436895E+01 -0.89571932826E+01 -0.27738636738E+02  0.29833575618E+02  0.00000000000E+00 0.  1.
</event>
<event>
 5    1  0.1261138E-009  0.9118800E+02  0.7561462E-02  0.1125453E+00
         25   -1    0    0    0    0  0.00000000000E+00  0.00000000000E+00  0.99999998245E-14  0.12509000000E+03  0.12509000000E+03 0.  0.
        -13    1    3    3    0    0  0.34427056367E+02 -0.52254946936E+01  0.40062415231E+02  0.53080469884E+02  0.10566000000E+00 0.  1.
         23    2    1    0    0    0 -0.12768952066E+01 -0.20589900117E+02  0.17594476859E+02  0.97976533528E+02  0.94150204769E+02 0.  0.
         13    1    3    3    0    0 -0.35703951574E+02 -0.15364405423E+02 -0.22467938372E+02  0.44896063644E+02  0.10566000000E+00 0. -1.
         22    1    1    0    0    0  0.12768952066E+01  0.20589900117E+02 -0.17594476859E+02  0.27113466472E+02  0.00000000000E+00 0.  1.
</event>
<event>
 5    1  0.1261138E-009  0.9118800E+02  0.7561462E-02  0.1125453E+00
         25   -1    0    0    0    0  0.00000000000E+00  0.00000000000E+00  0.99999998245E-14  0.12509000000E+03  0.12509000000E+03 0.  0.
        -13    1    3    3    0    0  0.41476994296E+02  0.13551226574E+02  0.34234865149E+02  0.55461824288E+02  0.10566000000E+00 0.  1.
         23    2    1    0    0    0  0.23249951859E+01 -0.48502393163E+01  0.24765742678E+02  0.99746905587E+02  0.96473689365E+02 0.  0.
         13    1    3    3    0    0 -0.39151999110E+02 -0.18401465890E+02 -0.94691224716E+01  0.44285081299E+02  0.10566000000E+00 0. -1.
         22    1    1    0    0    0 -0.23249951859E+01  0.48502393163E+01 -0.24765742678E+02  0.25343094413E+02  0.00000000000E+00 0. -1.
</event>
<event>
 5    1  0.1261138E-009  0.9118800E+02  0.7561462E-02  0.1125453E+00
         25   -1    0    0    0    0  0.00000000000E+00  0.00000000000E+00  0.99999998245E-14  0.12509000000E+03  0.12509000000E+03 0.  0.
        -13    1    3    3    0    0  0.24795667107E+02  0.17214637632E+02  0.20772069104E+02  0.36642309902E+02  0.10566000000E+00 0.  1.
         23    2    1    0    0    0 -0.71790958342E+01 -0.27239295167E+02 -0.38066619519E+01  0.96664495723E+02  0.92390559258E+02 0.  0.
         13    1    3    3    0    0 -0.31974762941E+02 -0.44453932799E+02 -0.24578731056E+02  0.60022185821E+02  0.10566000000E+00 0. -1.
         22    1    1    0    0    0  0.71790958342E+01  0.27239295167E+02  0.38066619519E+01  0.28425504277E+02  0.00000000000E+00 0. -1.
</event>
<event>
 5    1  0.1261138E-009  0.9118800E+02  0.7561462E-02  0.1125453E+00
         25   -1    0    0    0    0  0.00000000000E+00  0.00000000000E+00  0.99999998245E-14  0.12509000000E+03  0.12509000000E+03 0.  0.
        -13    1    3    3    0    0  0.21204818346E+02  0.50914450071E+01 -0.55908259884E+02  0.60010930843E+02  0.10566000000E+00 0.  1.
         23    2    1    0    0    0  0.66127164550E+01  0.14456095268E+02 -0.24576619489E+02  0.95820272724E+02  0.91240384315E+02 0.  0.
         13    1    3    3    0    0 -0.14592101891E+02  0.93646502608E+01  0.31331640394E+02  0.35809341881E+02  0.10566000000E+00 0. -1.
         22    1    1    0    0    0 -0.66127164550E+01 -0.14456095268E+02  0.24576619489E+02  0.29269727276E+02  0.00000000000E+00 0.  1.
</event>
<event>
 5    1  0.1261138E-009  0.9118800E+02  0.7561462E-02  0.1125453E+00
         25   -1    0    0    0    0  0.00000000000E+00  0.00000000000E+00  0.99999998245E-14  0.12509000000E+03  0.12509000000E+03 0.  0.
        -13    1    3    3    0    0  0.30597283064E+01 -0.31525136613E+02 -0.22884702887E+02  0.39075784906E+02  0.10566000000E+00 0.  1.
         23    2    1    0    0    0  0.20208210818E+02  0.19790299777E+02 -0.33132233183E+01  0.96611846997E+02  0.92319249248E+02 0.  0.
         13    1    3    3    0    0  0.17148482512E+02  0.51315436390E+02  0.19571479569E+02  0.57536062090E+02  0.10566000000E+00 0. -1.
         22    1    1    0    0    0 -0.20208210818E+02 -0.19790299777E+02  0.33132233183E+01  0.28478153003E+02  0.00000000000E+00 0. -1.
</event>
<event>
 5    1  0.1261138E-009  0.9118800E+02  0.7561462E-02  0.1125453E+00
         25   -1    0    0    0    0  0.00000000000E+00  0.00000000000E+00  0.99999998245E-14  0.12509000000E+03  0.12509000000E+03 0.  0.
        -13    1    3    3    0    0  0.31189893297E+02 -0.24861617048E+02  0.44520399645E+02  0.59774464403E+02  0.10566000000E+00 0. -1.
         23    2    1    0    0    0  0.23483431200E+02 -0.15457623739E+02  0.11947930742E+02  0.94542287785E+02  0.89471120804E+02 0.  0.
         13    1    3    3    0    0 -0.77064620975E+01  0.94039933088E+01 -0.32572468903E+02  0.34767823381E+02  0.10566000000E+00 0.  1.
         22    1    1    0    0    0 -0.23483431200E+02  0.15457623739E+02 -0.11947930742E+02  0.30547712215E+02  0.00000000000E+00 0. -1.
</event>
<event>
 4    1  0.1261138E-009  0.9118800E+02  0.7561462E-02  0.1125453E+00
         25   -1    0    0    0    0  0.00000000000E+00  0.00000000000E+00  0.99999998245E-14  0.12509000000E+03  0.12509000000E+03 0.  0.
        -13    1    1    0    0    0  0.27244253943E+02 -0.22287147182E+02  0.71599162296E+01  0.35919936900E+02  0.10566000000E+00 0.  1.
         13    1    1    0    0    0 -0.15856373211E+02 -0.27732894410E+02 -0.18098911494E+02  0.36716750470E+02  0.10566000000E+00 0. -1.
         22    1    1    0    0    0 -0.11387880733E+02  0.50020041592E+02  0.10938995264E+02  0.52453312630E+02  0.00000000000E+00 0. -1.
</event>
<event>
 5    1  0.1261138E-009  0.9118800E+02  0.7561462E-02  0.1125453E+00
         25   -1    0    0    0    0  0.00000000000E+00  0.00000000000E+00  0.99999998245E-14  0.12509000000E+03  0.12509000000E+03 0.  0.
        -13    1    3    3    0    0 -0.14223518408E+02 -0.99334274750E+01  0.32391303494E+02  0.36744920239E+02  0.10566000000E+00 0.  1.
         23    2    1    0    0    0  0.23160657630E+02 -0.89698675176E+01 -0.14193772582E+02  0.96483396474E+02  0.92145038011E+02 0.  0.
         13    1    3    3    0    0  0.37384176039E+02  0.96355995741E+00 -0.46585076076E+02  0.59738476235E+02  0.10566000000E+00 0. -1.
         22    1    1    0    0    0 -0.23160657630E+02  0.89698675176E+01  0.14193772582E+02  0.28606603526E+02  0.00000000000E+00 0. -1.
</event>
<event>
 5    1  0.1261138E-009  0.9118800E+02  0.7561462E-02  0.1125453E+00
         25   -1    0    0    0    0  0.00000000000E+00  0.00000000000E+00  0.99999998245E-14  0.12509000000E+03  0.12509000000E+03 0.  0.
        -13    1    3    3    0    0 -0.29510108541E+02  0.13558288161E+02  0.19512811261E+02  0.37887130418E+02  0.10566000000E+00 0.  1.
         23    2    1    0    0    0  0.24679896062E+02 -0.48676158995E+00  0.19115593145E+02  0.93869171892E+02  0.88525032189E+02 0.  0.
         13    1    3    3    0    0  0.54190004603E+02 -0.14045049751E+02 -0.39721811611E+00  0.55982041474E+02  0.10566000000E+00 0. -1.
         22    1    1    0    0    0 -0.24679896062E+02  0.48676158995E+00 -0.19115593145E+02  0.31220828108E+02  0.00000000000E+00 0. -1.
</event>
<event>
 5    1  0.1261138E-009  0.9118800E+02  0.7561462E-02  0.1125453E+00
         25   -1    0    0    0    0  0.00000000000E+00  0.00000000000E+00  0.99999998245E-14  0.12509000000E+03  0.12509000000E+03 0.  0.
        -13    1    3    3    0    0  0.28608612740E+02  0.22733553650E+02 -0.41676572200E+02  0.55427565514E+02  0.10566000000E+00 0. -1.
         23    2    1    0    0    0 -0.38781302020E+01  0.23007781971E+02 -0.17414538458E+02  0.95975328873E+02  0.91452718262E+02 0.  0.
         13    1    3    3    0    0 -0.32486742942E+02  0.27422832085E+00  0.24262033741E+02  0.40547763359E+02  0.10566000000E+00 0.  1.
         22    1    1    0    0    0  0.38781302020E+01 -0.23007781971E+02  0.17414538458E+02  0.29114671127E+02  0.00000000000E+00 0. -1.
</event>
<event>
 5    1  0.1261138E-009  0.9118800E+02  0.7561462E-02  0.1125453E+00
         25   -1    0    0    0    0  0.00000000000E+00  0.00000000000E+00  0.99999998245E-14  0.12509000000E+03  0.12509000000E+03 0.  0.
        -13    1    3    3    0    0 -0.26171110870E+02  0.26224951930E+02  0.12479559077E+01  0.37070793165E+02  0.10566000000E+00 0.  1.
         23    2    1    0    0    0  0.14020721581E+02 -0.12320639350E+02 -0.20960272236E+02  0.97023796127E+02  0.92875751492E+02 0.  0.
         13    1    3    3    0    0  0.40191832451E+02 -0.38545591280E+02 -0.22208228144E+02  0.59953002962E+02  0.10566000000E+00 0. -1.
         22    1    1    0    0    0 -0.14020721581E+02  0.12320639350E+02  0.20960272236E+02  0.28066203873E+02  0.00000000000E+00 0. -1.
</event>
<event>
 5    1  0.1261138E-009  0.9118800E+02  0.7561462E-02  0.1125453E+00
         25   -1    0    0    0    0  0.00000000000E+00  0.00000000000E+00  0.99999998245E-14  0.12509000000E+03  0.12509000000E+03 0.  0.
        -13    1    3    3    0    0  0.19675851321E+02  0.50887782505E+01  0.57034422427E+02  0.60547264967E+02  0.10566000000E+00 0.  1.
         23    2    1    0    0    0  0.11456318557E+02  0.13574959728E+02  0.27558580722E+02  0.92302774776E+02  0.86283255000E+02 0.  0.
         13    1    3    3    0    0 -0.82195327645E+01  0.84861814777E+01 -0.29475841706E+02  0.31755509809E+02  0.10566000000E+00 0. -1.
         22    1    1    0    0    0 -0.11456318557E+02 -0.13574959728E+02 -0.27558580722E+02  0.32787225224E+02  0.00000000000E+00 0.  1.
</event>
<event>
 5    1  0.1261138E-009  0.9118800E+02  0.7561462E-02  0.1125453E+00
         25   -1    0    0    0    0  0.00000000000E+00  0.00000000000E+00  0.99999998245E-14  0.12509000000E+03  0.12509000000E+03 0.  0.
        -13    1    3    3    0    0  0.18657025060E+02 -0.55693655308E+02  0.31046752571E+01  0.58817667398E+02  0.10566000000E+00 0.  1.
         23    2    1    0    0    0  0.48426961059E+01 -0.27751054890E+02 -0.13182910608E+02  0.93987558212E+02  0.88692159819E+02 0.  0.
         13    1    3    3    0    0 -0.13814328954E+02  0.27942600417E+02 -0.16287585865E+02  0.35169890814E+02  0.10566000000E+00 0. -1.
         22    1    1    0    0    0 -0.48426961059E+01  0.27751054890E+02  0.13182910608E+02  0.31102441788E+02  0.00000000000E+00 0.  1.
</event>
<event>
 5    1  0.1261138E-009  0.9118800E+02  0.7561462E-02  0.1125453E+00
         25   -1    0    0    0    0  0.00000000000E+00  0.00000000000E+00  0.99999998245E-14  0.12509000000E+03  0.12509000000E+03 0.  0.
        -13    1    3    3    0    0  0.14641490338E+02  0.18933586033E+02 -0.38420384949E+02  0.45265782474E+02  0.10566000000E+00 0.  1.
         23    2    1    0    0    0 -0.93759707243E+01  0.29026628588E+02  0.32543509144E+01  0.94413546586E+02  0.89290945705E+02 0.  0.
         13    1    3    3    0    0 -0.24017461062E+02  0.10093042554E+02  0.41674735863E+02  0.49147764111E+02  0.10566000000E+00 0. -1.
         22    1    1    0    0    0  0.93759707243E+01 -0.29026628588E+02 -0.32543509144E+01  0.30676453414E+02  0.00000000000E+00 0. -1.
</event>
<event>
 5    1  0.1261138E-009  0.9118800E+02  0.7561462E-02  0.1125453E+00
         25   -1    0    0    0    0  0.00000000000E+00  0.00000000000E+00  0.99999998245E-14  0.12509000000E+03  0.12509000000E+03 0.  0.
        -13    1    3    3    0    0 -0.26836411054E+02 -0.35971943735E+02  0.35629992259E+01  0.45020882065E+02  0.10566000000E+00 0. -1.
         23    2    1    0    0    0 -0.74043247112E+01  0.17466533447E+00 -0.27576302101E+02  0.96536419314E+02  0.92216990213E+02 0.  0.
         13    1    3    3    0    0  0.19432086343E+02  0.36146609070E+02 -0.31139301327E+02  0.51515537249E+02  0.10566000000E+00 0.  1.
         22    1    1    0    0    0  0.74043247112E+01 -0.17466533447E+00  0.27576302101E+02  0.28553580686E+02  0.00000000000E+00 0.  1.
</event>
<event>
 5    1  0.1261138E-009  0.9118800E+02  0.7561462E-02  0.1125453E+00
         25   -1    0    0    0    0  0.00000000000E+00  0.00000000000E+00  0.99999998245E-14  0.12509000000E+03  0.12509000000E+03 0.  0.
        -13    1    3    3    0    0  0.13486537785E+01  0.29653183441E+02  0.26727476548E+02  0.39943701904E+02  0.10566000000E+00 0.  1.
         23    2    1    0    0    0 -0.23628647537E+02 -0.11921859971E+01 -0.14636456249E+02  0.97269860831E+02  0.93206575318E+02 0.  0.
         13    1    3    3    0    0 -0.24977301315E+02 -0.30845369438E+02 -0.41363932797E+02  0.57326158926E+02  0.10566000000E+00 0. -1.
         22    1    1    0    0    0  0.23628647537E+02  0.11921859971E+01  0.14636456249E+02  0.27820139169E+02  0.00000000000E+00 0. -1.
</event>
<event>
 5    1  0.1261138E-009  0.9118800E+02  0.7561462E-02  0.1125453E+00
         25   -1    0    0    0    0  0.00000000000E+00  0.00000000000E+00  0.99999998245E-14  0.12509000000E+03  0.12509000000E+03 0.  0.
        -13    1    3    3    0    0 -0.13550866475E+02 -0.51168905495E+02 -0.14006338925E+02  0.54754648806E+02  0.10566000000E+00 0. -1.
         23    2    1    0    0    0 -0.73014498550E+01 -0.15109550796E+02 -0.26754227489E+02  0.93508385353E+02  0.88013747491E+02 0.  0.
         13    1    3    3    0    0  0.62494166204E+01  0.36059354699E+02 -0.12747888564E+02  0.38753736546E+02  0.10566000000E+00 0.  1.
         22    1    1    0    0    0  0.73014498550E+01  0.15109550796E+02  0.26754227489E+02  0.31581614647E+02  0.00000000000E+00 0. -1.
</event>
<event>
 5    1  0.1261138E-009  0.9118800E+02  0.7561462E-02  0.1125453E+00
         25   -1    0    0    0    0  0.00000000000E+00  0.00000000000E+00  0.99999998245E-14  0.12509000000E+03  0.12509000000E+03 0.  0.
        -13    1    3    3    0    0  0.24678532641E+01  0.20127518433E+02 -0.53616091170E+02  0.57322802570E+02  0.10566000000E+00 0.  1.
         23    2    1    0    0    0 -0.69167745216E+00 -0.82902237031E+01 -0.28567476845E+02  0.95335891711E+02  0.90573866476E+02 0.  0.
         13    1    3    3    0    0 -0.31595307162E+01 -0.28417742136E+02  0.25048614325E+02  0.38013089142E+02  0.10566000000E+00 0. -1.
         22    1    1    0    0    0  0.69167745216E+00  0.82902237031E+01  0.28567476845E+02  0.29754108289E+02  0.00000000000E+00 0.  1.
</event>
<event>
 5    1  0.1261138E-009  0.9118800E+02  0.7561462E-02  0.1125453E+00
         25   -1    0    0    0    0  0.00000000000E+00  0.00000000000E+00  0.99999998245E-14  0.12509000000E+03  0.12509000000E+03 0.  0.
        -13    1    3    3    0    0 -0.29696487369E+02 -0.20155293196E+02 -0.17878254305E+02  0.40096886998E+02  0.10566000000E+00 0.  1.
         23    2    1    0    0    0 -0.69034595278E+01 -0.65726290176E+01  0.29329581790E+02  0.94250389535E+02  0.89062081460E+02 0.  0.
         13    1    3    3    0    0  0.22793027841E+02  0.13582664179E+02  0.47207836094E+02  0.54153502538E+02  0.10566000000E+00 0. -1.
         22    1    1    0    0    0  0.69034595278E+01  0.65726290176E+01 -0.29329581790E+02  0.30839610465E+02  0.00000000000E+00 0.  1.
</event>
<event>
 5    1  0.1261138E-009  0.9118800E+02  0.7561462E-02  0.1125453E+00
         25   -1    0    0    0    0  0.00000000000E+00  0.00000000000E+00  0.99999998245E-14  0.12509000000E+03  0.12509000000E+03 0.  0.
        -13    1    3    3    0    0  0.35624521438E+02 -0.31308726896E+02 -0.27825829423E+02  0.54987551815E+02  0.10566000000E+00 0.  1.
         23    2    1    0    0    0  0.29423268675E+02 -0.17137860064E+02  0.44220922298E+01  0.90753577839E+02  0.84007273518E+02 0.  0.
         13    1    3    3    0    0 -0.62012527629E+01  0.14170866832E+02  0.32247921652E+02  0.35766026024E+02  0.10566000000E+00 0. -1.
         22    1    1    0    0    0 -0.29423268675E+02  0.17137860064E+02 -0.44220922298E+01  0.34336422161E+02  0.00000000000E+00 0.  1.
</event>
<event>
 5    1  0.1261138E-009  0.9118800E+02  0.7561462E-02  0.1125453E+00
         25   -1    0    0    0    0  0.00000000000E+00  0.00000000000E+00  0.99999998245E-14  0.12509000000E+03  0.12509000000E+03 0.  0.
        -13    1    3    3    0    0 -0.22223922190E+01 -0.24233909712E+01  0.47708788345E+02  0.47822081724E+02  0.10566000000E+00 0. -1.
         23    2    1    0    0    0 -0.13381380698E+02 -0.24234367664E+02  0.51462219285E+01  0.96932416198E+02  0.92752594489E+02 0.  0.
         13    1    3    3    0    0 -0.11158988479E+02 -0.21810976692E+02 -0.42562566417E+02  0.49110334474E+02  0.10566000000E+00 0.  1.
         22    1    1    0    0    0  0.13381380698E+02  0.24234367664E+02 -0.51462219285E+01  0.28157583802E+02  0.00000000000E+00 0. -1.
</event>
<event>
 5    1  0.1261138E-009  0.9118800E+02  0.7561462E-02  0.1125453E+00
         25   -1    0    0    0    0  0.00000000000E+00  0.00000000000E+00  0.99999998245E-14  0.12509000000E+03  0.12509000000E+03 0.  0.
        -13    1    3    3    0    0 -0.14441726592E+02 -0.16525230588E+02 -0.25570961619E+02  0.33697655038E+02  0.10566000000E+00 0. -1.
         23    2    1    0    0    0  0.43563237796E+01  0.15828786532E+02  0.24126854296E+02  0.95907245877E+02  0.91359546155E+02 0.  0.
         13    1    3    3    0    0  0.18798050372E+02  0.32354017120E+02  0.49697815915E+02  0.62209590839E+02  0.10566000000E+00 0.  1.
         22    1    1    0    0    0 -0.43563237796E+01 -0.15828786532E+02 -0.24126854296E+02  0.29182754123E+02  0.00000000000E+00 0.  1.
</event>
<event>
 5    1  0.1261138E-009  0.9118800E+02  0.7561462E-02  0.1125453E+00
         25   -1    0    0    0    0  0.00000000000E+00  0.00000000000E+00  0.99999998245E-14  0.12509000000E+03  0.12509000000E+03 0.  0.
        -13    1    3    3    0    0 -0.29126624106E+02  0.26715176053E+02 -0.22735779203E+02  0.45595917398E+02  0.10566000000E+00 0.  1.
         23    2    1    0    0    0  0.17366329704E+02  0.23825392707E+02 -0.67597219535E+01  0.94842147416E+02  0.89889378353E+02 0.  0.
         13    1    3    3    0    0  0.46492953810E+02 -0.28897833460E+01  0.15976057249E+02  0.49246230018E+02  0.10566000000E+00 0. -1.
         22    1    1    0    0    0 -0.17366329704E+02 -0.23825392707E+02  0.67597219535E+01  0.30247852584E+02  0.00000000000E+00 0. -1.
</event>
<event>
 5    1  0.1261138E-009  0.9118800E+02  0.7561462E-02  0.1125453E+00
         25   -1    0    0    0    0  0.00000000000E+00  0.00000000000E+00  0.99999998245E-14  0.12509000000E+03  0.12509000000E+03 0.  0.
        -13    1    3    3    0    0 -0.31809562758E+02  0.23643118345E+02  0.51455535879E+01  0.39966651270E+02  0.10566000000E+00 0.  1.
         23    2    1    0    0    0  0.19285732141E+02  0.27177612286E+02 -0.21230070118E+01  0.91697347626E+02  0.85401020656E+02 0.  0.
         13    1    3    3    0    0  0.51095294899E+02  0.35344939409E+01 -0.72685605997E+01  0.51730696356E+02  0.10566000000E+00 0. -1.
         22    1    1    0    0    0 -0.19285732141E+02 -0.27177612286E+02  0.21230070118E+01  0.33392652374E+02  0.00000000000E+00 0. -1.
</event>
<event>
 5    1  0.1261138E-009  0.9118800E+02  0.7561462E-02  0.1125453E+00
         25   -1    0    0    0    0  0.00000000000E+00  0.00000000000E+00  0.99999998245E-14  0.12509000000E+03  0.12509000000E+03 0.  0.
        -13    1    3    3    0    0 -0.33053979955E+02 -0.29492026290E+02 -0.13617271719E+02  0.46344217101E+02  0.10566000000E+00 0.  1.
         23    2    1    0    0    0  0.14533275994E+02 -0.18667276659E+02 -0.18028132211E+02  0.95346145509E+02  0.90588026711E+02 0.  0.
         13    1    3    3    0    0  0.47587255950E+02  0.10824749631E+02 -0.44108604921E+01  0.49001928408E+02  0.10566000000E+00 0. -1.
         22    1    1    0    0    0 -0.14533275994E+02  0.18667276659E+02  0.18028132211E+02  0.29743854491E+02  0.00000000000E+00 0. -1.
</event>
<event>
 5    1  0.1261138E-009  0.9118800E+02  0.7561462E-02  0.1125453E+00
         25   -1    0    0    0    0  0.00000000000E+00  0.00000000000E+00  0.99999998245E-14  0.12509000000E+03  0.12509000000E+03 0.  0.
        -13    1    3    3    0    0 -0.13376379291E+02  0.30889807876E+02 -0.24700164887E+02  0.41751851014E+02  0.10566000000E+00 0. -1.
         23    2    1    0    0    0  0.10318269562E+02  0.92922412257E+01  0.22404085898E+02  0.98731784987E+02  0.95148357148E+02 0.  0.
         13    1    3    3    0    0  0.23694648853E+02 -0.21597566651E+02  0.47104250785E+02  0.56979933973E+02  0.10566000000E+00 0.  1.
         22    1    1    0    0    0 -0.10318269562E+02 -0.92922412257E+01 -0.22404085898E+02  0.26358215013E+02  0.00000000000E+00 0.  1.
</event>
<event>
 5    1  0.1261138E-009  0.9118800E+02  0.7561462E-02  0.1125453E+00
         25   -1    0    0    0    0  0.00000000000E+00  0.00000000000E+00  0.99999998245E-14  0.12509000000E+03  0.12509000000E+03 0.  0.
        -13    1    3    3    0    0 -0.20635320379E+01 -0.41869948258E+01  0.37488680334E+02  0.37778319276E+02  0.10566000000E+00 0.  1.
         23    2    1    0    0    0 -0.19607368404E+02 -0.58314082525E+01 -0.19134264224E+02  0.97079746783E+02  0.92951078262E+02 0.  0.
         13    1    3    3    0    0 -0.17543836366E+02 -0.16444134267E+01 -0.56622944557E+02  0.59301427506E+02  0.10566000000E+00 0. -1.
         22    1    1    0    0    0  0.19607368404E+02  0.58314082525E+01  0.19134264224E+02  0.28010253217E+02  0.00000000000E+00 0. -1.
</event>
<event>
 5    1  0.1261138E-009  0.9118800E+02  0.7561462E-02  0.1125453E+00
         25   -1    0    0    0    0  0.00000000000E+00  0.00000000000E+00  0.99999998245E-14  0.12509000000E+03  0.12509000000E+03 0.  0.
        -13    1    3    3    0    0  0.63041416764E+01 -0.38657167341E+02  0.10064578592E+02  0.40440396825E+02  0.10566000000E+00 0. -1.
         23    2    1    0    0    0  0.11456118567E+02  0.21071125387E+02  0.88206972711E+00  0.10108972865E+03  0.98199390092E+02 0.  0.
         13    1    3    3    0    0  0.51519768910E+01  0.59728292728E+02 -0.91825088648E+01  0.60649331828E+02  0.10566000000E+00 0.  1.
         22    1    1    0    0    0 -0.11456118567E+02 -0.21071125387E+02 -0.88206972711E+00  0.24000271347E+02  0.00000000000E+00 0.  1.
</event>
<event>
 5    1  0.1261138E-009  0.9118800E+02  0.7561462E-02  0.1125453E+00
         25   -1    0    0    0    0  0.00000000000E+00  0.00000000000E+00  0.99999998245E-14  0.12509000000E+03  0.12509000000E+03 0.  0.
        -13    1    3    3    0    0  0.34007513900E+02 -0.16170226972E+02 -0.21187956387E+01  0.37715881283E+02  0.10566000000E+00 0.  1.
         23    2    1    0    0    0 -0.24471096142E+01  0.28951294853E+02  0.26239520204E+01  0.95917222564E+02  0.91373205268E+02 0.  0.
         13    1    3    3    0    0 -0.36454623514E+02  0.45121521825E+02  0.47427476591E+01  0.58201341280E+02  0.10566000000E+00 0. -1.
         22    1    1    0    0    0  0.24471096142E+01 -0.28951294853E+02 -0.26239520204E+01  0.29172777436E+02  0.00000000000E+00 0. -1.
</event>
<event>
 5    1  0.1261138E-009  0.9118800E+02  0.7561462E-02  0.1125453E+00
         25   -1    0    0    0    0  0.00000000000E+00  0.00000000000E+00  0.99999998245E-14  0.12509000000E+03  0.12509000000E+03 0.  0.
        -13    1    3    3    0    0 -0.49031755422E+02 -0.35946741059E+02  0.15134189376E+01  0.60815975150E+02  0.10566000000E+00 0.  1.
         23    2    1    0    0    0 -0.14403190712E+02 -0.23291318809E+02  0.92086504012E+00  0.97689536008E+02  0.93768118348E+02 0.  0.
         13    1    3    3    0    0  0.34628564710E+02  0.12655422250E+02 -0.59255389746E+00  0.36873560858E+02  0.10566000000E+00 0. -1.
         22    1    1    0    0    0  0.14403190712E+02  0.23291318809E+02 -0.92086504012E+00  0.27400463992E+02  0.00000000000E+00 0.  1.
</event>
<event>
 5    1  0.1261138E-009  0.9118800E+02  0.7561462E-02  0.1125453E+00
         25   -1    0    0    0    0  0.00000000000E+00  0.00000000000E+00  0.99999998245E-14  0.12509000000E+03  0.12509000000E+03 0.  0.
        -13    1    3    3    0    0 -0.17839028540E+02 -0.55127393160E+01 -0.25285828245E+02  0.31432554909E+02  0.10566000000E+00 0. -1.
         23    2    1    0    0    0  0.19141751846E+02 -0.23845931559E+02  0.16648796922E+02  0.90273085223E+02  0.83288728896E+02 0.  0.
         13    1    3    3    0    0  0.36980780386E+02 -0.18333192243E+02  0.41934625167E+02  0.58840530315E+02  0.10566000000E+00 0.  1.
         22    1    1    0    0    0 -0.19141751846E+02  0.23845931559E+02 -0.16648796922E+02  0.34816914777E+02  0.00000000000E+00 0.  1.
</event>
<event>
 5    1  0.1261138E-009  0.9118800E+02  0.7561462E-02  0.1125453E+00
         25   -1    0    0    0    0  0.00000000000E+00  0.00000000000E+00  0.99999998245E-14  0.12509000000E+03  0.12509000000E+03 0.  0.
        -13    1    3    3    0    0  0.53937707106E+02  0.24254685268E+02 -0.45442762244E+01  0.59314649251E+02  0.10566000000E+00 0. -1.
         23    2    1    0    0    0  0.20319877622E+02  0.24678832633E+02 -0.32037358981E+01  0.92962035072E+02  0.87233788376E+02 0.  0.
         13    1    3    3    0    0 -0.33617829484E+02  0.42414736538E+00  0.13405403263E+01  0.33647385822E+02  0.10566000000E+00 0.  1.
         22    1    1    0    0    0 -0.20319877622E+02 -0.24678832633E+02  0.32037358981E+01  0.32127964928E+02  0.00000000000E+00 0. -1.
</event>
<event>
 5    1  0.1261138E-009  0.9118800E+02  0.7561462E-02  0.1125453E+00
         25   -1    0    0    0    0  0.00000000000E+00  0.00000000000E+00  0.99999998245E-14  0.12509000000E+03  0.12509000000E+03 0.  0.
        -13    1    3    3    0    0  0.33362843892E+02 -0.19602815573E+01  0.12776807956E+02  0.35779603714E+02  0.10566000000E+00 0. -1.
         23    2    1    0    0    0 -0.27176949926E+02 -0.33254338341E+01  0.82056946854E+01  0.96507163494E+02  0.92177296895E+02 0.  0.
         13    1    3    3    0    0 -0.60539793818E+02 -0.13651522768E+01 -0.45711132707E+01  0.60727559780E+02  0.10566000000E+00 0.  1.
         22    1    1    0    0    0  0.27176949926E+02  0.33254338341E+01 -0.82056946854E+01  0.28582836506E+02  0.00000000000E+00 0.  1.
</event>
<event>
 5    1  0.1261138E-009  0.9118800E+02  0.7561462E-02  0.1125453E+00
         25   -1    0    0    0    0  0.00000000000E+00  0.00000000000E+00  0.99999998245E-14  0.12509000000E+03  0.12509000000E+03 0.  0.
        -13    1    3    3    0    0  0.18793189576E+01 -0.28425042422E+02 -0.25613781588E+02  0.38309161407E+02  0.10566000000E+00 0. -1.
         23    2    1    0    0    0  0.29771640100E+02  0.92682839975E+01  0.38248589795E+01  0.93675334814E+02  0.88250706308E+02 0.  0.
         13    1    3    3    0    0  0.27892321143E+02  0.37693326419E+02  0.29438640568E+02  0.55366173407E+02  0.10566000000E+00 0.  1.
         22    1    1    0    0    0 -0.29771640100E+02 -0.92682839975E+01 -0.38248589795E+01  0.31414665186E+02  0.00000000000E+00 0.  1.
</event>
<event>
 5    1  0.1261138E-009  0.9118800E+02  0.7561462E-02  0.1125453E+00
         25   -1    0    0    0    0  0.00000000000E+00  0.00000000000E+00  0.99999998245E-14  0.12509000000E+03  0.12509000000E+03 0.  0.
        -13    1    3    3    0    0 -0.24649389826E+02 -0.33910822795E+02 -0.69134283910E+00  0.41928813964E+02  0.10566000000E+00 0. -1.
         23    2    1    0    0    0  0.18333836830E+02 -0.87752647130E+01 -0.21145715831E+02  0.95759535604E+02  0.91157076069E+02 0.  0.
         13    1    3    3    0    0  0.42983226655E+02  0.25135558082E+02 -0.20454372992E+02  0.53830721641E+02  0.10566000000E+00 0.  1.
         22    1    1    0    0    0 -0.18333836830E+02  0.87752647130E+01  0.21145715831E+02  0.29330464396E+02  0.00000000000E+00 0.  1.
</event>
<event>
 5    1  0.1261138E-009  0.9118800E+02  0.7561462E-02  0.1125453E+00
         25   -1    0    0    0    0  0.00000000000E+00  0.00000000000E+00  0.99999998245E-14  0.12509000000E+03  0.12509000000E+03 0.  0.
        -13    1    3    3    0    0  0.11187223693E+01  0.55210528737E+02  0.18699091639E+02  0.58301982944E+02  0.10566000000E+00 0. -1.
         23    2    1    0    0    0 -0.78082174318E+01  0.27249728530E+02 -0.53446684835E+01  0.96244178021E+02  0.91819716604E+02 0.  0.
         13    1    3    3    0    0 -0.89269398012E+01 -0.27960800206E+02 -0.24043760122E+02  0.37942195077E+02  0.10566000000E+00 0.  1.
         22    1    1    0    0    0  0.78082174318E+01 -0.27249728530E+02  0.53446684835E+01  0.28845821979E+02  0.00000000000E+00 0. -1.
</event>
<event>
 5    1  0.1261138E-009  0.9118800E+02  0.7561462E-02  0.1125453E+00
         25   -1    0    0    0    0  0.00000000000E+00  0.00000000000E+00  0.99999998245E-14  0.12509000000E+03  0.12509000000E+03 0.  0.
        -13    1    3    3    0    0 -0.19080841656E+02  0.20210173665E+02 -0.23493078214E+02  0.36393207139E+02  0.10566000000E+00 0.  1.
         23    2    1    0    0    0 -0.59340846319E+01  0.22261775172E+02  0.27569602120E+02  0.89161140356E+02  0.81601629851E+02 0.  0.
         13    1    3    3    0    0  0.13146757024E+02  0.20516015068E+01  0.51062680335E+02  0.52767933217E+02  0.10566000000E+00 0. -1.
         22    1    1    0    0    0  0.59340846319E+01 -0.22261775172E+02 -0.27569602120E+02  0.35928859644E+02  0.00000000000E+00 0. -1.
</event>
<event>
 5    1  0.1261138E-009  0.9118800E+02  0.7561462E-02  0.1125453E+00
         25   -1    0    0    0    0  0.00000000000E+00  0.00000000000E+00  0.99999998245E-14  0.12509000000E+03  0.12509000000E+03 0.  0.
        -13    1    3    3    0    0 -0.62874529539E+01  0.31422598445E+02  0.38205923708E+02  0.49865975656E+02  0.10566000000E+00 0.  1.
         23    2    1    0    0    0 -0.28294231380E+02  0.53712872545E+01  0.85807616995E+01  0.95039314026E+02  0.90163337798E+02 0.  0.
         13    1    3    3    0    0 -0.22006778427E+02 -0.26051311190E+02 -0.29625162008E+02  0.45173338370E+02  0.10566000000E+00 0. -1.
         22    1    1    0    0    0  0.28294231380E+02 -0.53712872545E+01 -0.85807616995E+01  0.30050685974E+02  0.00000000000E+00 0.  1.
</event>
<event>
 5    1  0.1261138E-009  0.9118800E+02  0.7561462E-02  0.1125453E+00
         25   -1    0    0    0    0  0.00000000000E+00  0.00000000000E+00  0.99999998245E-14  0.12509000000E+03  0.12509000000E+03 0.  0.
        -13    1    3    3    0    0 -0.34735950013E+00  0.30075126066E+02 -0.18820337570E+02  0.35480278138E+02  0.10566000000E+00 0.  1.
         23    2    1    0    0    0  0.12994437413E+02 -0.21985764763E+02  0.11383059553E+02  0.97129254290E+02  0.93017679708E+02 0.  0.
         13    1    3    3    0    0  0.13341796913E+02 -0.52060890829E+02  0.30203397123E+02  0.61648976152E+02  0.10566000000E+00 0. -1.
         22    1    1    0    0    0 -0.12994437413E+02  0.21985764763E+02 -0.11383059553E+02  0.27960745710E+02  0.00000000000E+00 0. -1.
</event>
<event>
 5    1  0.1261138E-009  0.9118800E+02  0.7561462E-02  0.1125453E+00
         25   -1    0    0    0    0  0.00000000000E+00  0.00000000000E+00  0.99999998245E-14  0.12509000000E+03  0.12509000000E+03 0.  0.
        -13    1    3    3    0    0  0.15026469659E+02  0.26131193195E+02  0.49974068516E+02  0.58361397655E+02  0.10566000000E+00 0.  1.
         23    2    1    0    0    0  0.11944460034E+02 -0.45199956033E+01  0.20115014831E+02  0.10126324388E+03  0.98420171981E+02 0.  0.
         13    1    3    3    0    0 -0.30820096243E+01 -0.30651188798E+02 -0.29859053685E+02  0.42901846220E+02  0.10566000000E+00 0. -1.
         22    1    1    0    0    0 -0.11944460034E+02  0.45199956033E+01 -0.20115014831E+02  0.23826756125E+02  0.00000000000E+00 0.  1.
</event>
<event>
 5    1  0.1261138E-009  0.9118800E+02  0.7561462E-02  0.1125453E+00
         25   -1    0    0    0    0  0.00000000000E+00  0.00000000000E+00  0.99999998245E-14  0.12509000000E+03  0.12509000000E+03 0.  0.
        -13    1    3    3    0    0 -0.38898450016E+02 -0.13872388847E+02 -0.46892626501E+02  0.62485695724E+02  0.10566000000E+00 0. -1.
         23    2    1    0    0    0 -0.18095598525E+02 -0.83472172263E+01 -0.21456738498E+02  0.95806585780E+02  0.91221617670E+02 0.  0.
         13    1    3    3    0    0  0.20802851490E+02  0.55251716203E+01  0.25435888003E+02  0.33320890056E+02  0.10566000000E+00 0.  1.
         22    1    1    0    0    0  0.18095598525E+02  0.83472172263E+01  0.21456738498E+02  0.29283414220E+02  0.00000000000E+00 0. -1.
</event>
<event>
 5    1  0.1261138E-009  0.9118800E+02  0.7561462E-02  0.1125453E+00
         25   -1    0    0    0    0  0.00000000000E+00  0.00000000000E+00  0.99999998245E-14  0.12509000000E+03  0.12509000000E+03 0.  0.
        -13    1    3    3    0    0  0.17275334318E+02  0.42424919822E+02 -0.25205417027E+02  0.52284177427E+02  0.10566000000E+00 0.  1.
         23    2    1    0    0    0 -0.16754923238E+02  0.21606861931E+02 -0.16627492172E+02  0.93089102651E+02  0.87415808646E+02 0.  0.
         13    1    3    3    0    0 -0.34030257556E+02 -0.20818057892E+02  0.85779248552E+01  0.40804925224E+02  0.10566000000E+00 0. -1.
         22    1    1    0    0    0  0.16754923238E+02 -0.21606861931E+02  0.16627492172E+02  0.32000897349E+02  0.00000000000E+00 0.  1.
</event>
<event>
 5    1  0.1261138E-009  0.9118800E+02  0.7561462E-02  0.1125453E+00
         25   -1    0    0    0    0  0.00000000000E+00  0.00000000000E+00  0.99999998245E-14  0.12509000000E+03  0.12509000000E+03 0.  0.
        -13    1    3    3    0    0 -0.80959737837E+01  0.15663163648E+02 -0.29610907537E+02  0.34462972829E+02  0.10566000000E+00 0.  1.
         23    2    1    0    0    0  0.28922874297E+02 -0.87213373147E+01  0.93367670456E+01  0.93470866536E+02  0.87960407514E+02 0.  0.
         13    1    3    3    0    0  0.37018848080E+02 -0.24384500963E+02  0.38947674583E+02  0.59007893708E+02  0.10566000000E+00 0. -1.
         22    1    1    0    0    0 -0.28922874297E+02  0.87213373147E+01 -0.93367670456E+01  0.31619133464E+02  0.00000000000E+00 0. -1.
</event>
<event>
 5    1  0.1261138E-009  0.9118800E+02  0.7561462E-02  0.1125453E+00
         25   -1    0    0    0    0  0.00000000000E+00  0.00000000000E+00  0.99999998245E-14  0.12509000000E+03  0.12509000000E+03 0.  0.
        -13    1    3    3    0    0  0.11866087423E+02  0.30802632579E+02  0.32657711059E+02  0.46434291856E+02  0.10566000000E+00 0. -1.
         23    2    1    0    0    0 -0.18547015932E+01 -0.15461019127E+02  0.25490904947E+02  0.95219123457E+02  0.90412456035E+02 0.  0.
         13    1    3    3    0    0 -0.13720789017E+02 -0.46263651706E+02 -0.71668061117E+01  0.48784831601E+02  0.10566000000E+00 0.  1.
         22    1    1    0    0    0  0.18547015932E+01  0.15461019127E+02 -0.25490904947E+02  0.29870876543E+02  0.00000000000E+00 0.  1.
</event>
<event>
 5    1  0.1261138E-009  0.9118800E+02  0.7561462E-02  0.1125453E+00
         25   -1    0    0    0    0  0.00000000000E+00  0.00000000000E+00  0.99999998245E-14  0.12509000000E+03  0.12509000000E+03 0.  0.
        -13    1    3    3    0    0 -0.68408135819E+01 -0.32050836051E+02 -0.42421655883E+02  0.53606537605E+02  0.10566000000E+00 0. -1.
         23    2    1    0    0    0 -0.55537326113E+01 -0.29696006218E+02 -0.12629837441E+01  0.94852740548E+02  0.89904118539E+02 0.  0.
         13    1    3    3    0    0  0.12870809706E+01  0.23548298334E+01  0.41158672139E+02  0.41246202943E+02  0.10566000000E+00 0.  1.
         22    1    1    0    0    0  0.55537326113E+01  0.29696006218E+02  0.12629837441E+01  0.30237259452E+02  0.00000000000E+00 0.  1.
</event>
<event>
 5    1  0.1261138E-009  0.9118800E+02  0.7561462E-02  0.1125453E+00
         25   -1    0    0    0    0  0.00000000000E+00  0.00000000000E+00  0.99999998245E-14  0.12509000000E+03  0.12509000000E+03 0.  0.
        -13    1    3    3    0    0  0.36409018396E+02 -0.25643008937E+02 -0.32191414042E+01  0.44649239224E+02  0.10566000000E+00 0.  1.
         23    2    1    0    0    0 -0.11314334246E+02 -0.19994264977E+02 -0.19049369786E+02  0.95246017682E+02  0.90449657841E+02 0.  0.
         13    1    3    3    0    0 -0.47723352641E+02  0.56487439601E+01 -0.15830228382E+02  0.50596778458E+02  0.10566000000E+00 0. -1.
         22    1    1    0    0    0  0.11314334246E+02  0.19994264977E+02  0.19049369786E+02  0.29843982318E+02  0.00000000000E+00 0. -1.
</event>
<event>
 5    1  0.1261138E-009  0.9118800E+02  0.7561462E-02  0.1125453E+00
         25   -1    0    0    0    0  0.00000000000E+00  0.00000000000E+00  0.99999998245E-14  0.12509000000E+03  0.12509000000E+03 0.  0.
        -13    1    3    3    0    0  0.33442273111E+02 -0.17512539047E+02  0.10351548296E+02  0.39143842056E+02  0.10566000000E+00 0.  1.
         23    2    1    0    0    0 -0.38999695539E+01 -0.39648811247E+00 -0.28879280425E+02  0.95945878754E+02  0.91412427200E+02 0.  0.
         13    1    3    3    0    0 -0.37342242665E+02  0.17116050935E+02 -0.39230828721E+02  0.56802036698E+02  0.10566000000E+00 0. -1.
         22    1    1    0    0    0  0.38999695539E+01  0.39648811247E+00  0.28879280425E+02  0.29144121246E+02  0.00000000000E+00 0. -1.
</event>
<event>
 5    1  0.1261138E-009  0.9118800E+02  0.7561462E-02  0.1125453E+00
         25   -1    0    0    0    0  0.00000000000E+00  0.00000000000E+00  0.99999998245E-14  0.12509000000E+03  0.12509000000E+03 0.  0.
        -13    1    3    3    0    0  0.63516590886E+00 -0.33421861963E+02 -0.35039181347E+02  0.48427055314E+02  0.10566000000E+00 0. -1.
         23    2    1    0    0    0 -0.29023380801E+01  0.12989884539E+02 -0.26054233992E+02  0.95832799595E+02  0.91257556962E+02 0.  0.
         13    1    3    3    0    0 -0.35375039890E+01  0.46411746502E+02  0.89849473555E+01  0.47405744281E+02  0.10566000000E+00 0.  1.
         22    1    1    0    0    0  0.29023380801E+01 -0.12989884539E+02  0.26054233992E+02  0.29257200405E+02  0.00000000000E+00 0. -1.
</event>
<event>
 5    1  0.1261138E-009  0.9118800E+02  0.7561462E-02  0.1125453E+00
         25   -1    0    0    0    0  0.00000000000E+00  0.00000000000E+00  0.99999998245E-14  0.12509000000E+03  0.12509000000E+03 0.  0.
        -13    1    3    3    0    0 -0.27161080883E+02  0.53720235371E+02 -0.16351380409E+02  0.62377614641E+02  0.10566000000E+00 0.  1.
         23    2    1    0    0    0 -0.10723445183E+02  0.28014547005E+02 -0.70513502484E+01  0.94275577065E+02  0.89097450975E+02 0.  0.
         13    1    3    3    0    0  0.16437635701E+02 -0.25705688366E+02  0.93000301601E+01  0.31897962424E+02  0.10566000000E+00 0. -1.
         22    1    1    0    0    0  0.10723445183E+02 -0.28014547005E+02  0.70513502484E+01  0.30814422935E+02  0.00000000000E+00 0.  1.
</event>
<event>
 5    1  0.1261138E-009  0.9118800E+02  0.7561462E-02  0.1125453E+00
         25   -1    0    0    0    0  0.00000000000E+00  0.00000000000E+00  0.99999998245E-14  0.12509000000E+03  0.12509000000E+03 0.  0.
        -13    1    3    3    0    0  0.25010498750E+02  0.46388802352E+02  0.32888275832E+02  0.62121621700E+02  0.10566000000E+00 0.  1.
         23    2    1    0    0    0  0.16031911401E+02  0.19048522338E+02  0.14339192018E+02  0.96358818086E+02  0.91975763160E+02 0.  0.
         13    1    3    3    0    0 -0.89785873490E+01 -0.27340280014E+02 -0.18549083815E+02  0.34237196387E+02  0.10566000000E+00 0. -1.
         22    1    1    0    0    0 -0.16031911401E+02 -0.19048522338E+02 -0.14339192018E+02  0.28731181914E+02  0.00000000000E+00 0.  1.
</event>
<event>
 5    1  0.1261138E-009  0.9118800E+02  0.7561462E-02  0.1125453E+00
         25   -1    0    0    0    0  0.00000000000E+00  0.00000000000E+00  0.99999998245E-14  0.12509000000E+03  0.12509000000E+03 0.  0.
        -13    1    3    3    0    0 -0.26987680735E+02 -0.29193307126E+02  0.44873996771E+01  0.40009149108E+02  0.10566000000E+00 0. -1.
         23    2    1    0    0    0  0.18780443213E+01  0.14048204760E+02  0.25363699832E+02  0.96034942323E+02  0.91534221854E+02 0.  0.
         13    1    3    3    0    0  0.28865725056E+02  0.43241511886E+02  0.20876300155E+02  0.56025793215E+02  0.10566000000E+00 0.  1.
         22    1    1    0    0    0 -0.18780443213E+01 -0.14048204760E+02 -0.25363699832E+02  0.29055057677E+02  0.00000000000E+00 0.  1.
</event>
<event>
 5    1  0.1261138E-009  0.9118800E+02  0.7561462E-02  0.1125453E+00
         25   -1    0    0    0    0  0.00000000000E+00  0.00000000000E+00  0.99999998245E-14  0.12509000000E+03  0.12509000000E+03 0.  0.
        -13    1    3    3    0    0 -0.23897518850E+02  0.31118471007E+02 -0.13936869461E+02  0.41637700938E+02  0.10566000000E+00 0. -1.
         23    2    1    0    0    0 -0.36333691380E+02 -0.63362012000E+01  0.87841589981E+01  0.87176334598E+02  0.78500110125E+02 0.  0.
         13    1    3    3    0    0 -0.12436172530E+02 -0.37454672207E+02  0.22721028459E+02  0.45538633660E+02  0.10566000000E+00 0.  1.
         22    1    1    0    0    0  0.36333691380E+02  0.63362012000E+01 -0.87841589981E+01  0.37913665402E+02  0.00000000000E+00 0.  1.
</event>
<event>
 4    1  0.1261138E-009  0.9118800E+02  0.7561462E-02  0.1125453E+00
         25   -1    0    0    0    0  0.00000000000E+00  0.00000000000E+00  0.99999998245E-14  0.12509000000E+03  0.12509000000E+03 0.  0.
        -13    1    1    0    0    0  0.30709736700E+02  0.49176743038E+01  0.87935583005E+01  0.32320415845E+02  0.10566000000E+00 0.  1.
         13    1    1    0    0    0  0.14848738974E+02 -0.19191118547E+02  0.24564302178E+02  0.34528251994E+02  0.10566000000E+00 0. -1.
         22    1    1    0    0    0 -0.45558475674E+02  0.14273444243E+02 -0.33357860478E+02  0.58241332162E+02  0.00000000000E+00 0.  1.
</event>
<event>
 5    1  0.1261138E-009  0.9118800E+02  0.7561462E-02  0.1125453E+00
         25   -1    0    0    0    0  0.00000000000E+00  0.00000000000E+00  0.99999998245E-14  0.12509000000E+03  0.12509000000E+03 0.  0.
        -13    1    3    3    0    0  0.51348573663E+01  0.22875713333E+02 -0.44967277590E+02  0.50712249393E+02  0.10566000000E+00 0. -1.
         23    2    1    0    0    0  0.21787602404E+02 -0.87218252205E+01 -0.19468170868E+02  0.94597713588E+02  0.89548578355E+02 0.  0.
         13    1    3    3    0    0  0.16652745037E+02 -0.31597538554E+02  0.25499106722E+02  0.43885464195E+02  0.10566000000E+00 0.  1.
         22    1    1    0    0    0 -0.21787602404E+02  0.87218252205E+01  0.19468170868E+02  0.30492286412E+02  0.00000000000E+00 0. -1.
</event>
<event>
 5    1  0.1261138E-009  0.9118800E+02  0.7561462E-02  0.1125453E+00
         25   -1    0    0    0    0  0.00000000000E+00  0.00000000000E+00  0.99999998245E-14  0.12509000000E+03  0.12509000000E+03 0.  0.
        -13    1    3    3    0    0  0.41595365702E+02  0.31244776325E+02 -0.14341649643E+02  0.53963919187E+02  0.10566000000E+00 0. -1.
         23    2    1    0    0    0  0.62553345537E+01  0.29405473425E+02  0.54890910709E+01  0.94529548457E+02  0.89453308116E+02 0.  0.
         13    1    3    3    0    0 -0.35340031148E+02 -0.18393028997E+01  0.19830740714E+02  0.40565629270E+02  0.10566000000E+00 0.  1.
         22    1    1    0    0    0 -0.62553345537E+01 -0.29405473425E+02 -0.54890910709E+01  0.30560451543E+02  0.00000000000E+00 0. -1.
</event>
<event>
 5    1  0.1261138E-009  0.9118800E+02  0.7561462E-02  0.1125453E+00
         25   -1    0    0    0    0  0.00000000000E+00  0.00000000000E+00  0.99999998245E-14  0.12509000000E+03  0.12509000000E+03 0.  0.
        -13    1    3    3    0    0  0.20774978650E+02 -0.36681879587E+01 -0.37599698613E+02  0.43113847435E+02  0.10566000000E+00 0.  1.
         23    2    1    0    0    0  0.24513471746E+02 -0.38934974320E+01  0.15159541583E+02  0.96005961073E+02  0.91494607717E+02 0.  0.
         13    1    3    3    0    0  0.37384930958E+01 -0.22530947323E+00  0.52759240196E+02  0.52892113638E+02  0.10566000000E+00 0. -1.
         22    1    1    0    0    0 -0.24513471746E+02  0.38934974320E+01 -0.15159541583E+02  0.29084038927E+02  0.00000000000E+00 0. -1.
</event>
<event>
 5    1  0.1261138E-009  0.9118800E+02  0.7561462E-02  0.1125453E+00
         25   -1    0    0    0    0  0.00000000000E+00  0.00000000000E+00  0.99999998245E-14  0.12509000000E+03  0.12509000000E+03 0.  0.
        -13    1    3    3    0    0  0.53164488267E+02  0.85647491592E+01  0.20595897186E+02  0.57654313679E+02  0.10566000000E+00 0. -1.
         23    2    1    0    0    0  0.26749718969E+02  0.50512505360E+01 -0.79750320044E+01  0.96723404639E+02  0.92470283186E+02 0.  0.
         13    1    3    3    0    0 -0.26414769298E+02 -0.35134986232E+01 -0.28570929190E+02  0.39069090960E+02  0.10566000000E+00 0.  1.
         22    1    1    0    0    0 -0.26749718969E+02 -0.50512505360E+01  0.79750320044E+01  0.28366595361E+02  0.00000000000E+00 0. -1.
</event>
<event>
 5    1  0.1261138E-009  0.9118800E+02  0.7561462E-02  0.1125453E+00
         25   -1    0    0    0    0  0.00000000000E+00  0.00000000000E+00  0.99999998245E-14  0.12509000000E+03  0.12509000000E+03 0.  0.
        -13    1    3    3    0    0 -0.19956150989E+02  0.29941905564E+02 -0.44431469946E+02  0.57174577888E+02  0.10566000000E+00 0.  1.
         23    2    1    0    0    0 -0.92748046842E+01  0.28253383035E+02 -0.93000058146E+01  0.93932885837E+02  0.88615017230E+02 0.  0.
         13    1    3    3    0    0  0.10681346305E+02 -0.16885225296E+01  0.35131464131E+02  0.36758307949E+02  0.10566000000E+00 0. -1.
         22    1    1    0    0    0  0.92748046842E+01 -0.28253383035E+02  0.93000058146E+01  0.31157114163E+02  0.00000000000E+00 0.  1.
</event>
<event>
 5    1  0.1261138E-009  0.9118800E+02  0.7561462E-02  0.1125453E+00
         25   -1    0    0    0    0  0.00000000000E+00  0.00000000000E+00  0.99999998245E-14  0.12509000000E+03  0.12509000000E+03 0.  0.
        -13    1    3    3    0    0  0.32408171953E+02 -0.30950401517E+02 -0.67431946412E+01  0.45317753711E+02  0.10566000000E+00 0.  1.
         23    2    1    0    0    0 -0.81039580813E+01 -0.17098517865E+02  0.21377160682E+02  0.96541507069E+02  0.92223891366E+02 0.  0.
         13    1    3    3    0    0 -0.40512130034E+02  0.13851883652E+02  0.28120355324E+02  0.51223753359E+02  0.10566000000E+00 0. -1.
         22    1    1    0    0    0  0.81039580813E+01  0.17098517865E+02 -0.21377160682E+02  0.28548492931E+02  0.00000000000E+00 0. -1.
</event>
<event>
 5    1  0.1261138E-009  0.9118800E+02  0.7561462E-02  0.1125453E+00
         25   -1    0    0    0    0  0.00000000000E+00  0.00000000000E+00  0.99999998245E-14  0.12509000000E+03  0.12509000000E+03 0.  0.
        -13    1    3    3    0    0  0.12183952291E+02  0.26179247547E+02 -0.17611149942E+02  0.33822558477E+02  0.10566000000E+00 0. -1.
         23    2    1    0    0    0 -0.29601962396E+02 -0.12591180590E+02 -0.23302354911E+01  0.92837186110E+02  0.87054575532E+02 0.  0.
         13    1    3    3    0    0 -0.41785914688E+02 -0.38770428137E+02  0.15280914451E+02  0.59014627634E+02  0.10566000000E+00 0.  1.
         22    1    1    0    0    0  0.29601962396E+02  0.12591180590E+02  0.23302354911E+01  0.32252813890E+02  0.00000000000E+00 0.  1.
</event>
<event>
 5    1  0.1261138E-009  0.9118800E+02  0.7561462E-02  0.1125453E+00
         25   -1    0    0    0    0  0.00000000000E+00  0.00000000000E+00  0.99999998245E-14  0.12509000000E+03  0.12509000000E+03 0.  0.
        -13    1    3    3    0    0 -0.19748922298E+02 -0.29627953305E+02  0.41331696278E+02  0.54554155023E+02  0.10566000000E+00 0. -1.
         23    2    1    0    0    0 -0.98219873996E+01  0.83543399682E+01  0.24773852211E+02  0.97161337551E+02  0.93060815216E+02 0.  0.
         13    1    3    3    0    0  0.99269348988E+01  0.37982293273E+02 -0.16557844067E+02  0.42607182528E+02  0.10566000000E+00 0.  1.
         22    1    1    0    0    0  0.98219873996E+01 -0.83543399682E+01 -0.24773852211E+02  0.27928662449E+02  0.00000000000E+00 0. -1.
</event>
<event>
 5    1  0.1261138E-009  0.9118800E+02  0.7561462E-02  0.1125453E+00
         25   -1    0    0    0    0  0.00000000000E+00  0.00000000000E+00  0.99999998245E-14  0.12509000000E+03  0.12509000000E+03 0.  0.
        -13    1    3    3    0    0 -0.26154202984E+02  0.10081684922E+02  0.32172433176E+02  0.42670356515E+02  0.10566000000E+00 0.  1.
         23    2    1    0    0    0 -0.11645026080E+02  0.19387164879E+02 -0.18295390277E+02  0.96000653155E+02  0.91487350527E+02 0.  0.
         13    1    3    3    0    0  0.14509176903E+02  0.93054799567E+01 -0.50467823453E+02  0.53330296641E+02  0.10566000000E+00 0. -1.
         22    1    1    0    0    0  0.11645026080E+02 -0.19387164879E+02  0.18295390277E+02  0.29089346845E+02  0.00000000000E+00 0. -1.
</event>
<event>
 5    1  0.1261138E-009  0.9118800E+02  0.7561462E-02  0.1125453E+00
         25   -1    0    0    0    0  0.00000000000E+00  0.00000000000E+00  0.99999998245E-14  0.12509000000E+03  0.12509000000E+03 0.  0.
        -13    1    3    3    0    0 -0.28800776707E+02  0.43517031367E+02 -0.39131485121E+01  0.52331067763E+02  0.10566000000E+00 0.  1.
         23    2    1    0    0    0  0.10854431312E+02  0.27942698421E+02 -0.14748707277E-01  0.95113120715E+02  0.90265676980E+02 0.  0.
         13    1    3    3    0    0  0.39655208019E+02 -0.15574332946E+02  0.38983998048E+01  0.42782052952E+02  0.10566000000E+00 0. -1.
         22    1    1    0    0    0 -0.10854431312E+02 -0.27942698421E+02  0.14748707277E-01  0.29976879285E+02  0.00000000000E+00 0.  1.
</event>
<event>
 5    1  0.1261138E-009  0.9118800E+02  0.7561462E-02  0.1125453E+00
         25   -1    0    0    0    0  0.00000000000E+00  0.00000000000E+00  0.99999998245E-14  0.12509000000E+03  0.12509000000E+03 0.  0.
        -13    1    3    3    0    0 -0.46607883919E+02 -0.16022710392E+01  0.19459911782E+02  0.50532775963E+02  0.10566000000E+00 0.  1.
         23    2    1    0    0    0 -0.16690413889E+02 -0.20427973010E+02 -0.10330613391E+02  0.96759917577E+02  0.92519663204E+02 0.  0.
         13    1    3    3    0    0  0.29917470030E+02 -0.18825701970E+02 -0.29790525173E+02  0.46227141614E+02  0.10566000000E+00 0. -1.
         22    1    1    0    0    0  0.16690413889E+02  0.20427973010E+02  0.10330613391E+02  0.28330082423E+02  0.00000000000E+00 0.  1.
</event>
<event>
 5    1  0.1261138E-009  0.9118800E+02  0.7561462E-02  0.1125453E+00
         25   -1    0    0    0    0  0.00000000000E+00  0.00000000000E+00  0.99999998245E-14  0.12509000000E+03  0.12509000000E+03 0.  0.
        -13    1    3    3    0    0 -0.50003334543E+02 -0.36109101128E+02 -0.92239590074E+01  0.62364198331E+02  0.10566000000E+00 0.  1.
         23    2    1    0    0    0 -0.28385351390E+02 -0.24359363116E+02 -0.45428295413E+01  0.87410508958E+02  0.78872384465E+02 0.  0.
         13    1    3    3    0    0  0.21617983153E+02  0.11749738012E+02  0.46811294661E+01  0.25046310628E+02  0.10566000000E+00 0. -1.
         22    1    1    0    0    0  0.28385351390E+02  0.24359363116E+02  0.45428295413E+01  0.37679491042E+02  0.00000000000E+00 0.  1.
</event>
<event>
 5    1  0.1261138E-009  0.9118800E+02  0.7561462E-02  0.1125453E+00
         25   -1    0    0    0    0  0.00000000000E+00  0.00000000000E+00  0.99999998245E-14  0.12509000000E+03  0.12509000000E+03 0.  0.
        -13    1    3    3    0    0 -0.66030170095E+01 -0.29670080471E+02  0.31413319649E+02  0.43711798455E+02  0.10566000000E+00 0. -1.
         23    2    1    0    0    0  0.24642848306E+02  0.65266295475E+01  0.19509617571E+02  0.92988722087E+02  0.87272048170E+02 0.  0.
         13    1    3    3    0    0  0.31245865315E+02  0.36196710019E+02 -0.11903702078E+02  0.49276923632E+02  0.10566000000E+00 0.  1.
         22    1    1    0    0    0 -0.24642848306E+02 -0.65266295475E+01 -0.19509617571E+02  0.32101277913E+02  0.00000000000E+00 0.  1.
</event>
<event>
 5    1  0.1261138E-009  0.9118800E+02  0.7561462E-02  0.1125453E+00
         25   -1    0    0    0    0  0.00000000000E+00  0.00000000000E+00  0.99999998245E-14  0.12509000000E+03  0.12509000000E+03 0.  0.
        -13    1    3    3    0    0  0.14279008157E+02 -0.54611070061E+02 -0.24255869654E+02  0.61437915198E+02  0.10566000000E+00 0.  1.
         23    2    1    0    0    0  0.24666574209E+01 -0.22051682967E+02 -0.17738875588E+02  0.96681747191E+02  0.92413913521E+02 0.  0.
         13    1    3    3    0    0 -0.11812350736E+02  0.32559387094E+02  0.65169940655E+01  0.35243831993E+02  0.10566000000E+00 0. -1.
         22    1    1    0    0    0 -0.24666574209E+01  0.22051682967E+02  0.17738875588E+02  0.28408252809E+02  0.00000000000E+00 0.  1.
</event>
<event>
 5    1  0.1261138E-009  0.9118800E+02  0.7561462E-02  0.1125453E+00
         25   -1    0    0    0    0  0.00000000000E+00  0.00000000000E+00  0.99999998245E-14  0.12509000000E+03  0.12509000000E+03 0.  0.
        -13    1    3    3    0    0  0.18786337741E+02 -0.28713240202E+02  0.19775972793E+02  0.39604001219E+02  0.10566000000E+00 0.  1.
         23    2    1    0    0    0 -0.28249861681E+02 -0.96343103340E+01 -0.27091520113E+01  0.95119779359E+02  0.90274904044E+02 0.  0.
         13    1    3    3    0    0 -0.47036199423E+02  0.19078929868E+02 -0.22485124804E+02  0.55515778140E+02  0.10566000000E+00 0. -1.
         22    1    1    0    0    0  0.28249861681E+02  0.96343103340E+01  0.27091520113E+01  0.29970220641E+02  0.00000000000E+00 0. -1.
</event>
<event>
 5    1  0.1261138E-009  0.9118800E+02  0.7561462E-02  0.1125453E+00
         25   -1    0    0    0    0  0.00000000000E+00  0.00000000000E+00  0.99999998245E-14  0.12509000000E+03  0.12509000000E+03 0.  0.
        -13    1    3    3    0    0  0.13570293678E+01 -0.31140748440E+02  0.15355680727E+02  0.34747601885E+02  0.10566000000E+00 0.  1.
         23    2    1    0    0    0  0.13043382526E+02  0.26498641842E+02  0.10437345950E+02  0.93765153031E+02  0.88377926459E+02 0.  0.
         13    1    3    3    0    0  0.11686353159E+02  0.57639390282E+02 -0.49183347770E+01  0.59017551146E+02  0.10566000000E+00 0. -1.
         22    1    1    0    0    0 -0.13043382526E+02 -0.26498641842E+02 -0.10437345950E+02  0.31324846969E+02  0.00000000000E+00 0. -1.
</event>
<event>
 5    1  0.1261138E-009  0.9118800E+02  0.7561462E-02  0.1125453E+00
         25   -1    0    0    0    0  0.00000000000E+00  0.00000000000E+00  0.99999998245E-14  0.12509000000E+03  0.12509000000E+03 0.  0.
        -13    1    3    3    0    0  0.16425680186E+02 -0.30419268922E+02 -0.62818588494E+01  0.35136986296E+02  0.10566000000E+00 0.  1.
         23    2    1    0    0    0 -0.24940206702E+02 -0.34556501423E+01  0.21663726798E+02  0.91874454136E+02  0.85660042236E+02 0.  0.
         13    1    3    3    0    0 -0.41365886888E+02  0.26963618780E+02  0.27945585648E+02  0.56737467840E+02  0.10566000000E+00 0. -1.
         22    1    1    0    0    0  0.24940206702E+02  0.34556501423E+01 -0.21663726798E+02  0.33215545864E+02  0.00000000000E+00 0. -1.
</event>
<event>
 5    1  0.1261138E-009  0.9118800E+02  0.7561462E-02  0.1125453E+00
         25   -1    0    0    0    0  0.00000000000E+00  0.00000000000E+00  0.99999998245E-14  0.12509000000E+03  0.12509000000E+03 0.  0.
        -13    1    3    3    0    0  0.24489426110E+02  0.26834865278E+02  0.30386722178E+02  0.47362496075E+02  0.10566000000E+00 0. -1.
         23    2    1    0    0    0  0.26772012383E+02  0.37455613871E+01 -0.11866832673E+02  0.95567269862E+02  0.90892857112E+02 0.  0.
         13    1    3    3    0    0  0.22825862727E+01 -0.23089303891E+02 -0.42253554851E+02  0.48204773787E+02  0.10566000000E+00 0.  1.
         22    1    1    0    0    0 -0.26772012383E+02 -0.37455613871E+01  0.11866832673E+02  0.29522730138E+02  0.00000000000E+00 0. -1.
</event>
<event>
 5    1  0.1261138E-009  0.9118800E+02  0.7561462E-02  0.1125453E+00
         25   -1    0    0    0    0  0.00000000000E+00  0.00000000000E+00  0.99999998245E-14  0.12509000000E+03  0.12509000000E+03 0.  0.
        -13    1    3    3    0    0  0.41298343850E+02  0.25086006640E+02  0.29113747095E+02  0.56413494555E+02  0.10566000000E+00 0. -1.
         23    2    1    0    0    0  0.82527431823E+01  0.26523980341E+02  0.62675340113E+01  0.96613495900E+02  0.92321483439E+02 0.  0.
         13    1    3    3    0    0 -0.33045600668E+02  0.14379737013E+01 -0.22846213084E+02  0.40200001346E+02  0.10566000000E+00 0.  1.
         22    1    1    0    0    0 -0.82527431823E+01 -0.26523980341E+02 -0.62675340113E+01  0.28476504100E+02  0.00000000000E+00 0.  1.
</event>
<event>
 5    1  0.1261138E-009  0.9118800E+02  0.7561462E-02  0.1125453E+00
         25   -1    0    0    0    0  0.00000000000E+00  0.00000000000E+00  0.99999998245E-14  0.12509000000E+03  0.12509000000E+03 0.  0.
        -13    1    3    3    0    0 -0.25711651211E+02 -0.13089395485E+02  0.26755483376E+02  0.39348295222E+02  0.10566000000E+00 0. -1.
         23    2    1    0    0    0  0.53516724299E+01  0.28654169749E+02  0.62401252903E+01  0.95279917722E+02  0.90496528749E+02 0.  0.
         13    1    3    3    0    0  0.31063323641E+02  0.41743565234E+02 -0.20515358086E+02  0.55931622500E+02  0.10566000000E+00 0.  1.
         22    1    1    0    0    0 -0.53516724299E+01 -0.28654169749E+02 -0.62401252903E+01  0.29810082278E+02  0.00000000000E+00 0.  1.
</event>
<event>
 5    1  0.1261138E-009  0.9118800E+02  0.7561462E-02  0.1125453E+00
         25   -1    0    0    0    0  0.00000000000E+00  0.00000000000E+00  0.99999998245E-14  0.12509000000E+03  0.12509000000E+03 0.  0.
        -13    1    3    3    0    0  0.62370449035E+00  0.44615012505E+02 -0.30082416110E+00  0.44620511061E+02  0.10566000000E+00 0. -1.
         23    2    1    0    0    0 -0.23554787320E+02  0.23579134169E+01  0.16623485548E+02  0.96163748374E+02  0.91710078335E+02 0.  0.
         13    1    3    3    0    0 -0.24178491810E+02 -0.42257099088E+02  0.16924309709E+02  0.51543237313E+02  0.10566000000E+00 0.  1.
         22    1    1    0    0    0  0.23554787320E+02 -0.23579134169E+01 -0.16623485548E+02  0.28926251626E+02  0.00000000000E+00 0.  1.
</event>
<event>
 5    1  0.1261138E-009  0.9118800E+02  0.7561462E-02  0.1125453E+00
         25   -1    0    0    0    0  0.00000000000E+00  0.00000000000E+00  0.99999998245E-14  0.12509000000E+03  0.12509000000E+03 0.  0.
        -13    1    3    3    0    0 -0.31059327148E+02 -0.97320551214E+01  0.11996788820E+02  0.34689030050E+02  0.10566000000E+00 0.  1.
         23    2    1    0    0    0  0.24269466737E+02 -0.96288244750E+01 -0.13598269418E+02  0.95651348407E+02  0.91008495452E+02 0.  0.
         13    1    3    3    0    0  0.55328793884E+02  0.10323064637E+00 -0.25595058238E+02  0.60962318357E+02  0.10566000000E+00 0. -1.
         22    1    1    0    0    0 -0.24269466737E+02  0.96288244750E+01  0.13598269418E+02  0.29438651593E+02  0.00000000000E+00 0. -1.
</event>
<event>
 5    1  0.1261138E-009  0.9118800E+02  0.7561462E-02  0.1125453E+00
         25   -1    0    0    0    0  0.00000000000E+00  0.00000000000E+00  0.99999998245E-14  0.12509000000E+03  0.12509000000E+03 0.  0.
        -13    1    3    3    0    0 -0.21184712661E+02 -0.31877534739E+02  0.16351235632E+02  0.41621428883E+02  0.10566000000E+00 0. -1.
         23    2    1    0    0    0  0.22505194433E+02 -0.83639564838E+00 -0.89098100442E+01  0.10087083302E+03  0.97920155765E+02 0.  0.
         13    1    3    3    0    0  0.43689907094E+02  0.31041139091E+02 -0.25261045676E+02  0.59249404137E+02  0.10566000000E+00 0.  1.
         22    1    1    0    0    0 -0.22505194433E+02  0.83639564838E+00  0.89098100442E+01  0.24219166979E+02  0.00000000000E+00 0.  1.
</event>
<event>
 5    1  0.1261138E-009  0.9118800E+02  0.7561462E-02  0.1125453E+00
         25   -1    0    0    0    0  0.00000000000E+00  0.00000000000E+00  0.99999998245E-14  0.12509000000E+03  0.12509000000E+03 0.  0.
        -13    1    3    3    0    0 -0.50544192889E+02  0.22349865095E+02 -0.28396737366E+01  0.55338113588E+02  0.10566000000E+00 0.  1.
         23    2    1    0    0    0 -0.12017321617E+02  0.28171624625E+02  0.62202713720E+00  0.94455976911E+02  0.89350367675E+02 0.  0.
         13    1    3    3    0    0  0.38526871271E+02  0.58217595296E+01  0.34617008738E+01  0.39117863323E+02  0.10566000000E+00 0. -1.
         22    1    1    0    0    0  0.12017321617E+02 -0.28171624625E+02 -0.62202713720E+00  0.30634023089E+02  0.00000000000E+00 0.  1.
</event>
<event>
 5    1  0.1261138E-009  0.9118800E+02  0.7561462E-02  0.1125453E+00
         25   -1    0    0    0    0  0.00000000000E+00  0.00000000000E+00  0.99999998245E-14  0.12509000000E+03  0.12509000000E+03 0.  0.
        -13    1    3    3    0    0 -0.33890452143E+02  0.39519236459E+02  0.11187787600E+02  0.53249512224E+02  0.10566000000E+00 0.  1.
         23    2    1    0    0    0  0.53999078703E+01  0.24986428886E+02 -0.64853069912E+01  0.98716910680E+02  0.95128800129E+02 0.  0.
         13    1    3    3    0    0  0.39290360013E+02 -0.14532807572E+02 -0.17673094591E+02  0.45467398456E+02  0.10566000000E+00 0. -1.
         22    1    1    0    0    0 -0.53999078703E+01 -0.24986428886E+02  0.64853069912E+01  0.26373089320E+02  0.00000000000E+00 0.  1.
</event>
<event>
 5    1  0.1261138E-009  0.9118800E+02  0.7561462E-02  0.1125453E+00
         25   -1    0    0    0    0  0.00000000000E+00  0.00000000000E+00  0.99999998245E-14  0.12509000000E+03  0.12509000000E+03 0.  0.
        -13    1    3    3    0    0  0.27999926529E+02  0.22348849173E+02  0.19302942913E+02  0.40694983894E+02  0.10566000000E+00 0. -1.
         23    2    1    0    0    0 -0.24412746090E+02  0.20584051798E+01  0.13287722523E+02  0.97219177023E+02  0.93138529126E+02 0.  0.
         13    1    3    3    0    0 -0.52412672619E+02 -0.20290443993E+02 -0.60152203902E+01  0.56524193129E+02  0.10566000000E+00 0.  1.
         22    1    1    0    0    0  0.24412746090E+02 -0.20584051798E+01 -0.13287722523E+02  0.27870822977E+02  0.00000000000E+00 0.  1.
</event>
<event>
 5    1  0.1261138E-009  0.9118800E+02  0.7561462E-02  0.1125453E+00
         25   -1    0    0    0    0  0.00000000000E+00  0.00000000000E+00  0.99999998245E-14  0.12509000000E+03  0.12509000000E+03 0.  0.
        -13    1    3    3    0    0  0.50445471264E+02 -0.95187444409E+01 -0.31146602031E+01  0.51430188985E+02  0.10566000000E+00 0. -1.
         23    2    1    0    0    0  0.18889488633E+02  0.11787054496E+02  0.19309337001E+02  0.95618014489E+02  0.90962666875E+02 0.  0.
         13    1    3    3    0    0 -0.31555982631E+02  0.21305798937E+02  0.22423997205E+02  0.44187825505E+02  0.10566000000E+00 0.  1.
         22    1    1    0    0    0 -0.18889488633E+02 -0.11787054496E+02 -0.19309337001E+02  0.29471985511E+02  0.00000000000E+00 0. -1.
</event>
<event>
 5    1  0.1261138E-009  0.9118800E+02  0.7561462E-02  0.1125453E+00
         25   -1    0    0    0    0  0.00000000000E+00  0.00000000000E+00  0.99999998245E-14  0.12509000000E+03  0.12509000000E+03 0.  0.
        -13    1    3    3    0    0 -0.35930569138E+02  0.10282203401E+02  0.56076634450E+01  0.37791355608E+02  0.10566000000E+00 0.  1.
         23    2    1    0    0    0  0.18764996336E+02 -0.24031709648E+01  0.21798849961E+02  0.96226698425E+02  0.91795900300E+02 0.  0.
         13    1    3    3    0    0  0.54695565474E+02 -0.12685374365E+02  0.16191186516E+02  0.58435342817E+02  0.10566000000E+00 0. -1.
         22    1    1    0    0    0 -0.18764996336E+02  0.24031709648E+01 -0.21798849961E+02  0.28863301575E+02  0.00000000000E+00 0. -1.
</event>
<event>
 5    1  0.1261138E-009  0.9118800E+02  0.7561462E-02  0.1125453E+00
         25   -1    0    0    0    0  0.00000000000E+00  0.00000000000E+00  0.99999998245E-14  0.12509000000E+03  0.12509000000E+03 0.  0.
        -13    1    3    3    0    0 -0.39196775067E+02 -0.34943741991E+02  0.18821877768E+02  0.55782851547E+02  0.10566000000E+00 0.  1.
         23    2    1    0    0    0 -0.26770573190E+02  0.25981302146E+01  0.10640438821E+02  0.96165394422E+02  0.91712323471E+02 0.  0.
         13    1    3    3    0    0  0.12426201877E+02  0.37541872205E+02 -0.81814389476E+01  0.40382542875E+02  0.10566000000E+00 0. -1.
         22    1    1    0    0    0  0.26770573190E+02 -0.25981302146E+01 -0.10640438821E+02  0.28924605578E+02  0.00000000000E+00 0.  1.
</event>
<event>
 5    1  0.1261138E-009  0.9118800E+02  0.7561462E-02  0.1125453E+00
         25   -1    0    0    0    0  0.00000000000E+00  0.00000000000E+00  0.99999998245E-14  0.12509000000E+03  0.12509000000E+03 0.  0.
        -13    1    3    3    0    0  0.23042355397E+02  0.13079119516E+02 -0.50836470482E+02  0.57326882042E+02  0.10566000000E+00 0. -1.
         23    2    1    0    0    0 -0.56920137987E+01 -0.68379866019E+00 -0.27956599384E+02  0.96551638960E+02  0.92237632966E+02 0.  0.
         13    1    3    3    0    0 -0.28734369196E+02 -0.13762918176E+02  0.22879871098E+02  0.39224756918E+02  0.10566000000E+00 0.  1.
         22    1    1    0    0    0  0.56920137987E+01  0.68379866019E+00  0.27956599384E+02  0.28538361040E+02  0.00000000000E+00 0. -1.
</event>
<event>
 5    1  0.1261138E-009  0.9118800E+02  0.7561462E-02  0.1125453E+00
         25   -1    0    0    0    0  0.00000000000E+00  0.00000000000E+00  0.99999998245E-14  0.12509000000E+03  0.12509000000E+03 0.  0.
        -13    1    3    3    0    0  0.42488633080E+02  0.25664701714E+01  0.44713909771E+02  0.61735043543E+02  0.10566000000E+00 0.  1.
         23    2    1    0    0    0  0.17362647709E+02  0.80554553710E+01  0.18051470804E+02  0.98780163533E+02  0.95211938394E+02 0.  0.
         13    1    3    3    0    0 -0.25125985371E+02  0.54889851996E+01 -0.26662438967E+02  0.37045119990E+02  0.10566000000E+00 0. -1.
         22    1    1    0    0    0 -0.17362647709E+02 -0.80554553710E+01 -0.18051470804E+02  0.26309836467E+02  0.00000000000E+00 0.  1.
</event>
<event>
 5    1  0.1261138E-009  0.9118800E+02  0.7561462E-02  0.1125453E+00
         25   -1    0    0    0    0  0.00000000000E+00  0.00000000000E+00  0.99999998245E-14  0.12509000000E+03  0.12509000000E+03 0.  0.
        -13    1    3    3    0    0  0.28818542533E+02 -0.36667829167E+02 -0.28013558644E+02  0.54404124122E+02  0.10566000000E+00 0.  1.
         23    2    1    0    0    0  0.26077858295E+00 -0.64121478572E+01 -0.28362606302E+02  0.96010435322E+02  0.91500724635E+02 0.  0.
         13    1    3    3    0    0 -0.28557763950E+02  0.30255681310E+02 -0.34904765851E+00  0.41606311200E+02  0.10566000000E+00 0. -1.
         22    1    1    0    0    0 -0.26077858295E+00  0.64121478572E+01  0.28362606302E+02  0.29079564678E+02  0.00000000000E+00 0.  1.
</event>
<event>
 5    1  0.1261138E-009  0.9118800E+02  0.7561462E-02  0.1125453E+00
         25   -1    0    0    0    0  0.00000000000E+00  0.00000000000E+00  0.99999998245E-14  0.12509000000E+03  0.12509000000E+03 0.  0.
        -13    1    3    3    0    0  0.92022732166E+00 -0.17511254709E+02  0.50697424532E+02  0.53644485998E+02  0.10566000000E+00 0.  1.
         23    2    1    0    0    0  0.16862786327E+02  0.91997649185E+01  0.20452525874E+02  0.97031221483E+02  0.92885751817E+02 0.  0.
         13    1    3    3    0    0  0.15942559005E+02  0.26711019627E+02 -0.30244898658E+02  0.43386735485E+02  0.10566000000E+00 0. -1.
         22    1    1    0    0    0 -0.16862786327E+02 -0.91997649185E+01 -0.20452525874E+02  0.28058778517E+02  0.00000000000E+00 0.  1.
</event>
<event>
 5    1  0.1261138E-009  0.9118800E+02  0.7561462E-02  0.1125453E+00
         25   -1    0    0    0    0  0.00000000000E+00  0.00000000000E+00  0.99999998245E-14  0.12509000000E+03  0.12509000000E+03 0.  0.
        -13    1    3    3    0    0 -0.37135642305E+02 -0.14723649463E+02  0.11882737577E+02  0.41677960594E+02  0.10566000000E+00 0.  1.
         23    2    1    0    0    0 -0.42349566177E+01 -0.10589390289E+02 -0.28771480511E+02  0.94140555174E+02  0.88907682420E+02 0.  0.
         13    1    3    3    0    0  0.32900685687E+02  0.41342591741E+01 -0.40654218088E+02  0.52462594580E+02  0.10566000000E+00 0. -1.
         22    1    1    0    0    0  0.42349566177E+01  0.10589390289E+02  0.28771480511E+02  0.30949444826E+02  0.00000000000E+00 0. -1.
</event>
<event>
 5    1  0.1261138E-009  0.9118800E+02  0.7561462E-02  0.1125453E+00
         25   -1    0    0    0    0  0.00000000000E+00  0.00000000000E+00  0.99999998245E-14  0.12509000000E+03  0.12509000000E+03 0.  0.
        -13    1    3    3    0    0  0.21826477100E-01 -0.12569532840E+02  0.34030967869E+02  0.36278252029E+02  0.10566000000E+00 0.  1.
         23    2    1    0    0    0 -0.21623392973E+02  0.12184450253E+02 -0.15571065490E+02  0.95789999452E+02  0.91198870404E+02 0.  0.
         13    1    3    3    0    0 -0.21645219450E+02  0.24753983092E+02 -0.49602033358E+02  0.59511747423E+02  0.10566000000E+00 0. -1.
         22    1    1    0    0    0  0.21623392973E+02 -0.12184450253E+02  0.15571065490E+02  0.29300000548E+02  0.00000000000E+00 0. -1.
</event>
<event>
 5    1  0.1261138E-009  0.9118800E+02  0.7561462E-02  0.1125453E+00
         25   -1    0    0    0    0  0.00000000000E+00  0.00000000000E+00  0.99999998245E-14  0.12509000000E+03  0.12509000000E+03 0.  0.
        -13    1    3    3    0    0 -0.22322027917E+02  0.18515007514E+02 -0.51362875504E+02  0.58985036897E+02  0.10566000000E+00 0.  1.
         23    2    1    0    0    0  0.28416414166E+01  0.15188500291E+02 -0.25849464381E+02  0.94974218825E+02  0.90072981330E+02 0.  0.
         13    1    3    3    0    0  0.25163669334E+02 -0.33265072232E+01  0.25513411124E+02  0.35989181928E+02  0.10566000000E+00 0. -1.
         22    1    1    0    0    0 -0.28416414166E+01 -0.15188500291E+02  0.25849464381E+02  0.30115781175E+02  0.00000000000E+00 0.  1.
</event>
<event>
 5    1  0.1261138E-009  0.9118800E+02  0.7561462E-02  0.1125453E+00
         25   -1    0    0    0    0  0.00000000000E+00  0.00000000000E+00  0.99999998245E-14  0.12509000000E+03  0.12509000000E+03 0.  0.
        -13    1    3    3    0    0 -0.36625167690E+02  0.45856637348E+02  0.21303870785E+02  0.62434767331E+02  0.10566000000E+00 0. -1.
         23    2    1    0    0    0 -0.16019713038E+02  0.24204710054E+02  0.10961528598E+02  0.94063329154E+02  0.88798961636E+02 0.  0.
         13    1    3    3    0    0  0.20605454653E+02 -0.21651927294E+02 -0.10342342187E+02  0.31628561822E+02  0.10566000000E+00 0.  1.
         22    1    1    0    0    0  0.16019713038E+02 -0.24204710054E+02 -0.10961528598E+02  0.31026670846E+02  0.00000000000E+00 0. -1.
</event>
<event>
 5    1  0.1261138E-009  0.9118800E+02  0.7561462E-02  0.1125453E+00
         25   -1    0    0    0    0  0.00000000000E+00  0.00000000000E+00  0.99999998245E-14  0.12509000000E+03  0.12509000000E+03 0.  0.
        -13    1    3    3    0    0  0.19867581124E+02  0.20595152543E+02  0.19443829898E+02  0.34597034166E+02  0.10566000000E+00 0.  1.
         23    2    1    0    0    0  0.11220948197E+01 -0.19706868562E+02 -0.22114737534E+02  0.95447439694E+02  0.90727792670E+02 0.  0.
         13    1    3    3    0    0 -0.18745486304E+02 -0.40302021105E+02 -0.41558567432E+02  0.60850405528E+02  0.10566000000E+00 0. -1.
         22    1    1    0    0    0 -0.11220948197E+01  0.19706868562E+02  0.22114737534E+02  0.29642560306E+02  0.00000000000E+00 0. -1.
</event>
<event>
 5    1  0.1261138E-009  0.9118800E+02  0.7561462E-02  0.1125453E+00
         25   -1    0    0    0    0  0.00000000000E+00  0.00000000000E+00  0.99999998245E-14  0.12509000000E+03  0.12509000000E+03 0.  0.
        -13    1    3    3    0    0 -0.20594531624E+02 -0.88262362252E+01 -0.21594842095E+02  0.31118893744E+02  0.10566000000E+00 0. -1.
         23    2    1    0    0    0  0.29713743714E+02  0.91220603411E+00  0.12683763383E+02  0.92769471865E+02  0.86957221501E+02 0.  0.
         13    1    3    3    0    0  0.50308275338E+02  0.97384422593E+01  0.34278605478E+02  0.61650578121E+02  0.10566000000E+00 0.  1.
         22    1    1    0    0    0 -0.29713743714E+02 -0.91220603411E+00 -0.12683763383E+02  0.32320528135E+02  0.00000000000E+00 0.  1.
</event>
<event>
 5    1  0.1261138E-009  0.9118800E+02  0.7561462E-02  0.1125453E+00
         25   -1    0    0    0    0  0.00000000000E+00  0.00000000000E+00  0.99999998245E-14  0.12509000000E+03  0.12509000000E+03 0.  0.
        -13    1    3    3    0    0 -0.35472460126E+02  0.33203217105E+02 -0.33877544873E+02  0.59232155660E+02  0.10566000000E+00 0.  1.
         23    2    1    0    0    0 -0.12309521621E+02  0.25833280436E+02 -0.66884741647E+01  0.95702615168E+02  0.91078933694E+02 0.  0.
         13    1    3    3    0    0  0.23162938505E+02 -0.73699366693E+01  0.27189070708E+02  0.36470459508E+02  0.10566000000E+00 0. -1.
         22    1    1    0    0    0  0.12309521621E+02 -0.25833280436E+02  0.66884741647E+01  0.29387384832E+02  0.00000000000E+00 0.  1.
</event>
<event>
 5    1  0.1261138E-009  0.9118800E+02  0.7561462E-02  0.1125453E+00
         25   -1    0    0    0    0  0.00000000000E+00  0.00000000000E+00  0.99999998245E-14  0.12509000000E+03  0.12509000000E+03 0.  0.
        -13    1    3    3    0    0  0.38379829355E+02  0.44755732589E+02  0.78148201039E+01  0.59474107629E+02  0.10566000000E+00 0.  1.
         23    2    1    0    0    0  0.28760228487E+02  0.12294001586E+02  0.30742967639E+01  0.93661596951E+02  0.88231231575E+02 0.  0.
         13    1    3    3    0    0 -0.96196008685E+01 -0.32461731003E+02 -0.47405233400E+01  0.34187489323E+02  0.10566000000E+00 0. -1.
         22    1    1    0    0    0 -0.28760228487E+02 -0.12294001586E+02 -0.30742967639E+01  0.31428403049E+02  0.00000000000E+00 0.  1.
</event>
<event>
 5    1  0.1261138E-009  0.9118800E+02  0.7561462E-02  0.1125453E+00
         25   -1    0    0    0    0  0.00000000000E+00  0.00000000000E+00  0.99999998245E-14  0.12509000000E+03  0.12509000000E+03 0.  0.
        -13    1    3    3    0    0 -0.22116285265E+02 -0.28864596222E+02  0.36719534004E+02  0.51678141709E+02  0.10566000000E+00 0. -1.
         23    2    1    0    0    0  0.10453328658E+02 -0.25267074137E+02  0.49827047915E+01  0.97295675714E+02  0.93241214332E+02 0.  0.
         13    1    3    3    0    0  0.32569613923E+02  0.35975220845E+01 -0.31736829212E+02  0.45617534005E+02  0.10566000000E+00 0.  1.
         22    1    1    0    0    0 -0.10453328658E+02  0.25267074137E+02 -0.49827047915E+01  0.27794324286E+02  0.00000000000E+00 0.  1.
</event>
<event>
 5    1  0.1261138E-009  0.9118800E+02  0.7561462E-02  0.1125453E+00
         25   -1    0    0    0    0  0.00000000000E+00  0.00000000000E+00  0.99999998245E-14  0.12509000000E+03  0.12509000000E+03 0.  0.
        -13    1    3    3    0    0  0.43535925525E+02 -0.28351319946E+01 -0.16399480273E+02  0.46608678398E+02  0.10566000000E+00 0.  1.
         23    2    1    0    0    0 -0.31371026230E+01 -0.15498685888E+02 -0.24784324167E+02  0.95690792502E+02  0.91062694711E+02 0.  0.
         13    1    3    3    0    0 -0.46673028148E+02 -0.12663553893E+02 -0.83848438941E+01  0.49082114104E+02  0.10566000000E+00 0. -1.
         22    1    1    0    0    0  0.31371026230E+01  0.15498685888E+02  0.24784324167E+02  0.29399207498E+02  0.00000000000E+00 0. -1.
</event>
<event>
 5    1  0.1261138E-009  0.9118800E+02  0.7561462E-02  0.1125453E+00
         25   -1    0    0    0    0  0.00000000000E+00  0.00000000000E+00  0.99999998245E-14  0.12509000000E+03  0.12509000000E+03 0.  0.
        -13    1    3    3    0    0 -0.50756964269E+02 -0.58571098863E+01 -0.19659050981E+02  0.54745452848E+02  0.10566000000E+00 0. -1.
         23    2    1    0    0    0 -0.10221964920E+02 -0.12655110174E+02 -0.24022427085E+02  0.96077633957E+02  0.91592545349E+02 0.  0.
         13    1    3    3    0    0  0.40534999349E+02 -0.67980002875E+01 -0.43633761040E+01  0.41332181109E+02  0.10566000000E+00 0.  1.
         22    1    1    0    0    0  0.10221964920E+02  0.12655110174E+02  0.24022427085E+02  0.29012366043E+02  0.00000000000E+00 0. -1.
</event>
<event>
 5    1  0.1261138E-009  0.9118800E+02  0.7561462E-02  0.1125453E+00
         25   -1    0    0    0    0  0.00000000000E+00  0.00000000000E+00  0.99999998245E-14  0.12509000000E+03  0.12509000000E+03 0.  0.
        -13    1    3    3    0    0 -0.18023714281E+02 -0.55452638230E+02 -0.52122062406E+00  0.58310652527E+02  0.10566000000E+00 0.  1.
         23    2    1    0    0    0 -0.16180821678E+02 -0.20478878543E+02 -0.13555427189E+02  0.95679915627E+02  0.91047752259E+02 0.  0.
         13    1    3    3    0    0  0.18428926035E+01  0.34973759687E+02 -0.13034206565E+02  0.37369263100E+02  0.10566000000E+00 0. -1.
         22    1    1    0    0    0  0.16180821678E+02  0.20478878543E+02  0.13555427189E+02  0.29410084373E+02  0.00000000000E+00 0.  1.
</event>
<event>
 5    1  0.1261138E-009  0.9118800E+02  0.7561462E-02  0.1125453E+00
         25   -1    0    0    0    0  0.00000000000E+00  0.00000000000E+00  0.99999998245E-14  0.12509000000E+03  0.12509000000E+03 0.  0.
        -13    1    3    3    0    0 -0.39931620497E+02 -0.42795228064E+02 -0.89936286511E+01  0.59218767134E+02  0.10566000000E+00 0.  1.
         23    2    1    0    0    0 -0.25228468831E+02 -0.14826036947E+02  0.75264173595E+01  0.94875202807E+02  0.89935366449E+02 0.  0.
         13    1    3    3    0    0  0.14703151665E+02  0.27969191118E+02  0.16520046011E+02  0.35656435673E+02  0.10566000000E+00 0. -1.
         22    1    1    0    0    0  0.25228468831E+02  0.14826036947E+02 -0.75264173595E+01  0.30214797193E+02  0.00000000000E+00 0.  1.
</event>
<event>
 5    1  0.1261138E-009  0.9118800E+02  0.7561462E-02  0.1125453E+00
         25   -1    0    0    0    0  0.00000000000E+00  0.00000000000E+00  0.99999998245E-14  0.12509000000E+03  0.12509000000E+03 0.  0.
        -13    1    3    3    0    0 -0.44170067566E+02  0.14526429278E+02  0.84885781467E+01  0.47266046368E+02  0.10566000000E+00 0.  1.
         23    2    1    0    0    0  0.65657799515E+01  0.21167075530E+02  0.14225344601E+02  0.98755327382E+02  0.95179302921E+02 0.  0.
         13    1    3    3    0    0  0.50735847517E+02  0.66406462524E+01  0.57367664540E+01  0.51489281014E+02  0.10566000000E+00 0. -1.
         22    1    1    0    0    0 -0.65657799515E+01 -0.21167075530E+02 -0.14225344601E+02  0.26334672618E+02  0.00000000000E+00 0. -1.
</event>
<event>
 5    1  0.1261138E-009  0.9118800E+02  0.7561462E-02  0.1125453E+00
         25   -1    0    0    0    0  0.00000000000E+00  0.00000000000E+00  0.99999998245E-14  0.12509000000E+03  0.12509000000E+03 0.  0.
        -13    1    3    3    0    0 -0.43258369816E+02 -0.98135667501E+00  0.41620558572E+02  0.60037752122E+02  0.10566000000E+00 0.  1.
         23    2    1    0    0    0 -0.17847991528E+02 -0.12681420801E+02  0.20575751592E+02  0.95044521327E+02  0.90170561968E+02 0.  0.
         13    1    3    3    0    0  0.25410378288E+02 -0.11700064126E+02 -0.21044806980E+02  0.35006769205E+02  0.10566000000E+00 0. -1.
         22    1    1    0    0    0  0.17847991528E+02  0.12681420801E+02 -0.20575751592E+02  0.30045478673E+02  0.00000000000E+00 0.  1.
</event>
<event>
 5    1  0.1261138E-009  0.9118800E+02  0.7561462E-02  0.1125453E+00
         25   -1    0    0    0    0  0.00000000000E+00  0.00000000000E+00  0.99999998245E-14  0.12509000000E+03  0.12509000000E+03 0.  0.
        -13    1    3    3    0    0  0.19937958017E+00  0.24334850626E+02  0.25275128463E+02  0.35086578489E+02  0.10566000000E+00 0. -1.
         23    2    1    0    0    0  0.58236335378E+01 -0.40876251477E+01 -0.28253927084E+02  0.95953977920E+02  0.91423509537E+02 0.  0.
         13    1    3    3    0    0  0.56242539577E+01 -0.28422475773E+02 -0.53529055548E+02  0.60867399431E+02  0.10566000000E+00 0.  1.
         22    1    1    0    0    0 -0.58236335378E+01  0.40876251477E+01  0.28253927084E+02  0.29136022080E+02  0.00000000000E+00 0.  1.
</event>
<event>
 5    1  0.1261138E-009  0.9118800E+02  0.7561462E-02  0.1125453E+00
         25   -1    0    0    0    0  0.00000000000E+00  0.00000000000E+00  0.99999998245E-14  0.12509000000E+03  0.12509000000E+03 0.  0.
        -13    1    3    3    0    0  0.36846560910E+02 -0.33228679898E+02  0.29424030523E+02  0.57685344368E+02  0.10566000000E+00 0.  1.
         23    2    1    0    0    0  0.17906834845E+02 -0.22913456531E+02 -0.21588437386E+01  0.95929378768E+02  0.91389845607E+02 0.  0.
         13    1    3    3    0    0 -0.18939726065E+02  0.10315223366E+02 -0.31582874261E+02  0.38244034400E+02  0.10566000000E+00 0. -1.
         22    1    1    0    0    0 -0.17906834845E+02  0.22913456531E+02  0.21588437386E+01  0.29160621232E+02  0.00000000000E+00 0.  1.
</event>
<event>
 5    1  0.1261138E-009  0.9118800E+02  0.7561462E-02  0.1125453E+00
         25   -1    0    0    0    0  0.00000000000E+00  0.00000000000E+00  0.99999998245E-14  0.12509000000E+03  0.12509000000E+03 0.  0.
        -13    1    3    3    0    0  0.38794606625E+02  0.23939816563E+01  0.17381126472E+02  0.42577780272E+02  0.10566000000E+00 0.  1.
         23    2    1    0    0    0 -0.13027222806E+02 -0.59999834730E+01  0.25630592236E+02  0.95719341273E+02  0.91101902832E+02 0.  0.
         13    1    3    3    0    0 -0.51821829431E+02 -0.83939651293E+01  0.82494657633E+01  0.53141561001E+02  0.10566000000E+00 0. -1.
         22    1    1    0    0    0  0.13027222806E+02  0.59999834730E+01 -0.25630592236E+02  0.29370658727E+02  0.00000000000E+00 0. -1.
</event>
<event>
 5    1  0.1261138E-009  0.9118800E+02  0.7561462E-02  0.1125453E+00
         25   -1    0    0    0    0  0.00000000000E+00  0.00000000000E+00  0.99999998245E-14  0.12509000000E+03  0.12509000000E+03 0.  0.
        -13    1    3    3    0    0  0.64405852880E+01  0.16789197651E+02 -0.56294662003E+02  0.59097025565E+02  0.10566000000E+00 0. -1.
         23    2    1    0    0    0 -0.11761318084E+02  0.79797957190E+01 -0.22785114831E+02  0.98235443577E+02  0.94493572131E+02 0.  0.
         13    1    3    3    0    0 -0.18201903372E+02 -0.88094019324E+01  0.33509547172E+02  0.39138418012E+02  0.10566000000E+00 0.  1.
         22    1    1    0    0    0  0.11761318084E+02 -0.79797957190E+01  0.22785114831E+02  0.26854556423E+02  0.00000000000E+00 0. -1.
</event>
<event>
 5    1  0.1261138E-009  0.9118800E+02  0.7561462E-02  0.1125453E+00
         25   -1    0    0    0    0  0.00000000000E+00  0.00000000000E+00  0.99999998245E-14  0.12509000000E+03  0.12509000000E+03 0.  0.
        -13    1    3    3    0    0  0.13124071523E+02 -0.50913241869E+02 -0.28929650441E+02  0.60011126381E+02  0.10566000000E+00 0.  1.
         23    2    1    0    0    0  0.17259368580E+02 -0.19755912780E+02 -0.84323870475E+01  0.97534836330E+02  0.93561515877E+02 0.  0.
         13    1    3    3    0    0  0.41352970571E+01  0.31157329089E+02  0.20497263393E+02  0.37523709949E+02  0.10566000000E+00 0. -1.
         22    1    1    0    0    0 -0.17259368580E+02  0.19755912780E+02  0.84323870475E+01  0.27555163670E+02  0.00000000000E+00 0.  1.
</event>
<event>
 5    1  0.1261138E-009  0.9118800E+02  0.7561462E-02  0.1125453E+00
         25   -1    0    0    0    0  0.00000000000E+00  0.00000000000E+00  0.99999998245E-14  0.12509000000E+03  0.12509000000E+03 0.  0.
        -13    1    3    3    0    0 -0.25597376056E+02  0.28575082301E+02  0.36067389040E+01  0.38532852464E+02  0.10566000000E+00 0. -1.
         23    2    1    0    0    0 -0.59565373398E+01 -0.17005224047E+02 -0.23807503402E+02  0.95232752971E+02  0.90431311160E+02 0.  0.
         13    1    3    3    0    0  0.19640838716E+02 -0.45580306348E+02 -0.27414242306E+02  0.56699900506E+02  0.10566000000E+00 0.  1.
         22    1    1    0    0    0  0.59565373398E+01  0.17005224047E+02  0.23807503402E+02  0.29857247029E+02  0.00000000000E+00 0.  1.
</event>
<event>
 5    1  0.1261138E-009  0.9118800E+02  0.7561462E-02  0.1125453E+00
         25   -1    0    0    0    0  0.00000000000E+00  0.00000000000E+00  0.99999998245E-14  0.12509000000E+03  0.12509000000E+03 0.  0.
        -13    1    3    3    0    0  0.47327320575E+01 -0.59360255966E+01  0.29611251136E+02  0.30569143110E+02  0.10566000000E+00 0. -1.
         23    2    1    0    0    0 -0.12165275521E+02 -0.27358261731E+01 -0.29994707446E+02  0.92606755887E+02  0.86722834869E+02 0.  0.
         13    1    3    3    0    0 -0.16898007578E+02  0.32001994234E+01 -0.59605958582E+02  0.62037612777E+02  0.10566000000E+00 0.  1.
         22    1    1    0    0    0  0.12165275521E+02  0.27358261731E+01  0.29994707446E+02  0.32483244113E+02  0.00000000000E+00 0.  1.
</event>
<event>
 5    1  0.1261138E-009  0.9118800E+02  0.7561462E-02  0.1125453E+00
         25   -1    0    0    0    0  0.00000000000E+00  0.00000000000E+00  0.99999998245E-14  0.12509000000E+03  0.12509000000E+03 0.  0.
        -13    1    3    3    0    0 -0.49682394894E+02 -0.32830775264E+01  0.16294953260E+02  0.52389461022E+02  0.10566000000E+00 0. -1.
         23    2    1    0    0    0 -0.23555249651E+02 -0.40240368239E+01 -0.17758361004E+02  0.95317495167E+02  0.90548455762E+02 0.  0.
         13    1    3    3    0    0  0.26127145243E+02 -0.74095929753E+00 -0.34053314263E+02  0.42928034145E+02  0.10566000000E+00 0.  1.
         22    1    1    0    0    0  0.23555249651E+02  0.40240368239E+01  0.17758361004E+02  0.29772504833E+02  0.00000000000E+00 0. -1.
</event>
<event>
 5    1  0.1261138E-009  0.9118800E+02  0.7561462E-02  0.1125453E+00
         25   -1    0    0    0    0  0.00000000000E+00  0.00000000000E+00  0.99999998245E-14  0.12509000000E+03  0.12509000000E+03 0.  0.
        -13    1    3    3    0    0 -0.27169142231E+02 -0.12385824584E+02 -0.15084168475E+02  0.33453164914E+02  0.10566000000E+00 0. -1.
         23    2    1    0    0    0  0.13840214015E+02  0.22278173011E+02  0.14870689389E+02  0.94940274967E+02  0.90025829023E+02 0.  0.
         13    1    3    3    0    0  0.41009356246E+02  0.34663997595E+02  0.29954857863E+02  0.61487110052E+02  0.10566000000E+00 0.  1.
         22    1    1    0    0    0 -0.13840214015E+02 -0.22278173011E+02 -0.14870689389E+02  0.30149725033E+02  0.00000000000E+00 0.  1.
</event>
<event>
 5    1  0.1261138E-009  0.9118800E+02  0.7561462E-02  0.1125453E+00
         25   -1    0    0    0    0  0.00000000000E+00  0.00000000000E+00  0.99999998245E-14  0.12509000000E+03  0.12509000000E+03 0.  0.
        -13    1    3    3    0    0 -0.51285437368E+02 -0.19494673946E+01  0.50692461009E+01  0.51572327165E+02  0.10566000000E+00 0. -1.
         23    2    1    0    0    0 -0.43977155108E+01 -0.14514535379E+02  0.17749627210E+02  0.10174346053E+03  0.99028636547E+02 0.  0.
         13    1    3    3    0    0  0.46887721857E+02 -0.12565067984E+02  0.12680381109E+02  0.50171133369E+02  0.10566000000E+00 0.  1.
         22    1    1    0    0    0  0.43977155108E+01  0.14514535379E+02 -0.17749627210E+02  0.23346539467E+02  0.00000000000E+00 0.  1.
</event>
<event>
 5    1  0.1261138E-009  0.9118800E+02  0.7561462E-02  0.1125453E+00
         25   -1    0    0    0    0  0.00000000000E+00  0.00000000000E+00  0.99999998245E-14  0.12509000000E+03  0.12509000000E+03 0.  0.
        -13    1    3    3    0    0 -0.24124160084E+02  0.10568793325E+02 -0.36080840867E+02  0.44671162217E+02  0.10566000000E+00 0. -1.
         23    2    1    0    0    0  0.15259090773E+02  0.23219885607E+02 -0.40005445307E+01  0.97018532362E+02  0.92868661702E+02 0.  0.
         13    1    3    3    0    0  0.39383250857E+02  0.12651092282E+02  0.32080296336E+02  0.52347370145E+02  0.10566000000E+00 0.  1.
         22    1    1    0    0    0 -0.15259090773E+02 -0.23219885607E+02  0.40005445307E+01  0.28071467638E+02  0.00000000000E+00 0.  1.
</event>
<event>
 5    1  0.1261138E-009  0.9118800E+02  0.7561462E-02  0.1125453E+00
         25   -1    0    0    0    0  0.00000000000E+00  0.00000000000E+00  0.99999998245E-14  0.12509000000E+03  0.12509000000E+03 0.  0.
        -13    1    3    3    0    0  0.12931077168E+02  0.60719987942E+01 -0.60885004350E+02  0.62538602837E+02  0.10566000000E+00 0. -1.
         23    2    1    0    0    0  0.58711112186E+01  0.34521393198E+01 -0.28814518183E+02  0.95481493267E+02  0.90774731537E+02 0.  0.
         13    1    3    3    0    0 -0.70599659489E+01 -0.26198594744E+01  0.32070486167E+02  0.32942890430E+02  0.10566000000E+00 0.  1.
         22    1    1    0    0    0 -0.58711112186E+01 -0.34521393198E+01  0.28814518183E+02  0.29608506733E+02  0.00000000000E+00 0. -1.
</event>
<event>
 5    1  0.1261138E-009  0.9118800E+02  0.7561462E-02  0.1125453E+00
         25   -1    0    0    0    0  0.00000000000E+00  0.00000000000E+00  0.99999998245E-14  0.12509000000E+03  0.12509000000E+03 0.  0.
        -13    1    3    3    0    0 -0.28559299556E+01  0.79620949705E+01  0.39081460058E+02  0.39986534940E+02  0.10566000000E+00 0.  1.
         23    2    1    0    0    0 -0.10704578721E+02 -0.26055460563E+02 -0.52727134509E+01  0.96432077223E+02  0.92075344038E+02 0.  0.
         13    1    3    3    0    0 -0.78486487658E+01 -0.34017555533E+02 -0.44354173509E+02  0.56445542283E+02  0.10566000000E+00 0. -1.
         22    1    1    0    0    0  0.10704578721E+02  0.26055460563E+02  0.52727134509E+01  0.28657922777E+02  0.00000000000E+00 0. -1.
</event>
<event>
 5    1  0.1261138E-009  0.9118800E+02  0.7561462E-02  0.1125453E+00
         25   -1    0    0    0    0  0.00000000000E+00  0.00000000000E+00  0.99999998245E-14  0.12509000000E+03  0.12509000000E+03 0.  0.
        -13    1    3    3    0    0 -0.12584282291E+01  0.23183405955E+02 -0.28639220030E+02  0.36868279607E+02  0.10566000000E+00 0.  1.
         23    2    1    0    0    0  0.11101764654E+02  0.10146151411E+02  0.26367682985E+02  0.94734633540E+02  0.89739637391E+02 0.  0.
         13    1    3    3    0    0  0.12360192883E+02 -0.13037254544E+02  0.55006903015E+02  0.57866353933E+02  0.10566000000E+00 0. -1.
         22    1    1    0    0    0 -0.11101764654E+02 -0.10146151411E+02 -0.26367682985E+02  0.30355366460E+02  0.00000000000E+00 0. -1.
</event>
<event>
 5    1  0.1261138E-009  0.9118800E+02  0.7561462E-02  0.1125453E+00
         25   -1    0    0    0    0  0.00000000000E+00  0.00000000000E+00  0.99999998245E-14  0.12509000000E+03  0.12509000000E+03 0.  0.
        -13    1    3    3    0    0  0.43073752034E+02  0.16312676443E+02  0.30497999778E+02  0.55241204563E+02  0.10566000000E+00 0. -1.
         23    2    1    0    0    0  0.16327550445E+02  0.28297324575E+02  0.10302955876E+02  0.90833929276E+02  0.84126834757E+02 0.  0.
         13    1    3    3    0    0 -0.26746201589E+02  0.11984648132E+02 -0.20195043902E+02  0.35592724713E+02  0.10566000000E+00 0.  1.
         22    1    1    0    0    0 -0.16327550445E+02 -0.28297324575E+02 -0.10302955876E+02  0.34256070724E+02  0.00000000000E+00 0.  1.
</event>
<event>
 5    1  0.1261138E-009  0.9118800E+02  0.7561462E-02  0.1125453E+00
         25   -1    0    0    0    0  0.00000000000E+00  0.00000000000E+00  0.99999998245E-14  0.12509000000E+03  0.12509000000E+03 0.  0.
        -13    1    3    3    0    0 -0.54128896164E+02  0.16813761251E+02 -0.26365256672E+02  0.62512221931E+02  0.10566000000E+00 0. -1.
         23    2    1    0    0    0 -0.27853066400E+02  0.79128221061E+01 -0.12092046357E+02  0.93711286727E+02  0.88301651249E+02 0.  0.
         13    1    3    3    0    0  0.26275829764E+02 -0.89009391453E+01  0.14273210315E+02  0.31199064796E+02  0.10566000000E+00 0.  1.
         22    1    1    0    0    0  0.27853066400E+02 -0.79128221061E+01  0.12092046357E+02  0.31378713273E+02  0.00000000000E+00 0. -1.
</event>
<event>
 5    1  0.1261138E-009  0.9118800E+02  0.7561462E-02  0.1125453E+00
         25   -1    0    0    0    0  0.00000000000E+00  0.00000000000E+00  0.99999998245E-14  0.12509000000E+03  0.12509000000E+03 0.  0.
        -13    1    3    3    0    0 -0.70892377643E+01 -0.27964536353E+02 -0.22444238182E+02  0.36551711001E+02  0.10566000000E+00 0.  1.
         23    2    1    0    0    0  0.23899349146E+02  0.14162953221E+02  0.68257634862E+01  0.96483022168E+02  0.92144529875E+02 0.  0.
         13    1    3    3    0    0  0.30988586910E+02  0.42127489574E+02  0.29270001668E+02  0.59931311167E+02  0.10566000000E+00 0. -1.
         22    1    1    0    0    0 -0.23899349146E+02 -0.14162953221E+02 -0.68257634862E+01  0.28606977832E+02  0.00000000000E+00 0. -1.
</event>
<event>
 5    1  0.1261138E-009  0.9118800E+02  0.7561462E-02  0.1125453E+00
         25   -1    0    0    0    0  0.00000000000E+00  0.00000000000E+00  0.99999998245E-14  0.12509000000E+03  0.12509000000E+03 0.  0.
        -13    1    3    3    0    0 -0.24880606308E+02  0.47692242548E+02  0.14991694245E+02  0.55842247715E+02  0.10566000000E+00 0.  1.
         23    2    1    0    0    0  0.93344194655E+01  0.24636471005E+02  0.60774579588E+01  0.98052570655E+02  0.94251175200E+02 0.  0.
         13    1    3    3    0    0  0.34215025774E+02 -0.23055771543E+02 -0.89142362865E+01  0.42210322940E+02  0.10566000000E+00 0. -1.
         22    1    1    0    0    0 -0.93344194655E+01 -0.24636471005E+02 -0.60774579588E+01  0.27037429345E+02  0.00000000000E+00 0. -1.
</event>
<event>
 5    1  0.1261138E-009  0.9118800E+02  0.7561462E-02  0.1125453E+00
         25   -1    0    0    0    0  0.00000000000E+00  0.00000000000E+00  0.99999998245E-14  0.12509000000E+03  0.12509000000E+03 0.  0.
        -13    1    3    3    0    0 -0.31006255401E+02  0.26981369384E+02 -0.32985013607E+02  0.52701085895E+02  0.10566000000E+00 0.  1.
         23    2    1    0    0    0 -0.19960495642E+02 -0.10944603271E+02 -0.21349316080E+02  0.93881042566E+02  0.88541804416E+02 0.  0.
         13    1    3    3    0    0  0.11045759758E+02 -0.37925972654E+02  0.11635697528E+02  0.41179956671E+02  0.10566000000E+00 0. -1.
         22    1    1    0    0    0  0.19960495642E+02  0.10944603271E+02  0.21349316080E+02  0.31208957434E+02  0.00000000000E+00 0. -1.
</event>
<event>
 5    1  0.1261138E-009  0.9118800E+02  0.7561462E-02  0.1125453E+00
         25   -1    0    0    0    0  0.00000000000E+00  0.00000000000E+00  0.99999998245E-14  0.12509000000E+03  0.12509000000E+03 0.  0.
        -13    1    3    3    0    0 -0.20328004677E+02 -0.46048985280E+02  0.47637965667E+01  0.50561267204E+02  0.10566000000E+00 0.  1.
         23    2    1    0    0    0 -0.30359183252E+02 -0.60770332274E+01  0.10980539017E+02  0.92239085588E+02  0.86190871515E+02 0.  0.
         13    1    3    3    0    0 -0.10031178575E+02  0.39971952053E+02  0.62167424503E+01  0.41677818384E+02  0.10566000000E+00 0. -1.
         22    1    1    0    0    0  0.30359183252E+02  0.60770332274E+01 -0.10980539017E+02  0.32850914412E+02  0.00000000000E+00 0.  1.
</event>
<event>
 5    1  0.1261138E-009  0.9118800E+02  0.7561462E-02  0.1125453E+00
         25   -1    0    0    0    0  0.00000000000E+00  0.00000000000E+00  0.99999998245E-14  0.12509000000E+03  0.12509000000E+03 0.  0.
        -13    1    3    3    0    0  0.20183598251E+02 -0.14305063550E+02  0.22390357714E+02  0.33366926202E+02  0.10566000000E+00 0. -1.
         23    2    1    0    0    0 -0.15332057541E+02 -0.27983399187E+00 -0.25936840946E+02  0.94959118603E+02  0.90052008263E+02 0.  0.
         13    1    3    3    0    0 -0.35515655792E+02  0.14025229559E+02 -0.48327198660E+02  0.61592192402E+02  0.10566000000E+00 0.  1.
         22    1    1    0    0    0  0.15332057541E+02  0.27983399187E+00  0.25936840946E+02  0.30130881397E+02  0.00000000000E+00 0.  1.
</event>
<event>
 5    1  0.1261138E-009  0.9118800E+02  0.7561462E-02  0.1125453E+00
         25   -1    0    0    0    0  0.00000000000E+00  0.00000000000E+00  0.99999998245E-14  0.12509000000E+03  0.12509000000E+03 0.  0.
        -13    1    3    3    0    0  0.30351081778E+01 -0.72809928585E+01  0.35474507249E+02  0.36341114007E+02  0.10566000000E+00 0. -1.
         23    2    1    0    0    0 -0.22252287898E+02 -0.22442375731E+01 -0.18439458708E+02  0.96103545294E+02  0.91627926210E+02 0.  0.
         13    1    3    3    0    0 -0.25287396076E+02  0.50367552854E+01 -0.53913965957E+02  0.59762431287E+02  0.10566000000E+00 0.  1.
         22    1    1    0    0    0  0.22252287898E+02  0.22442375731E+01  0.18439458708E+02  0.28986454706E+02  0.00000000000E+00 0.  1.
</event>
<event>
 5    1  0.1261138E-009  0.9118800E+02  0.7561462E-02  0.1125453E+00
         25   -1    0    0    0    0  0.00000000000E+00  0.00000000000E+00  0.99999998245E-14  0.12509000000E+03  0.12509000000E+03 0.  0.
        -13    1    3    3    0    0  0.14289891146E+02  0.53485056067E+02  0.18331745071E+02  0.58317375223E+02  0.10566000000E+00 0. -1.
         23    2    1    0    0    0  0.13339219912E+02  0.24350676130E+02 -0.64590577174E+01  0.96583691182E+02  0.92281091020E+02 0.  0.
         13    1    3    3    0    0 -0.95067123402E+00 -0.29134379937E+02 -0.24790802788E+02  0.38266315959E+02  0.10566000000E+00 0.  1.
         22    1    1    0    0    0 -0.13339219912E+02 -0.24350676130E+02  0.64590577174E+01  0.28506308818E+02  0.00000000000E+00 0. -1.
</event>
<event>
 5    1  0.1261138E-009  0.9118800E+02  0.7561462E-02  0.1125453E+00
         25   -1    0    0    0    0  0.00000000000E+00  0.00000000000E+00  0.99999998245E-14  0.12509000000E+03  0.12509000000E+03 0.  0.
        -13    1    3    3    0    0  0.31288994178E+02 -0.53757288315E+01  0.45524663614E+02  0.55501403391E+02  0.10566000000E+00 0.  1.
         23    2    1    0    0    0  0.22490363263E+02 -0.17618890942E+02  0.88080405625E+01  0.95193121630E+02  0.90376474092E+02 0.  0.
         13    1    3    3    0    0 -0.87986309153E+01 -0.12243162111E+02 -0.36716623051E+02  0.39691718239E+02  0.10566000000E+00 0. -1.
         22    1    1    0    0    0 -0.22490363263E+02  0.17618890942E+02 -0.88080405625E+01  0.29896878370E+02  0.00000000000E+00 0.  1.
</event>
<event>
 5    1  0.1261138E-009  0.9118800E+02  0.7561462E-02  0.1125453E+00
         25   -1    0    0    0    0  0.00000000000E+00  0.00000000000E+00  0.99999998245E-14  0.12509000000E+03  0.12509000000E+03 0.  0.
        -13    1    3    3    0    0 -0.50529605534E+02 -0.28224570436E+02  0.44715170024E+01  0.58050607577E+02  0.10566000000E+00 0. -1.
         23    2    1    0    0    0 -0.26403044316E+02 -0.32866848951E+00  0.12623173916E+02  0.95822726607E+02  0.91243748513E+02 0.  0.
         13    1    3    3    0    0  0.24126561218E+02  0.27895901947E+02  0.81516569135E+01  0.37772119031E+02  0.10566000000E+00 0.  1.
         22    1    1    0    0    0  0.26403044316E+02  0.32866848951E+00 -0.12623173916E+02  0.29267273393E+02  0.00000000000E+00 0. -1.
</event>
<event>
 5    1  0.1261138E-009  0.9118800E+02  0.7561462E-02  0.1125453E+00
         25   -1    0    0    0    0  0.00000000000E+00  0.00000000000E+00  0.99999998245E-14  0.12509000000E+03  0.12509000000E+03 0.  0.
        -13    1    3    3    0    0  0.57403843407E+02 -0.10312970487E+02 -0.19964428247E+02  0.61645341733E+02  0.10566000000E+00 0.  1.
         23    2    1    0    0    0  0.28034592324E+02  0.15126031336E+01 -0.53800986319E+01  0.96503783106E+02  0.92172709396E+02 0.  0.
         13    1    3    3    0    0 -0.29369251082E+02  0.11825573620E+02  0.14584329615E+02  0.34858441373E+02  0.10566000000E+00 0. -1.
         22    1    1    0    0    0 -0.28034592324E+02 -0.15126031336E+01  0.53800986319E+01  0.28586216894E+02  0.00000000000E+00 0.  1.
</event>
<event>
 5    1  0.1261138E-009  0.9118800E+02  0.7561462E-02  0.1125453E+00
         25   -1    0    0    0    0  0.00000000000E+00  0.00000000000E+00  0.99999998245E-14  0.12509000000E+03  0.12509000000E+03 0.  0.
        -13    1    3    3    0    0  0.34146512477E+01 -0.12690265696E+02 -0.47814492393E+02  0.49587695384E+02  0.10566000000E+00 0. -1.
         23    2    1    0    0    0 -0.33786087722E+01 -0.27540550898E+02 -0.31249692258E+01  0.97167565048E+02  0.93069185683E+02 0.  0.
         13    1    3    3    0    0 -0.67932600199E+01 -0.14850285202E+02  0.44689523168E+02  0.47579869664E+02  0.10566000000E+00 0.  1.
         22    1    1    0    0    0  0.33786087722E+01  0.27540550898E+02  0.31249692258E+01  0.27922434952E+02  0.00000000000E+00 0.  1.
</event>
<event>
 5    1  0.1261138E-009  0.9118800E+02  0.7561462E-02  0.1125453E+00
         25   -1    0    0    0    0  0.00000000000E+00  0.00000000000E+00  0.99999998245E-14  0.12509000000E+03  0.12509000000E+03 0.  0.
        -13    1    3    3    0    0 -0.33914555182E+02  0.22733570701E+01 -0.94633073277E+01  0.35283573446E+02  0.10566000000E+00 0.  1.
         23    2    1    0    0    0  0.26467785558E+02  0.36815476425E+01  0.61521107916E+01  0.97668367434E+02  0.93739874465E+02 0.  0.
         13    1    3    3    0    0  0.60382340739E+02  0.14081905724E+01  0.15615418119E+02  0.62384793988E+02  0.10566000000E+00 0. -1.
         22    1    1    0    0    0 -0.26467785558E+02 -0.36815476425E+01 -0.61521107916E+01  0.27421632566E+02  0.00000000000E+00 0. -1.
</event>
<event>
 5    1  0.1261138E-009  0.9118800E+02  0.7561462E-02  0.1125453E+00
         25   -1    0    0    0    0  0.00000000000E+00  0.00000000000E+00  0.99999998245E-14  0.12509000000E+03  0.12509000000E+03 0.  0.
        -13    1    3    3    0    0  0.19288163430E+02  0.48317217745E+02  0.19267103399E+02  0.55478096728E+02  0.10566000000E+00 0. -1.
         23    2    1    0    0    0  0.10533740195E+02  0.20675641717E+02 -0.12701284209E+02  0.98636938486E+02  0.95023582180E+02 0.  0.
         13    1    3    3    0    0 -0.87544232350E+01 -0.27641576028E+02 -0.31968387609E+02  0.43158841757E+02  0.10566000000E+00 0.  1.
         22    1    1    0    0    0 -0.10533740195E+02 -0.20675641717E+02  0.12701284209E+02  0.26453061514E+02  0.00000000000E+00 0. -1.
</event>
<event>
 5    1  0.1261138E-009  0.9118800E+02  0.7561462E-02  0.1125453E+00
         25   -1    0    0    0    0  0.00000000000E+00  0.00000000000E+00  0.99999998245E-14  0.12509000000E+03  0.12509000000E+03 0.  0.
        -13    1    3    3    0    0 -0.23077217115E+02 -0.41987729870E+02 -0.31228539335E+02  0.57190560781E+02  0.10566000000E+00 0.  1.
         23    2    1    0    0    0 -0.22222002427E+02 -0.19240445282E+02 -0.17307781937E+00  0.95695407258E+02  0.91069033639E+02 0.  0.
         13    1    3    3    0    0  0.85521468792E+00  0.22747284588E+02  0.31055461515E+02  0.38504846478E+02  0.10566000000E+00 0. -1.
         22    1    1    0    0    0  0.22222002427E+02  0.19240445282E+02  0.17307781937E+00  0.29394592742E+02  0.00000000000E+00 0.  1.
</event>
<event>
 5    1  0.1261138E-009  0.9118800E+02  0.7561462E-02  0.1125453E+00
         25   -1    0    0    0    0  0.00000000000E+00  0.00000000000E+00  0.99999998245E-14  0.12509000000E+03  0.12509000000E+03 0.  0.
        -13    1    3    3    0    0 -0.28806659183E+02 -0.17725754593E+02  0.74990182166E+01  0.34644948079E+02  0.10566000000E+00 0. -1.
         23    2    1    0    0    0  0.29119877850E+02 -0.36847079110E+01  0.93707040346E+01  0.94278403928E+02  0.89101419712E+02 0.  0.
         13    1    3    3    0    0  0.57926537033E+02  0.14041046682E+02  0.18716858180E+01  0.59633455849E+02  0.10566000000E+00 0.  1.
         22    1    1    0    0    0 -0.29119877850E+02  0.36847079110E+01 -0.93707040346E+01  0.30811596072E+02  0.00000000000E+00 0.  1.
</event>
<event>
 5    1  0.1261138E-009  0.9118800E+02  0.7561462E-02  0.1125453E+00
         25   -1    0    0    0    0  0.00000000000E+00  0.00000000000E+00  0.99999998245E-14  0.12509000000E+03  0.12509000000E+03 0.  0.
        -13    1    3    3    0    0  0.81863704575E+01  0.32206152749E+02 -0.99769578337E+01  0.34695875660E+02  0.10566000000E+00 0.  1.
         23    2    1    0    0    0  0.35470587721E+01 -0.26474498002E+02 -0.16139773036E+02  0.93881460398E+02  0.88542394718E+02 0.  0.
         13    1    3    3    0    0 -0.46393116854E+01 -0.58680650751E+02 -0.61628152028E+01  0.59185584738E+02  0.10566000000E+00 0. -1.
         22    1    1    0    0    0 -0.35470587721E+01  0.26474498002E+02  0.16139773036E+02  0.31208539602E+02  0.00000000000E+00 0. -1.
</event>
<event>
 5    1  0.1261138E-009  0.9118800E+02  0.7561462E-02  0.1125453E+00
         25   -1    0    0    0    0  0.00000000000E+00  0.00000000000E+00  0.99999998245E-14  0.12509000000E+03  0.12509000000E+03 0.  0.
        -13    1    3    3    0    0  0.56957137415E+02  0.91561043358E+01  0.17289265468E+02  0.60223580212E+02  0.10566000000E+00 0.  1.
         23    2    1    0    0    0  0.21499462917E+02  0.11241540899E+02  0.16496879908E+02  0.95751523656E+02  0.91146081036E+02 0.  0.
         13    1    3    3    0    0 -0.35457674498E+02  0.20854365634E+01 -0.79238555991E+00  0.35527943444E+02  0.10566000000E+00 0. -1.
         22    1    1    0    0    0 -0.21499462917E+02 -0.11241540899E+02 -0.16496879908E+02  0.29338476344E+02  0.00000000000E+00 0.  1.
</event>
<event>
 5    1  0.1261138E-009  0.9118800E+02  0.7561462E-02  0.1125453E+00
         25   -1    0    0    0    0  0.00000000000E+00  0.00000000000E+00  0.99999998245E-14  0.12509000000E+03  0.12509000000E+03 0.  0.
        -13    1    3    3    0    0 -0.16844617150E+02  0.28839181295E+02 -0.68098911872E+01  0.34085558330E+02  0.10566000000E+00 0.  1.
         23    2    1    0    0    0  0.20068039276E+02 -0.18380963629E+02  0.96091700034E+01  0.96229608934E+02  0.91799866357E+02 0.  0.
         13    1    3    3    0    0  0.36912656425E+02 -0.47220144924E+02  0.16419061191E+02  0.62144050604E+02  0.10566000000E+00 0. -1.
         22    1    1    0    0    0 -0.20068039276E+02  0.18380963629E+02 -0.96091700034E+01  0.28860391066E+02  0.00000000000E+00 0. -1.
</event>
<event>
 5    1  0.1261138E-009  0.9118800E+02  0.7561462E-02  0.1125453E+00
         25   -1    0    0    0    0  0.00000000000E+00  0.00000000000E+00  0.99999998245E-14  0.12509000000E+03  0.12509000000E+03 0.  0.
        -13    1    3    3    0    0  0.41072424143E+02  0.91719815500E+01 -0.25335386925E+02  0.49121912272E+02  0.10566000000E+00 0.  1.
         23    2    1    0    0    0  0.23658318027E+02  0.29452017243E+01  0.17325185951E+02  0.95618788737E+02  0.90963731598E+02 0.  0.
         13    1    3    3    0    0 -0.17414106116E+02 -0.62267798257E+01  0.42660572876E+02  0.46496876465E+02  0.10566000000E+00 0. -1.
         22    1    1    0    0    0 -0.23658318027E+02 -0.29452017243E+01 -0.17325185951E+02  0.29471211263E+02  0.00000000000E+00 0.  1.
</event>
<event>
 5    1  0.1261138E-009  0.9118800E+02  0.7561462E-02  0.1125453E+00
         25   -1    0    0    0    0  0.00000000000E+00  0.00000000000E+00  0.99999998245E-14  0.12509000000E+03  0.12509000000E+03 0.  0.
        -13    1    3    3    0    0 -0.64349941301E+01 -0.35665315694E+02  0.27693586708E+02  0.45611071044E+02  0.10566000000E+00 0.  1.
         23    2    1    0    0    0 -0.28017457479E+02  0.47836407052E+01  0.75952577285E+01  0.95669784469E+02  0.91033832053E+02 0.  0.
         13    1    3    3    0    0 -0.21582463348E+02  0.40448956399E+02 -0.20098328979E+02  0.50058713425E+02  0.10566000000E+00 0. -1.
         22    1    1    0    0    0  0.28017457479E+02 -0.47836407052E+01 -0.75952577285E+01  0.29420215531E+02  0.00000000000E+00 0. -1.
</event>
<event>
 5    1  0.1261138E-009  0.9118800E+02  0.7561462E-02  0.1125453E+00
         25   -1    0    0    0    0  0.00000000000E+00  0.00000000000E+00  0.99999998245E-14  0.12509000000E+03  0.12509000000E+03 0.  0.
        -13    1    3    3    0    0 -0.73091064096E+00 -0.16764072227E+02 -0.33482040507E+02  0.37451656152E+02  0.10566000000E+00 0.  1.
         23    2    1    0    0    0  0.16467723245E+01 -0.13210472526E+02  0.25359562706E+02  0.96448494032E+02  0.92097644579E+02 0.  0.
         13    1    3    3    0    0  0.23776829655E+01  0.35535997013E+01  0.58841603213E+02  0.58996837880E+02  0.10566000000E+00 0. -1.
         22    1    1    0    0    0 -0.16467723245E+01  0.13210472526E+02 -0.25359562706E+02  0.28641505968E+02  0.00000000000E+00 0. -1.
</event>
<event>
 5    1  0.1261138E-009  0.9118800E+02  0.7561462E-02  0.1125453E+00
         25   -1    0    0    0    0  0.00000000000E+00  0.00000000000E+00  0.99999998245E-14  0.12509000000E+03  0.12509000000E+03 0.  0.
        -13    1    3    3    0    0  0.26264790263E+02 -0.96368609688E+01  0.37284783662E+02  0.46614102519E+02  0.10566000000E+00 0. -1.
         23    2    1    0    0    0  0.24393993213E+00 -0.28559918917E+02 -0.86008002552E+00  0.96516092096E+02  0.92189412736E+02 0.  0.
         13    1    3    3    0    0 -0.26020850331E+02 -0.18923057948E+02 -0.38144863687E+02  0.49901989578E+02  0.10566000000E+00 0.  1.
         22    1    1    0    0    0 -0.24393993213E+00  0.28559918917E+02  0.86008002552E+00  0.28573907904E+02  0.00000000000E+00 0.  1.
</event>
<event>
 5    1  0.1261138E-009  0.9118800E+02  0.7561462E-02  0.1125453E+00
         25   -1    0    0    0    0  0.00000000000E+00  0.00000000000E+00  0.99999998245E-14  0.12509000000E+03  0.12509000000E+03 0.  0.
        -13    1    3    3    0    0  0.42361747162E+02  0.23562574005E+02 -0.18598789228E+02  0.51919540071E+02  0.10566000000E+00 0. -1.
         23    2    1    0    0    0  0.54474020310E+01  0.13829532376E+01 -0.28444208186E+02  0.96095867355E+02  0.91617443726E+02 0.  0.
         13    1    3    3    0    0 -0.36914345131E+02 -0.22179620767E+02 -0.98454189574E+01  0.44176327284E+02  0.10566000000E+00 0.  1.
         22    1    1    0    0    0 -0.54474020310E+01 -0.13829532376E+01  0.28444208186E+02  0.28994132645E+02  0.00000000000E+00 0. -1.
</event>
<event>
 5    1  0.1261138E-009  0.9118800E+02  0.7561462E-02  0.1125453E+00
         25   -1    0    0    0    0  0.00000000000E+00  0.00000000000E+00  0.99999998245E-14  0.12509000000E+03  0.12509000000E+03 0.  0.
        -13    1    3    3    0    0 -0.55127334507E+02 -0.22723766217E+02  0.40195099096E+01  0.59762531613E+02  0.10566000000E+00 0.  1.
         23    2    1    0    0    0 -0.25624592006E+02 -0.50345465649E+01 -0.10292220081E+02  0.97020511783E+02  0.92871327857E+02 0.  0.
         13    1    3    3    0    0  0.29502742501E+02  0.17689219652E+02 -0.14311729990E+02  0.37257980170E+02  0.10566000000E+00 0. -1.
         22    1    1    0    0    0  0.25624592006E+02  0.50345465649E+01  0.10292220081E+02  0.28069488217E+02  0.00000000000E+00 0.  1.
</event>
<event>
 5    1  0.1261138E-009  0.9118800E+02  0.7561462E-02  0.1125453E+00
         25   -1    0    0    0    0  0.00000000000E+00  0.00000000000E+00  0.99999998245E-14  0.12509000000E+03  0.12509000000E+03 0.  0.
        -13    1    3    3    0    0 -0.62894348312E+01  0.38785257642E+02 -0.44134791689E+02  0.59090982411E+02  0.10566000000E+00 0.  1.
         23    2    1    0    0    0  0.11453325711E+02  0.19914300467E+02 -0.23696431418E+02  0.92085774591E+02  0.85968081211E+02 0.  0.
         13    1    3    3    0    0  0.17742760542E+02 -0.18870957175E+02  0.20438360271E+02  0.32994792180E+02  0.10566000000E+00 0. -1.
         22    1    1    0    0    0 -0.11453325711E+02 -0.19914300467E+02  0.23696431418E+02  0.33004225409E+02  0.00000000000E+00 0.  1.
</event>
<event>
 5    1  0.1261138E-009  0.9118800E+02  0.7561462E-02  0.1125453E+00
         25   -1    0    0    0    0  0.00000000000E+00  0.00000000000E+00  0.99999998245E-14  0.12509000000E+03  0.12509000000E+03 0.  0.
        -13    1    3    3    0    0  0.27742282432E+02 -0.23772978341E+02 -0.23629094528E+01  0.36611244705E+02  0.10566000000E+00 0.  1.
         23    2    1    0    0    0 -0.26760377275E+02 -0.85596525474E+01  0.11272342377E+02  0.94817055870E+02  0.89854454189E+02 0.  0.
         13    1    3    3    0    0 -0.54502659707E+02  0.15213325794E+02  0.13635251829E+02  0.58205811165E+02  0.10566000000E+00 0. -1.
         22    1    1    0    0    0  0.26760377275E+02  0.85596525474E+01 -0.11272342377E+02  0.30272944130E+02  0.00000000000E+00 0. -1.
</event>
<event>
 5    1  0.1261138E-009  0.9118800E+02  0.7561462E-02  0.1125453E+00
         25   -1    0    0    0    0  0.00000000000E+00  0.00000000000E+00  0.99999998245E-14  0.12509000000E+03  0.12509000000E+03 0.  0.
        -13    1    3    3    0    0  0.15981586147E+01  0.42299299808E+02  0.20876268479E+02  0.47197612491E+02  0.10566000000E+00 0. -1.
         23    2    1    0    0    0  0.24457211459E+02 -0.19905510389E+00  0.16360236843E+02  0.95664633989E+02  0.91026754482E+02 0.  0.
         13    1    3    3    0    0  0.22859052845E+02 -0.42498354912E+02 -0.45160316358E+01  0.48467021498E+02  0.10566000000E+00 0.  1.
         22    1    1    0    0    0 -0.24457211459E+02  0.19905510389E+00 -0.16360236843E+02  0.29425366011E+02  0.00000000000E+00 0.  1.
</event>
<event>
 5    1  0.1261138E-009  0.9118800E+02  0.7561462E-02  0.1125453E+00
         25   -1    0    0    0    0  0.00000000000E+00  0.00000000000E+00  0.99999998245E-14  0.12509000000E+03  0.12509000000E+03 0.  0.
        -13    1    3    3    0    0 -0.25045135489E+02 -0.48722753109E+01  0.37443634855E+02  0.45310427426E+02  0.10566000000E+00 0.  1.
         23    2    1    0    0    0 -0.48776762460E+01  0.28519201058E+02  0.57065481321E+01  0.95599302379E+02  0.90936930723E+02 0.  0.
         13    1    3    3    0    0  0.20167459243E+02  0.33391476369E+02 -0.31737086723E+02  0.50288874954E+02  0.10566000000E+00 0. -1.
         22    1    1    0    0    0  0.48776762460E+01 -0.28519201058E+02 -0.57065481321E+01  0.29490697621E+02  0.00000000000E+00 0. -1.
</event>
<event>
 5    1  0.1261138E-009  0.9118800E+02  0.7561462E-02  0.1125453E+00
         25   -1    0    0    0    0  0.00000000000E+00  0.00000000000E+00  0.99999998245E-14  0.12509000000E+03  0.12509000000E+03 0.  0.
        -13    1    3    3    0    0 -0.55092622055E+02  0.10159940628E+02 -0.22741575733E+02  0.60461655859E+02  0.10566000000E+00 0.  1.
         23    2    1    0    0    0 -0.24629341612E+02  0.14768958940E+02 -0.52332775716E+01  0.95899011484E+02  0.91348270881E+02 0.  0.
         13    1    3    3    0    0  0.30463280443E+02  0.46090183117E+01  0.17508298161E+02  0.35437355624E+02  0.10566000000E+00 0. -1.
         22    1    1    0    0    0  0.24629341612E+02 -0.14768958940E+02  0.52332775716E+01  0.29190988516E+02  0.00000000000E+00 0.  1.
</event>
<event>
 5    1  0.1261138E-009  0.9118800E+02  0.7561462E-02  0.1125453E+00
         25   -1    0    0    0    0  0.00000000000E+00  0.00000000000E+00  0.99999998245E-14  0.12509000000E+03  0.12509000000E+03 0.  0.
        -13    1    3    3    0    0 -0.24953832455E+02  0.39985840929E+01 -0.23500640647E+02  0.34510486867E+02  0.10566000000E+00 0.  1.
         23    2    1    0    0    0  0.19572655544E+02 -0.16538340660E+02  0.13675644459E+02  0.96044711085E+02  0.91547570799E+02 0.  0.
         13    1    3    3    0    0  0.44526487998E+02 -0.20536924753E+02  0.37176285106E+02  0.61534224218E+02  0.10566000000E+00 0. -1.
         22    1    1    0    0    0 -0.19572655544E+02  0.16538340660E+02 -0.13675644459E+02  0.29045288915E+02  0.00000000000E+00 0. -1.
</event>
<event>
 5    1  0.1261138E-009  0.9118800E+02  0.7561462E-02  0.1125453E+00
         25   -1    0    0    0    0  0.00000000000E+00  0.00000000000E+00  0.99999998245E-14  0.12509000000E+03  0.12509000000E+03 0.  0.
        -13    1    3    3    0    0  0.10402955738E+01  0.13076672349E+02 -0.34834551114E+02  0.37222824852E+02  0.10566000000E+00 0.  1.
         23    2    1    0    0    0  0.91810124912E+01 -0.22059667929E+02  0.13588872477E+02  0.97602231907E+02  0.93651579157E+02 0.  0.
         13    1    3    3    0    0  0.81407169173E+01 -0.35136340278E+02  0.48423423591E+02  0.60379407056E+02  0.10566000000E+00 0. -1.
         22    1    1    0    0    0 -0.91810124912E+01  0.22059667929E+02 -0.13588872477E+02  0.27487768093E+02  0.00000000000E+00 0. -1.
</event>
<event>
 5    1  0.1261138E-009  0.9118800E+02  0.7561462E-02  0.1125453E+00
         25   -1    0    0    0    0  0.00000000000E+00  0.00000000000E+00  0.99999998245E-14  0.12509000000E+03  0.12509000000E+03 0.  0.
        -13    1    3    3    0    0 -0.35292833115E+02  0.39533585911E+02 -0.83645764633E+01  0.53651335377E+02  0.10566000000E+00 0. -1.
         23    2    1    0    0    0  0.56758030047E+01  0.27314259095E+02 -0.65046244060E+01  0.96443994549E+02  0.92091533032E+02 0.  0.
         13    1    3    3    0    0  0.40968636120E+02 -0.12219326816E+02  0.18599520573E+01  0.42792659172E+02  0.10566000000E+00 0.  1.
         22    1    1    0    0    0 -0.56758030047E+01 -0.27314259095E+02  0.65046244060E+01  0.28646005451E+02  0.00000000000E+00 0. -1.
</event>
<event>
 5    1  0.1261138E-009  0.9118800E+02  0.7561462E-02  0.1125453E+00
         25   -1    0    0    0    0  0.00000000000E+00  0.00000000000E+00  0.99999998245E-14  0.12509000000E+03  0.12509000000E+03 0.  0.
        -13    1    3    3    0    0  0.43708445569E+02 -0.22124286269E+02  0.18215181746E+02  0.52265823126E+02  0.10566000000E+00 0. -1.
         23    2    1    0    0    0  0.21353728677E+01 -0.13661705183E+02  0.26226654802E+02  0.95441400911E+02  0.90719466378E+02 0.  0.
         13    1    3    3    0    0 -0.41573072702E+02  0.84625810860E+01  0.80114730566E+01  0.43175577785E+02  0.10566000000E+00 0.  1.
         22    1    1    0    0    0 -0.21353728677E+01  0.13661705183E+02 -0.26226654802E+02  0.29648599089E+02  0.00000000000E+00 0.  1.
</event>
<event>
 5    1  0.1261138E-009  0.9118800E+02  0.7561462E-02  0.1125453E+00
         25   -1    0    0    0    0  0.00000000000E+00  0.00000000000E+00  0.99999998245E-14  0.12509000000E+03  0.12509000000E+03 0.  0.
        -13    1    3    3    0    0 -0.24837096002E+02 -0.22017464183E+02  0.17400385362E+02  0.37475787405E+02  0.10566000000E+00 0.  1.
         23    2    1    0    0    0  0.18875405328E+01 -0.16332979633E+01 -0.29670208209E+02  0.95314981500E+02  0.90544983139E+02 0.  0.
         13    1    3    3    0    0  0.26724636535E+02  0.20384166220E+02 -0.47070593571E+02  0.57839194095E+02  0.10566000000E+00 0. -1.
         22    1    1    0    0    0 -0.18875405328E+01  0.16332979633E+01  0.29670208209E+02  0.29775018500E+02  0.00000000000E+00 0. -1.
</event>
<event>
 5    1  0.1261138E-009  0.9118800E+02  0.7561462E-02  0.1125453E+00
         25   -1    0    0    0    0  0.00000000000E+00  0.00000000000E+00  0.99999998245E-14  0.12509000000E+03  0.12509000000E+03 0.  0.
        -13    1    3    3    0    0  0.41035263860E+02 -0.42093828490E+02 -0.20153099813E+02  0.62144524080E+02  0.10566000000E+00 0.  1.
         23    2    1    0    0    0  0.17006117675E+02 -0.18392109767E+02 -0.34473029554E+01  0.99804398609E+02  0.96548207358E+02 0.  0.
         13    1    3    3    0    0 -0.24029146185E+02  0.23701718724E+02  0.16705796857E+02  0.37659874529E+02  0.10566000000E+00 0. -1.
         22    1    1    0    0    0 -0.17006117675E+02  0.18392109767E+02  0.34473029554E+01  0.25285601391E+02  0.00000000000E+00 0.  1.
</event>
<event>
 5    1  0.1261138E-009  0.9118800E+02  0.7561462E-02  0.1125453E+00
         25   -1    0    0    0    0  0.00000000000E+00  0.00000000000E+00  0.99999998245E-14  0.12509000000E+03  0.12509000000E+03 0.  0.
        -13    1    3    3    0    0  0.72908906194E+01 -0.25811847198E+02  0.50682840677E+02  0.57342567478E+02  0.10566000000E+00 0.  1.
         23    2    1    0    0    0  0.28480310465E+01 -0.26321778453E+02  0.12454980578E+02  0.95831260400E+02  0.91255447108E+02 0.  0.
         13    1    3    3    0    0 -0.44428595729E+01 -0.50993125456E+00 -0.38227860099E+02  0.38488692922E+02  0.10566000000E+00 0. -1.
         22    1    1    0    0    0 -0.28480310465E+01  0.26321778453E+02 -0.12454980578E+02  0.29258739600E+02  0.00000000000E+00 0.  1.
</event>
<event>
 5    1  0.1261138E-009  0.9118800E+02  0.7561462E-02  0.1125453E+00
         25   -1    0    0    0    0  0.00000000000E+00  0.00000000000E+00  0.99999998245E-14  0.12509000000E+03  0.12509000000E+03 0.  0.
        -13    1    3    3    0    0 -0.30380701648E+02  0.49299265319E+01 -0.21753072251E+02  0.37689501517E+02  0.10566000000E+00 0.  1.
         23    2    1    0    0    0 -0.32598287824E+01  0.20729319261E+01  0.29282175628E+02  0.95554100827E+02  0.90874731608E+02 0.  0.
         13    1    3    3    0    0  0.27120872865E+02 -0.28569946057E+01  0.51035247879E+02  0.57864599310E+02  0.10566000000E+00 0. -1.
         22    1    1    0    0    0  0.32598287824E+01 -0.20729319261E+01 -0.29282175628E+02  0.29535899173E+02  0.00000000000E+00 0. -1.
</event>
<event>
 5    1  0.1261138E-009  0.9118800E+02  0.7561462E-02  0.1125453E+00
         25   -1    0    0    0    0  0.00000000000E+00  0.00000000000E+00  0.99999998245E-14  0.12509000000E+03  0.12509000000E+03 0.  0.
        -13    1    3    3    0    0  0.23303404356E+02 -0.38801438070E+02  0.31096294555E+00  0.45262656936E+02  0.10566000000E+00 0.  1.
         23    2    1    0    0    0 -0.84812649514E+01 -0.11538051838E+02 -0.26487725174E+02  0.94979236472E+02  0.90079949381E+02 0.  0.
         13    1    3    3    0    0 -0.31784669308E+02  0.27263386232E+02 -0.26798688119E+02  0.49716579536E+02  0.10566000000E+00 0. -1.
         22    1    1    0    0    0  0.84812649514E+01  0.11538051838E+02  0.26487725174E+02  0.30110763528E+02  0.00000000000E+00 0. -1.
</event>
<event>
 5    1  0.1261138E-009  0.9118800E+02  0.7561462E-02  0.1125453E+00
         25   -1    0    0    0    0  0.00000000000E+00  0.00000000000E+00  0.99999998245E-14  0.12509000000E+03  0.12509000000E+03 0.  0.
        -13    1    3    3    0    0 -0.51717306565E+01  0.40277692931E+02 -0.28347699131E+02  0.49524161335E+02  0.10566000000E+00 0.  1.
         23    2    1    0    0    0  0.17580963432E+02  0.19694564382E+02  0.83900060785E+01  0.97388766392E+02  0.93366018850E+02 0.  0.
         13    1    3    3    0    0  0.22752694089E+02 -0.20583128549E+02  0.36737705210E+02  0.47864605057E+02  0.10566000000E+00 0. -1.
         22    1    1    0    0    0 -0.17580963432E+02 -0.19694564382E+02 -0.83900060785E+01  0.27701233608E+02  0.00000000000E+00 0.  1.
</event>
<event>
 5    1  0.1261138E-009  0.9118800E+02  0.7561462E-02  0.1125453E+00
         25   -1    0    0    0    0  0.00000000000E+00  0.00000000000E+00  0.99999998245E-14  0.12509000000E+03  0.12509000000E+03 0.  0.
        -13    1    3    3    0    0 -0.27599927986E+02 -0.24581757743E+02 -0.48018251421E+02  0.60595234731E+02  0.10566000000E+00 0.  1.
         23    2    1    0    0    0 -0.21653755911E+02 -0.80426251590E+01 -0.16430873237E+02  0.96743173725E+02  0.92497022128E+02 0.  0.
         13    1    3    3    0    0  0.59461720754E+01  0.16539132584E+02  0.31587378183E+02  0.36147938994E+02  0.10566000000E+00 0. -1.
         22    1    1    0    0    0  0.21653755911E+02  0.80426251590E+01  0.16430873237E+02  0.28346826275E+02  0.00000000000E+00 0.  1.
</event>
<event>
 5    1  0.1261138E-009  0.9118800E+02  0.7561462E-02  0.1125453E+00
         25   -1    0    0    0    0  0.00000000000E+00  0.00000000000E+00  0.99999998245E-14  0.12509000000E+03  0.12509000000E+03 0.  0.
        -13    1    3    3    0    0 -0.17368981222E+02  0.36982307315E+02  0.40639388447E+02  0.57627628968E+02  0.10566000000E+00 0. -1.
         23    2    1    0    0    0 -0.22759303371E+02  0.81892166070E+01  0.14493707879E+02  0.96892185782E+02  0.92698322202E+02 0.  0.
         13    1    3    3    0    0 -0.53903221493E+01 -0.28793090708E+02 -0.26145680569E+02  0.39264556814E+02  0.10566000000E+00 0.  1.
         22    1    1    0    0    0  0.22759303371E+02 -0.81892166070E+01 -0.14493707879E+02  0.28197814218E+02  0.00000000000E+00 0. -1.
</event>
<event>
 5    1  0.1261138E-009  0.9118800E+02  0.7561462E-02  0.1125453E+00
         25   -1    0    0    0    0  0.00000000000E+00  0.00000000000E+00  0.99999998245E-14  0.12509000000E+03  0.12509000000E+03 0.  0.
        -13    1    3    3    0    0  0.58919766740E+02  0.73660859432E+01 -0.10072155650E+02  0.60226718475E+02  0.10566000000E+00 0.  1.
         23    2    1    0    0    0  0.23752006724E+02  0.53455505154E+01 -0.16012662412E+02  0.95950025888E+02  0.91418102019E+02 0.  0.
         13    1    3    3    0    0 -0.35167760016E+02 -0.20205354278E+01 -0.59405067618E+01  0.35723307414E+02  0.10566000000E+00 0. -1.
         22    1    1    0    0    0 -0.23752006724E+02 -0.53455505154E+01  0.16012662412E+02  0.29139974112E+02  0.00000000000E+00 0.  1.
</event>
<event>
 5    1  0.1261138E-009  0.9118800E+02  0.7561462E-02  0.1125453E+00
         25   -1    0    0    0    0  0.00000000000E+00  0.00000000000E+00  0.99999998245E-14  0.12509000000E+03  0.12509000000E+03 0.  0.
        -13    1    3    3    0    0 -0.42140861211E+01  0.52745693340E+02 -0.21366705537E+02  0.57064997654E+02  0.10566000000E+00 0.  1.
         23    2    1    0    0    0 -0.17249190408E+02  0.23326665358E+02  0.67932802842E+00  0.96070534584E+02  0.91582849062E+02 0.  0.
         13    1    3    3    0    0 -0.13035104287E+02 -0.29419027982E+02  0.22046033565E+02  0.39005536930E+02  0.10566000000E+00 0. -1.
         22    1    1    0    0    0  0.17249190408E+02 -0.23326665358E+02 -0.67932802842E+00  0.29019465416E+02  0.00000000000E+00 0.  1.
</event>
<event>
 5    1  0.1261138E-009  0.9118800E+02  0.7561462E-02  0.1125453E+00
         25   -1    0    0    0    0  0.00000000000E+00  0.00000000000E+00  0.99999998245E-14  0.12509000000E+03  0.12509000000E+03 0.  0.
        -13    1    3    3    0    0 -0.17208365936E+02  0.22144515640E+02  0.46604775188E+01  0.28429538263E+02  0.10566000000E+00 0.  1.
         23    2    1    0    0    0  0.13693663445E+02 -0.29135713908E+02  0.15638651311E+02  0.89299307658E+02  0.81813157193E+02 0.  0.
         13    1    3    3    0    0  0.30902029381E+02 -0.51280229548E+02  0.10978173792E+02  0.60869769395E+02  0.10566000000E+00 0. -1.
         22    1    1    0    0    0 -0.13693663445E+02  0.29135713908E+02 -0.15638651311E+02  0.35790692342E+02  0.00000000000E+00 0. -1.
</event>
<event>
 5    1  0.1261138E-009  0.9118800E+02  0.7561462E-02  0.1125453E+00
         25   -1    0    0    0    0  0.00000000000E+00  0.00000000000E+00  0.99999998245E-14  0.12509000000E+03  0.12509000000E+03 0.  0.
        -13    1    3    3    0    0  0.18307640914E+01 -0.59350392892E+02  0.14448369401E+02  0.61111270450E+02  0.10566000000E+00 0.  1.
         23    2    1    0    0    0 -0.19565992158E+01 -0.29027485996E+02 -0.22051583970E+01  0.95913195047E+02  0.91367691428E+02 0.  0.
         13    1    3    3    0    0 -0.37873633073E+01  0.30322906897E+02 -0.16653527798E+02  0.34801924597E+02  0.10566000000E+00 0. -1.
         22    1    1    0    0    0  0.19565992158E+01  0.29027485996E+02  0.22051583970E+01  0.29176804953E+02  0.00000000000E+00 0.  1.
</event>
<event>
 5    1  0.1261138E-009  0.9118800E+02  0.7561462E-02  0.1125453E+00
         25   -1    0    0    0    0  0.00000000000E+00  0.00000000000E+00  0.99999998245E-14  0.12509000000E+03  0.12509000000E+03 0.  0.
        -13    1    3    3    0    0  0.41381529521E+01  0.66546152352E+00  0.38948263184E+02  0.39173275558E+02  0.10566000000E+00 0.  1.
         23    2    1    0    0    0  0.72568317296E+01 -0.27030733042E+02 -0.98910172379E+01  0.95405755736E+02  0.90670303131E+02 0.  0.
         13    1    3    3    0    0  0.31186787775E+01 -0.27696194566E+02 -0.48839280422E+02  0.56232480177E+02  0.10566000000E+00 0. -1.
         22    1    1    0    0    0 -0.72568317296E+01  0.27030733042E+02  0.98910172379E+01  0.29684244264E+02  0.00000000000E+00 0. -1.
</event>
<event>
 5    1  0.1261138E-009  0.9118800E+02  0.7561462E-02  0.1125453E+00
         25   -1    0    0    0    0  0.00000000000E+00  0.00000000000E+00  0.99999998245E-14  0.12509000000E+03  0.12509000000E+03 0.  0.
        -13    1    3    3    0    0  0.16379317274E+02  0.45605978440E+02 -0.22912531263E+02  0.53602076049E+02  0.10566000000E+00 0.  1.
         23    2    1    0    0    0  0.56894688364E+00  0.14383760589E+02 -0.32206959188E+02  0.89812464806E+02  0.82594033352E+02 0.  0.
         13    1    3    3    0    0 -0.15810370391E+02 -0.31222217852E+02 -0.92944279242E+01  0.36210388757E+02  0.10566000000E+00 0. -1.
         22    1    1    0    0    0 -0.56894688364E+00 -0.14383760589E+02  0.32206959188E+02  0.35277535194E+02  0.00000000000E+00 0.  1.
</event>
<event>
 5    1  0.1261138E-009  0.9118800E+02  0.7561462E-02  0.1125453E+00
         25   -1    0    0    0    0  0.00000000000E+00  0.00000000000E+00  0.99999998245E-14  0.12509000000E+03  0.12509000000E+03 0.  0.
        -13    1    3    3    0    0  0.71125477144E+00  0.25132520920E+02 -0.25032663322E+02  0.35479499548E+02  0.10566000000E+00 0. -1.
         23    2    1    0    0    0  0.11825190860E+02 -0.25665683279E+01  0.27021475478E+02  0.95482863210E+02  0.90776619335E+02 0.  0.
         13    1    3    3    0    0  0.11113936089E+02 -0.27699089248E+02  0.52054138800E+02  0.60003363662E+02  0.10566000000E+00 0.  1.
         22    1    1    0    0    0 -0.11825190860E+02  0.25665683279E+01 -0.27021475478E+02  0.29607136790E+02  0.00000000000E+00 0.  1.
</event>
<event>
 5    1  0.1261138E-009  0.9118800E+02  0.7561462E-02  0.1125453E+00
         25   -1    0    0    0    0  0.00000000000E+00  0.00000000000E+00  0.99999998245E-14  0.12509000000E+03  0.12509000000E+03 0.  0.
        -13    1    3    3    0    0  0.31178542449E+02 -0.43799411417E+01 -0.21020649559E+02  0.37857156068E+02  0.10566000000E+00 0.  1.
         23    2    1    0    0    0  0.14816226054E+01  0.20240592590E+02  0.21673880852E+02  0.95397679358E+02  0.90659160164E+02 0.  0.
         13    1    3    3    0    0 -0.29696919843E+02  0.24620533732E+02  0.42694530411E+02  0.57540523290E+02  0.10566000000E+00 0. -1.
         22    1    1    0    0    0 -0.14816226054E+01 -0.20240592590E+02 -0.21673880852E+02  0.29692320642E+02  0.00000000000E+00 0. -1.
</event>
<event>
 5    1  0.1261138E-009  0.9118800E+02  0.7561462E-02  0.1125453E+00
         25   -1    0    0    0    0  0.00000000000E+00  0.00000000000E+00  0.99999998245E-14  0.12509000000E+03  0.12509000000E+03 0.  0.
        -13    1    3    3    0    0  0.31686603656E+02 -0.39972071114E+02  0.12080462176E+02  0.52419042827E+02  0.10566000000E+00 0. -1.
         23    2    1    0    0    0  0.30287694401E+02  0.58855210887E+00  0.10478480350E+02  0.93035524865E+02  0.87339106423E+02 0.  0.
         13    1    3    3    0    0 -0.13989092553E+01  0.40560623223E+02 -0.16019818252E+01  0.40616482038E+02  0.10566000000E+00 0.  1.
         22    1    1    0    0    0 -0.30287694401E+02 -0.58855210887E+00 -0.10478480350E+02  0.32054475135E+02  0.00000000000E+00 0. -1.
</event>
<event>
 5    1  0.1261138E-009  0.9118800E+02  0.7561462E-02  0.1125453E+00
         25   -1    0    0    0    0  0.00000000000E+00  0.00000000000E+00  0.99999998245E-14  0.12509000000E+03  0.12509000000E+03 0.  0.
        -13    1    3    3    0    0  0.30956333484E+02  0.19383520101E+02 -0.18819848114E+02  0.41087872680E+02  0.10566000000E+00 0.  1.
         23    2    1    0    0    0 -0.12084864699E+01 -0.24924936245E+02 -0.15002524119E+02  0.95973190142E+02  0.91449792836E+02 0.  0.
         13    1    3    3    0    0 -0.32164819954E+02 -0.44308456346E+02  0.38173239953E+01  0.54885317462E+02  0.10566000000E+00 0. -1.
         22    1    1    0    0    0  0.12084864699E+01  0.24924936245E+02  0.15002524119E+02  0.29116809858E+02  0.00000000000E+00 0. -1.
</event>
<event>
 5    1  0.1261138E-009  0.9118800E+02  0.7561462E-02  0.1125453E+00
         25   -1    0    0    0    0  0.00000000000E+00  0.00000000000E+00  0.99999998245E-14  0.12509000000E+03  0.12509000000E+03 0.  0.
        -13    1    3    3    0    0  0.24170522466E+02 -0.93310494791E+01  0.54798452740E+02  0.60614884537E+02  0.10566000000E+00 0.  1.
         23    2    1    0    0    0  0.31958080049E+01  0.19527088977E+01  0.29470916011E+02  0.95382069218E+02  0.90637618994E+02 0.  0.
         13    1    3    3    0    0 -0.20974714461E+02  0.11283758377E+02 -0.25327536729E+02  0.34767184681E+02  0.10566000000E+00 0. -1.
         22    1    1    0    0    0 -0.31958080049E+01 -0.19527088977E+01 -0.29470916011E+02  0.29707930782E+02  0.00000000000E+00 0.  1.
</event>
<event>
 5    1  0.1261138E-009  0.9118800E+02  0.7561462E-02  0.1125453E+00
         25   -1    0    0    0    0  0.00000000000E+00  0.00000000000E+00  0.99999998245E-14  0.12509000000E+03  0.12509000000E+03 0.  0.
        -13    1    3    3    0    0 -0.59362958157E+02 -0.23484227284E+00 -0.16756956725E+02  0.61683245009E+02  0.10566000000E+00 0.  1.
         23    2    1    0    0    0 -0.28158786234E+02 -0.40487474094E+01 -0.15638560985E+01  0.96598681258E+02  0.92301408316E+02 0.  0.
         13    1    3    3    0    0  0.31204171923E+02 -0.38139051365E+01  0.15193100627E+02  0.34915436249E+02  0.10566000000E+00 0. -1.
         22    1    1    0    0    0  0.28158786234E+02  0.40487474094E+01  0.15638560985E+01  0.28491318742E+02  0.00000000000E+00 0.  1.
</event>
<event>
 5    1  0.1261138E-009  0.9118800E+02  0.7561462E-02  0.1125453E+00
         25   -1    0    0    0    0  0.00000000000E+00  0.00000000000E+00  0.99999998245E-14  0.12509000000E+03  0.12509000000E+03 0.  0.
        -13    1    3    3    0    0  0.28524901334E+02 -0.48607010541E+01  0.22046049440E+02  0.36377683692E+02  0.10566000000E+00 0. -1.
         23    2    1    0    0    0 -0.28257142615E+02  0.31853879367E+01  0.97358562161E+01  0.95033391720E+02  0.90155120989E+02 0.  0.
         13    1    3    3    0    0 -0.56782043948E+02  0.80460889908E+01 -0.12310193224E+02  0.58655708028E+02  0.10566000000E+00 0.  1.
         22    1    1    0    0    0  0.28257142615E+02 -0.31853879367E+01 -0.97358562161E+01  0.30056608280E+02  0.00000000000E+00 0.  1.
</event>
<event>
 5    1  0.1261138E-009  0.9118800E+02  0.7561462E-02  0.1125453E+00
         25   -1    0    0    0    0  0.00000000000E+00  0.00000000000E+00  0.99999998245E-14  0.12509000000E+03  0.12509000000E+03 0.  0.
        -13    1    3    3    0    0 -0.33722090493E+02 -0.55688754145E+01  0.47118098948E+02  0.58209261918E+02  0.10566000000E+00 0.  1.
         23    2    1    0    0    0 -0.18075815708E+02 -0.17572616696E+02  0.15429256791E+02  0.95533377456E+02  0.90846201197E+02 0.  0.
         13    1    3    3    0    0  0.15646274785E+02 -0.12003741282E+02 -0.31688842157E+02  0.37324115538E+02  0.10566000000E+00 0. -1.
         22    1    1    0    0    0  0.18075815708E+02  0.17572616696E+02 -0.15429256791E+02  0.29556622544E+02  0.00000000000E+00 0.  1.
</event>
<event>
 5    1  0.1261138E-009  0.9118800E+02  0.7561462E-02  0.1125453E+00
         25   -1    0    0    0    0  0.00000000000E+00  0.00000000000E+00  0.99999998245E-14  0.12509000000E+03  0.12509000000E+03 0.  0.
        -13    1    3    3    0    0 -0.40292086467E+02  0.44404232799E+02  0.98394877866E+01  0.60761951962E+02  0.10566000000E+00 0.  1.
         23    2    1    0    0    0 -0.15949176183E+02  0.18011989371E+02  0.14549642174E+02  0.96974166927E+02  0.92808884175E+02 0.  0.
         13    1    3    3    0    0  0.24342910284E+02 -0.26392243428E+02  0.47101543873E+01  0.36212214965E+02  0.10566000000E+00 0. -1.
         22    1    1    0    0    0  0.15949176183E+02 -0.18011989371E+02 -0.14549642174E+02  0.28115833073E+02  0.00000000000E+00 0.  1.
</event>
<event>
 5    1  0.1261138E-009  0.9118800E+02  0.7561462E-02  0.1125453E+00
         25   -1    0    0    0    0  0.00000000000E+00  0.00000000000E+00  0.99999998245E-14  0.12509000000E+03  0.12509000000E+03 0.  0.
        -13    1    3    3    0    0  0.19830639109E+02  0.40003630662E+02  0.86116048664E+01  0.45472141098E+02  0.10566000000E+00 0. -1.
         23    2    1    0    0    0  0.28037242282E+02 -0.89350798846E+01  0.51626536414E+01  0.95213996253E+02  0.90405362023E+02 0.  0.
         13    1    3    3    0    0  0.82066031722E+01 -0.48938710547E+02 -0.34489512249E+01  0.49741855154E+02  0.10566000000E+00 0.  1.
         22    1    1    0    0    0 -0.28037242282E+02  0.89350798846E+01 -0.51626536414E+01  0.29876003747E+02  0.00000000000E+00 0.  1.
</event>
<event>
 5    1  0.1261138E-009  0.9118800E+02  0.7561462E-02  0.1125453E+00
         25   -1    0    0    0    0  0.00000000000E+00  0.00000000000E+00  0.99999998245E-14  0.12509000000E+03  0.12509000000E+03 0.  0.
        -13    1    3    3    0    0 -0.29776017207E+02  0.32605749293E+02 -0.41776233981E+02  0.60786601956E+02  0.10566000000E+00 0.  1.
         23    2    1    0    0    0 -0.43520486880E+01  0.14631692971E+02 -0.24019587537E+02  0.96630074624E+02  0.92343943870E+02 0.  0.
         13    1    3    3    0    0  0.25423968519E+02 -0.17974056322E+02  0.17756646445E+02  0.35843472668E+02  0.10566000000E+00 0. -1.
         22    1    1    0    0    0  0.43520486880E+01 -0.14631692971E+02  0.24019587537E+02  0.28459925376E+02  0.00000000000E+00 0.  1.
</event>
<event>
 5    1  0.1261138E-009  0.9118800E+02  0.7561462E-02  0.1125453E+00
         25   -1    0    0    0    0  0.00000000000E+00  0.00000000000E+00  0.99999998245E-14  0.12509000000E+03  0.12509000000E+03 0.  0.
        -13    1    3    3    0    0  0.53150461963E+02  0.27504824874E+02  0.34826795071E+01  0.59946869967E+02  0.10566000000E+00 0.  1.
         23    2    1    0    0    0  0.18435978417E+02  0.19881149062E+02  0.10206173198E+02  0.96119129120E+02  0.91649198704E+02 0.  0.
         13    1    3    3    0    0 -0.34714483546E+02 -0.76236758121E+01  0.67234936911E+01  0.36172259153E+02  0.10566000000E+00 0. -1.
         22    1    1    0    0    0 -0.18435978417E+02 -0.19881149062E+02 -0.10206173198E+02  0.28970870880E+02  0.00000000000E+00 0.  1.
</event>
<event>
 5    1  0.1261138E-009  0.9118800E+02  0.7561462E-02  0.1125453E+00
         25   -1    0    0    0    0  0.00000000000E+00  0.00000000000E+00  0.99999998245E-14  0.12509000000E+03  0.12509000000E+03 0.  0.
        -13    1    3    3    0    0  0.57727146733E+02  0.17640701813E+02  0.84369608017E+01  0.60949251857E+02  0.10566000000E+00 0.  1.
         23    2    1    0    0    0  0.30430324712E+02  0.95855915378E+01 -0.56237319666E+01  0.92693787437E+02  0.86848279436E+02 0.  0.
         13    1    3    3    0    0 -0.27296822021E+02 -0.80551102756E+01 -0.14060692768E+02  0.31744535579E+02  0.10566000000E+00 0. -1.
         22    1    1    0    0    0 -0.30430324712E+02 -0.95855915378E+01  0.56237319666E+01  0.32396212563E+02  0.00000000000E+00 0.  1.
</event>
<event>
 5    1  0.1261138E-009  0.9118800E+02  0.7561462E-02  0.1125453E+00
         25   -1    0    0    0    0  0.00000000000E+00  0.00000000000E+00  0.99999998245E-14  0.12509000000E+03  0.12509000000E+03 0.  0.
        -13    1    3    3    0    0  0.26117651471E+02 -0.27977245967E+02  0.69689809439E+01  0.38902903101E+02  0.10566000000E+00 0. -1.
         23    2    1    0    0    0  0.45309910522E+01  0.26345773020E+02  0.73731148120E+01  0.97359286739E+02  0.93326514220E+02 0.  0.
         13    1    3    3    0    0 -0.21586660418E+02  0.54323018987E+02  0.40413386809E+00  0.58456383638E+02  0.10566000000E+00 0.  1.
         22    1    1    0    0    0 -0.45309910522E+01 -0.26345773020E+02 -0.73731148120E+01  0.27730713261E+02  0.00000000000E+00 0.  1.
</event>
<event>
 5    1  0.1261138E-009  0.9118800E+02  0.7561462E-02  0.1125453E+00
         25   -1    0    0    0    0  0.00000000000E+00  0.00000000000E+00  0.99999998245E-14  0.12509000000E+03  0.12509000000E+03 0.  0.
        -13    1    3    3    0    0  0.24660954143E+02  0.44965369555E+02  0.25084383998E+02  0.57090144536E+02  0.10566000000E+00 0.  1.
         23    2    1    0    0    0 -0.46223516748E+01  0.27979354700E+02  0.54910574613E+01  0.96204672644E+02  0.91765880925E+02 0.  0.
         13    1    3    3    0    0 -0.29283305818E+02 -0.16986014855E+02 -0.19593326537E+02  0.39114528108E+02  0.10566000000E+00 0. -1.
         22    1    1    0    0    0  0.46223516748E+01 -0.27979354700E+02 -0.54910574613E+01  0.28885327356E+02  0.00000000000E+00 0.  1.
</event>
<event>
 5    1  0.1261138E-009  0.9118800E+02  0.7561462E-02  0.1125453E+00
         25   -1    0    0    0    0  0.00000000000E+00  0.00000000000E+00  0.99999998245E-14  0.12509000000E+03  0.12509000000E+03 0.  0.
        -13    1    3    3    0    0 -0.19194508508E+02  0.29862881795E+02 -0.93391700597E+01  0.36707657613E+02  0.10566000000E+00 0. -1.
         23    2    1    0    0    0  0.15420228726E+02 -0.17003943429E+02 -0.18398766076E+02  0.95671771991E+02  0.91036563076E+02 0.  0.
         13    1    3    3    0    0  0.34614737234E+02 -0.46866825224E+02 -0.90595960163E+01  0.58964114378E+02  0.10566000000E+00 0.  1.
         22    1    1    0    0    0 -0.15420228726E+02  0.17003943429E+02  0.18398766076E+02  0.29418228009E+02  0.00000000000E+00 0.  1.
</event>
<event>
 5    1  0.1261138E-009  0.9118800E+02  0.7561462E-02  0.1125453E+00
         25   -1    0    0    0    0  0.00000000000E+00  0.00000000000E+00  0.99999998245E-14  0.12509000000E+03  0.12509000000E+03 0.  0.
        -13    1    3    3    0    0  0.46518284979E+02  0.35353300126E+02 -0.66724350970E+01  0.58807645943E+02  0.10566000000E+00 0. -1.
         23    2    1    0    0    0  0.14033903979E+02  0.24302937423E+02  0.76694575683E+01  0.95996980087E+02  0.91482328228E+02 0.  0.
         13    1    3    3    0    0 -0.32484381000E+02 -0.11050362703E+02  0.14341892665E+02  0.37189334144E+02  0.10566000000E+00 0.  1.
         22    1    1    0    0    0 -0.14033903979E+02 -0.24302937423E+02 -0.76694575683E+01  0.29093019913E+02  0.00000000000E+00 0. -1.
</event>
<event>
 5    1  0.1261138E-009  0.9118800E+02  0.7561462E-02  0.1125453E+00
         25   -1    0    0    0    0  0.00000000000E+00  0.00000000000E+00  0.99999998245E-14  0.12509000000E+03  0.12509000000E+03 0.  0.
        -13    1    3    3    0    0  0.10533960304E+02 -0.20996769140E+02  0.25701942632E+02  0.34819960556E+02  0.10566000000E+00 0. -1.
         23    2    1    0    0    0  0.80222095122E+01  0.19691780239E+02 -0.19886157145E+02  0.95976750432E+02  0.91454662664E+02 0.  0.
         13    1    3    3    0    0 -0.25117507919E+01  0.40688549379E+02 -0.45588099777E+02  0.61156789876E+02  0.10566000000E+00 0.  1.
         22    1    1    0    0    0 -0.80222095122E+01 -0.19691780239E+02  0.19886157145E+02  0.29113249568E+02  0.00000000000E+00 0.  1.
</event>
<event>
 5    1  0.1261138E-009  0.9118800E+02  0.7561462E-02  0.1125453E+00
         25   -1    0    0    0    0  0.00000000000E+00  0.00000000000E+00  0.99999998245E-14  0.12509000000E+03  0.12509000000E+03 0.  0.
        -13    1    3    3    0    0  0.21867171037E+02  0.22579404249E+02 -0.69047285006E+01  0.32182123999E+02  0.10566000000E+00 0.  1.
         23    2    1    0    0    0 -0.24485126434E+02 -0.13420574928E+02  0.13179736557E+02  0.94213816563E+02  0.89010698951E+02 0.  0.
         13    1    3    3    0    0 -0.46352297472E+02 -0.35999979177E+02  0.20084465058E+02  0.62031692564E+02  0.10566000000E+00 0. -1.
         22    1    1    0    0    0  0.24485126434E+02  0.13420574928E+02 -0.13179736557E+02  0.30876183437E+02  0.00000000000E+00 0. -1.
</event>
<event>
 5    1  0.1261138E-009  0.9118800E+02  0.7561462E-02  0.1125453E+00
         25   -1    0    0    0    0  0.00000000000E+00  0.00000000000E+00  0.99999998245E-14  0.12509000000E+03  0.12509000000E+03 0.  0.
        -13    1    3    3    0    0 -0.20332796263E+02 -0.48263509513E+02  0.20845488857E+02  0.56367850093E+02  0.10566000000E+00 0. -1.
         23    2    1    0    0    0 -0.25091511543E+02 -0.10464147864E+02  0.11339875165E+02  0.95633674519E+02  0.90984199679E+02 0.  0.
         13    1    3    3    0    0 -0.47587152808E+01  0.37799361649E+02 -0.95056136914E+01  0.39265824426E+02  0.10566000000E+00 0.  1.
         22    1    1    0    0    0  0.25091511543E+02  0.10464147864E+02 -0.11339875165E+02  0.29456325481E+02  0.00000000000E+00 0. -1.
</event>
<event>
 5    1  0.1261138E-009  0.9118800E+02  0.7561462E-02  0.1125453E+00
         25   -1    0    0    0    0  0.00000000000E+00  0.00000000000E+00  0.99999998245E-14  0.12509000000E+03  0.12509000000E+03 0.  0.
        -13    1    3    3    0    0  0.16507495074E+02 -0.43661206461E+02  0.17805403377E+01  0.46711666971E+02  0.10566000000E+00 0. -1.
         23    2    1    0    0    0  0.78056160196E+01 -0.41865631293E+01 -0.27222582271E+02  0.96462671487E+02  0.92116898844E+02 0.  0.
         13    1    3    3    0    0 -0.87018790546E+01  0.39474643332E+02 -0.29003122609E+02  0.49751004516E+02  0.10566000000E+00 0.  1.
         22    1    1    0    0    0 -0.78056160196E+01  0.41865631293E+01  0.27222582271E+02  0.28627328513E+02  0.00000000000E+00 0.  1.
</event>
<event>
 5    1  0.1261138E-009  0.9118800E+02  0.7561462E-02  0.1125453E+00
         25   -1    0    0    0    0  0.00000000000E+00  0.00000000000E+00  0.99999998245E-14  0.12509000000E+03  0.12509000000E+03 0.  0.
        -13    1    3    3    0    0  0.56497316219E+01  0.24755070722E+01 -0.58799116728E+02  0.59121864777E+02  0.10566000000E+00 0.  1.
         23    2    1    0    0    0 -0.11986992183E+02  0.12561808147E+01 -0.27407737691E+02  0.95149224172E+02  0.90315695221E+02 0.  0.
         13    1    3    3    0    0 -0.17636723805E+02 -0.12193262575E+01  0.31391379037E+02  0.36027359395E+02  0.10566000000E+00 0. -1.
         22    1    1    0    0    0  0.11986992183E+02 -0.12561808147E+01  0.27407737691E+02  0.29940775828E+02  0.00000000000E+00 0.  1.
</event>
<event>
 5    1  0.1261138E-009  0.9118800E+02  0.7561462E-02  0.1125453E+00
         25   -1    0    0    0    0  0.00000000000E+00  0.00000000000E+00  0.99999998245E-14  0.12509000000E+03  0.12509000000E+03 0.  0.
        -13    1    3    3    0    0  0.48144619873E+02  0.23987278253E+02  0.52304517084E+01  0.54043156180E+02  0.10566000000E+00 0.  1.
         23    2    1    0    0    0  0.19705287634E+02 -0.87084855658E+00  0.22149134560E+02  0.95431259303E+02  0.90705481380E+02 0.  0.
         13    1    3    3    0    0 -0.28439332239E+02 -0.24858126810E+02  0.16918682852E+02  0.41388103124E+02  0.10566000000E+00 0. -1.
         22    1    1    0    0    0 -0.19705287634E+02  0.87084855658E+00 -0.22149134560E+02  0.29658740697E+02  0.00000000000E+00 0.  1.
</event>
<event>
 5    1  0.1261138E-009  0.9118800E+02  0.7561462E-02  0.1125453E+00
         25   -1    0    0    0    0  0.00000000000E+00  0.00000000000E+00  0.99999998245E-14  0.12509000000E+03  0.12509000000E+03 0.  0.
        -13    1    3    3    0    0  0.49073223045E+02  0.28047375765E+02 -0.16596671800E+02  0.58909228362E+02  0.10566000000E+00 0. -1.
         23    2    1    0    0    0  0.29492404619E+02  0.94935014833E+01  0.53052970167E+01  0.93656344834E+02  0.88223785062E+02 0.  0.
         13    1    3    3    0    0 -0.19580818426E+02 -0.18553874282E+02  0.21901968816E+02  0.34747116472E+02  0.10566000000E+00 0.  1.
         22    1    1    0    0    0 -0.29492404619E+02 -0.94935014833E+01 -0.53052970167E+01  0.31433655166E+02  0.00000000000E+00 0. -1.
</event>
<event>
 5    1  0.1261138E-009  0.9118800E+02  0.7561462E-02  0.1125453E+00
         25   -1    0    0    0    0  0.00000000000E+00  0.00000000000E+00  0.99999998245E-14  0.12509000000E+03  0.12509000000E+03 0.  0.
        -13    1    3    3    0    0  0.98819620009E+01 -0.26137405363E+02  0.18070376856E+02  0.33277121508E+02  0.10566000000E+00 0. -1.
         23    2    1    0    0    0  0.28425512481E+01  0.29489728097E+02 -0.69219459814E+01  0.94665708767E+02  0.89643510191E+02 0.  0.
         13    1    3    3    0    0 -0.70394107528E+01  0.55627133461E+02 -0.24992322837E+02  0.61388587259E+02  0.10566000000E+00 0.  1.
         22    1    1    0    0    0 -0.28425512481E+01 -0.29489728097E+02  0.69219459814E+01  0.30424291233E+02  0.00000000000E+00 0.  1.
</event>
<event>
 5    1  0.1261138E-009  0.9118800E+02  0.7561462E-02  0.1125453E+00
         25   -1    0    0    0    0  0.00000000000E+00  0.00000000000E+00  0.99999998245E-14  0.12509000000E+03  0.12509000000E+03 0.  0.
        -13    1    3    3    0    0  0.28033150968E+02 -0.10667306356E+02  0.47417862040E+01  0.30366835174E+02  0.10566000000E+00 0.  1.
         23    2    1    0    0    0 -0.26065738556E+02 -0.22582651796E+02 -0.12536358465E+02  0.88394507468E+02  0.80417844900E+02 0.  0.
         13    1    3    3    0    0 -0.54098889523E+02 -0.11915345441E+02 -0.17278144669E+02  0.58027672294E+02  0.10566000000E+00 0. -1.
         22    1    1    0    0    0  0.26065738556E+02  0.22582651796E+02  0.12536358465E+02  0.36695492532E+02  0.00000000000E+00 0. -1.
</event>
<event>
 5    1  0.1261138E-009  0.9118800E+02  0.7561462E-02  0.1125453E+00
         25   -1    0    0    0    0  0.00000000000E+00  0.00000000000E+00  0.99999998245E-14  0.12509000000E+03  0.12509000000E+03 0.  0.
        -13    1    3    3    0    0 -0.61017450311E+02 -0.36176966474E+01 -0.34363750904E+01  0.61221212086E+02  0.10566000000E+00 0.  1.
         23    2    1    0    0    0 -0.26729618840E+02  0.32275068086E+01  0.61430016215E+01  0.97474319808E+02  0.93480571402E+02 0.  0.
         13    1    3    3    0    0  0.34287831470E+02  0.68452034559E+01  0.95793767119E+01  0.36253107722E+02  0.10566000000E+00 0. -1.
         22    1    1    0    0    0  0.26729618840E+02 -0.32275068086E+01 -0.61430016215E+01  0.27615680192E+02  0.00000000000E+00 0.  1.
</event>
<event>
 5    1  0.1261138E-009  0.9118800E+02  0.7561462E-02  0.1125453E+00
         25   -1    0    0    0    0  0.00000000000E+00  0.00000000000E+00  0.99999998245E-14  0.12509000000E+03  0.12509000000E+03 0.  0.
        -13    1    3    3    0    0 -0.13075241796E+02  0.48654345183E+01  0.31761220156E+02  0.34690354148E+02  0.10566000000E+00 0.  1.
         23    2    1    0    0    0 -0.85642348837E+00  0.25128556364E+02 -0.20881423049E+02  0.92406492926E+02  0.86433490617E+02 0.  0.
         13    1    3    3    0    0  0.12218818308E+02  0.20263121845E+02 -0.52642643205E+02  0.57716138778E+02  0.10566000000E+00 0. -1.
         22    1    1    0    0    0  0.85642348837E+00 -0.25128556364E+02  0.20881423049E+02  0.32683507074E+02  0.00000000000E+00 0. -1.
</event>
<event>
 5    1  0.1261138E-009  0.9118800E+02  0.7561462E-02  0.1125453E+00
         25   -1    0    0    0    0  0.00000000000E+00  0.00000000000E+00  0.99999998245E-14  0.12509000000E+03  0.12509000000E+03 0.  0.
        -13    1    3    3    0    0  0.41167879205E+02 -0.34071522820E+02 -0.26840233931E+02  0.59800269791E+02  0.10566000000E+00 0.  1.
         23    2    1    0    0    0  0.20001150902E+02 -0.66399331648E+01 -0.21721760088E+02  0.94825010141E+02  0.89865526967E+02 0.  0.
         13    1    3    3    0    0 -0.21166728303E+02  0.27431589656E+02  0.51184738432E+01  0.35024740350E+02  0.10566000000E+00 0. -1.
         22    1    1    0    0    0 -0.20001150902E+02  0.66399331648E+01  0.21721760088E+02  0.30264989859E+02  0.00000000000E+00 0.  1.
</event>
<event>
 5    1  0.1261138E-009  0.9118800E+02  0.7561462E-02  0.1125453E+00
         25   -1    0    0    0    0  0.00000000000E+00  0.00000000000E+00  0.99999998245E-14  0.12509000000E+03  0.12509000000E+03 0.  0.
        -13    1    3    3    0    0  0.14755380482E+02  0.30207119984E+02  0.10504521301E+02  0.35221406598E+02  0.10566000000E+00 0. -1.
         23    2    1    0    0    0  0.85778561956E+01 -0.23838340415E+02 -0.15368385182E+02  0.95458372408E+02  0.90742864783E+02 0.  0.
         13    1    3    3    0    0 -0.61775242868E+01 -0.54045460399E+02 -0.25872906484E+02  0.60236965810E+02  0.10566000000E+00 0.  1.
         22    1    1    0    0    0 -0.85778561956E+01  0.23838340415E+02  0.15368385182E+02  0.29631627592E+02  0.00000000000E+00 0.  1.
</event>
<event>
 5    1  0.1261138E-009  0.9118800E+02  0.7561462E-02  0.1125453E+00
         25   -1    0    0    0    0  0.00000000000E+00  0.00000000000E+00  0.99999998245E-14  0.12509000000E+03  0.12509000000E+03 0.  0.
        -13    1    3    3    0    0  0.16960154156E+02  0.43945817100E+01 -0.53492105613E+02  0.56288326537E+02  0.10566000000E+00 0.  1.
         23    2    1    0    0    0  0.23568223229E+02 -0.70116998917E+01 -0.16712613390E+02  0.95358929924E+02  0.90605678566E+02 0.  0.
         13    1    3    3    0    0  0.66080690733E+01 -0.11406281602E+02  0.36779492223E+02  0.39070603388E+02  0.10566000000E+00 0. -1.
         22    1    1    0    0    0 -0.23568223229E+02  0.70116998917E+01  0.16712613390E+02  0.29731070076E+02  0.00000000000E+00 0.  1.
</event>
<event>
 5    1  0.1261138E-009  0.9118800E+02  0.7561462E-02  0.1125453E+00
         25   -1    0    0    0    0  0.00000000000E+00  0.00000000000E+00  0.99999998245E-14  0.12509000000E+03  0.12509000000E+03 0.  0.
        -13    1    3    3    0    0  0.37977475154E+02  0.22827808364E+01  0.70312166186E+01  0.38690423603E+02  0.10566000000E+00 0. -1.
         23    2    1    0    0    0 -0.19387650316E+02 -0.44708703812E+01 -0.14644657997E+02  0.10038502733E+03  0.97297574676E+02 0.  0.
         13    1    3    3    0    0 -0.57365125469E+02 -0.67536512175E+01 -0.21675874615E+02  0.61694603729E+02  0.10566000000E+00 0.  1.
         22    1    1    0    0    0  0.19387650316E+02  0.44708703812E+01  0.14644657997E+02  0.24704972669E+02  0.00000000000E+00 0.  1.
</event>
<event>
 5    1  0.1261138E-009  0.9118800E+02  0.7561462E-02  0.1125453E+00
         25   -1    0    0    0    0  0.00000000000E+00  0.00000000000E+00  0.99999998245E-14  0.12509000000E+03  0.12509000000E+03 0.  0.
        -13    1    3    3    0    0 -0.31485912786E+02 -0.90805913155E+01  0.21969704595E+02  0.39452489486E+02  0.10566000000E+00 0. -1.
         23    2    1    0    0    0  0.13512168593E+01 -0.15552714502E+02 -0.24087395558E+02  0.96386074482E+02  0.92012825268E+02 0.  0.
         13    1    3    3    0    0  0.32837129645E+02 -0.64721231867E+01 -0.46057100153E+02  0.56933584996E+02  0.10566000000E+00 0.  1.
         22    1    1    0    0    0 -0.13512168593E+01  0.15552714502E+02  0.24087395558E+02  0.28703925518E+02  0.00000000000E+00 0.  1.
</event>
<event>
 5    1  0.1261138E-009  0.9118800E+02  0.7561462E-02  0.1125453E+00
         25   -1    0    0    0    0  0.00000000000E+00  0.00000000000E+00  0.99999998245E-14  0.12509000000E+03  0.12509000000E+03 0.  0.
        -13    1    3    3    0    0  0.74266182957E+01  0.40169314821E+02 -0.15212396017E+02  0.43590786516E+02  0.10566000000E+00 0.  1.
         23    2    1    0    0    0  0.25209470611E+02  0.49771595191E+01  0.16808127956E+02  0.94384907739E+02  0.89250815784E+02 0.  0.
         13    1    3    3    0    0  0.17782852315E+02 -0.35192155302E+02  0.32020523973E+02  0.50794121223E+02  0.10566000000E+00 0. -1.
         22    1    1    0    0    0 -0.25209470611E+02 -0.49771595191E+01 -0.16808127956E+02  0.30705092261E+02  0.00000000000E+00 0.  1.
</event>
<event>
 5    1  0.1261138E-009  0.9118800E+02  0.7561462E-02  0.1125453E+00
         25   -1    0    0    0    0  0.00000000000E+00  0.00000000000E+00  0.99999998245E-14  0.12509000000E+03  0.12509000000E+03 0.  0.
        -13    1    3    3    0    0 -0.95583046320E+01  0.58146593122E+02  0.23499778418E+01  0.58973901338E+02  0.10566000000E+00 0. -1.
         23    2    1    0    0    0 -0.14091536347E+02  0.35090074354E+02  0.13441481610E+02  0.84958240225E+02  0.74882203756E+02 0.  0.
         13    1    3    3    0    0 -0.45332317149E+01 -0.23056518768E+02  0.11091503768E+02  0.25984338886E+02  0.10566000000E+00 0.  1.
         22    1    1    0    0    0  0.14091536347E+02 -0.35090074354E+02 -0.13441481610E+02  0.40131759775E+02  0.00000000000E+00 0. -1.
</event>
<event>
 5    1  0.1261138E-009  0.9118800E+02  0.7561462E-02  0.1125453E+00
         25   -1    0    0    0    0  0.00000000000E+00  0.00000000000E+00  0.99999998245E-14  0.12509000000E+03  0.12509000000E+03 0.  0.
        -13    1    3    3    0    0 -0.47976906443E+00  0.33951980372E+02  0.20960707696E+02  0.39904004570E+02  0.10566000000E+00 0.  1.
         23    2    1    0    0    0 -0.22417950967E+02 -0.16122068371E+02  0.37186823408E+01  0.97227584231E+02  0.93149819768E+02 0.  0.
         13    1    3    3    0    0 -0.21938181903E+02 -0.50074048743E+02 -0.17242025355E+02  0.57323579661E+02  0.10566000000E+00 0. -1.
         22    1    1    0    0    0  0.22417950967E+02  0.16122068371E+02 -0.37186823408E+01  0.27862415769E+02  0.00000000000E+00 0. -1.
</event>
<event>
 5    1  0.1261138E-009  0.9118800E+02  0.7561462E-02  0.1125453E+00
         25   -1    0    0    0    0  0.00000000000E+00  0.00000000000E+00  0.99999998245E-14  0.12509000000E+03  0.12509000000E+03 0.  0.
        -13    1    3    3    0    0  0.35479684552E+01 -0.34234605967E+02  0.12009432456E+02  0.36453174866E+02  0.10566000000E+00 0.  1.
         23    2    1    0    0    0  0.11641313344E+02  0.16014216744E+02  0.28882110618E+02  0.90073552035E+02  0.82988512146E+02 0.  0.
         13    1    3    3    0    0  0.80933448885E+01  0.50248822711E+02  0.16872678163E+02  0.53620377169E+02  0.10566000000E+00 0. -1.
         22    1    1    0    0    0 -0.11641313344E+02 -0.16014216744E+02 -0.28882110618E+02  0.35016447965E+02  0.00000000000E+00 0. -1.
</event>
<event>
 5    1  0.1261138E-009  0.9118800E+02  0.7561462E-02  0.1125453E+00
         25   -1    0    0    0    0  0.00000000000E+00  0.00000000000E+00  0.99999998245E-14  0.12509000000E+03  0.12509000000E+03 0.  0.
        -13    1    3    3    0    0 -0.51439109812E+01  0.36637176698E+02 -0.36216876802E+02  0.51772732842E+02  0.10566000000E+00 0. -1.
         23    2    1    0    0    0 -0.24170196305E+02  0.25514058539E+01 -0.17972225876E+02  0.94862380772E+02  0.89917530668E+02 0.  0.
         13    1    3    3    0    0 -0.19026285324E+02 -0.34085770844E+02  0.18244650926E+02  0.43089647930E+02  0.10566000000E+00 0.  1.
         22    1    1    0    0    0  0.24170196305E+02 -0.25514058539E+01  0.17972225876E+02  0.30227619228E+02  0.00000000000E+00 0.  1.
</event>
<event>
 5    1  0.1261138E-009  0.9118800E+02  0.7561462E-02  0.1125453E+00
         25   -1    0    0    0    0  0.00000000000E+00  0.00000000000E+00  0.99999998245E-14  0.12509000000E+03  0.12509000000E+03 0.  0.
        -13    1    3    3    0    0 -0.22986850941E+02 -0.13451991095E+02  0.49753579521E+02  0.56433865894E+02  0.10566000000E+00 0. -1.
         23    2    1    0    0    0  0.81326334331E+01 -0.27170907101E+01  0.27789440506E+02  0.96007783577E+02  0.91497099381E+02 0.  0.
         13    1    3    3    0    0  0.31119484374E+02  0.10734900385E+02 -0.21964139015E+02  0.39573917682E+02  0.10566000000E+00 0.  1.
         22    1    1    0    0    0 -0.81326334331E+01  0.27170907101E+01 -0.27789440506E+02  0.29082216423E+02  0.00000000000E+00 0. -1.
</event>
<event>
 5    1  0.1261138E-009  0.9118800E+02  0.7561462E-02  0.1125453E+00
         25   -1    0    0    0    0  0.00000000000E+00  0.00000000000E+00  0.99999998245E-14  0.12509000000E+03  0.12509000000E+03 0.  0.
        -13    1    3    3    0    0 -0.14653700558E+02 -0.27584460863E+02 -0.14087512872E+02  0.34265180637E+02  0.10566000000E+00 0. -1.
         23    2    1    0    0    0  0.58481106280E+01  0.28966015497E+02 -0.56069764584E+01  0.95012290036E+02  0.90125837700E+02 0.  0.
         13    1    3    3    0    0  0.20501811186E+02  0.56550476360E+02  0.84805364132E+01  0.60747109399E+02  0.10566000000E+00 0.  1.
         22    1    1    0    0    0 -0.58481106280E+01 -0.28966015497E+02  0.56069764584E+01  0.30077709964E+02  0.00000000000E+00 0.  1.
</event>
<event>
 5    1  0.1261138E-009  0.9118800E+02  0.7561462E-02  0.1125453E+00
         25   -1    0    0    0    0  0.00000000000E+00  0.00000000000E+00  0.99999998245E-14  0.12509000000E+03  0.12509000000E+03 0.  0.
        -13    1    3    3    0    0 -0.43921743255E+02  0.12694054169E+01  0.37551534935E+02  0.57800171805E+02  0.10566000000E+00 0. -1.
         23    2    1    0    0    0 -0.83953921559E+01 -0.40694753685E+01  0.28856380205E+02  0.94762884776E+02  0.89779008757E+02 0.  0.
         13    1    3    3    0    0  0.35526351099E+02 -0.53388807854E+01 -0.86951547295E+01  0.36962712972E+02  0.10566000000E+00 0.  1.
         22    1    1    0    0    0  0.83953921559E+01  0.40694753685E+01 -0.28856380205E+02  0.30327115224E+02  0.00000000000E+00 0. -1.
</event>
<event>
 5    1  0.1261138E-009  0.9118800E+02  0.7561462E-02  0.1125453E+00
         25   -1    0    0    0    0  0.00000000000E+00  0.00000000000E+00  0.99999998245E-14  0.12509000000E+03  0.12509000000E+03 0.  0.
        -13    1    3    3    0    0 -0.27539160778E+02 -0.55612574227E+01 -0.36609637612E+02  0.46147694315E+02  0.10566000000E+00 0. -1.
         23    2    1    0    0    0  0.17267725478E+02 -0.12924343993E+02 -0.23016984523E+02  0.93546465205E+02  0.88067852051E+02 0.  0.
         13    1    3    3    0    0  0.44806886257E+02 -0.73630865700E+01  0.13592653089E+02  0.47398770890E+02  0.10566000000E+00 0.  1.
         22    1    1    0    0    0 -0.17267725478E+02  0.12924343993E+02  0.23016984523E+02  0.31543534795E+02  0.00000000000E+00 0.  1.
</event>
<event>
 5    1  0.1261138E-009  0.9118800E+02  0.7561462E-02  0.1125453E+00
         25   -1    0    0    0    0  0.00000000000E+00  0.00000000000E+00  0.99999998245E-14  0.12509000000E+03  0.12509000000E+03 0.  0.
        -13    1    3    3    0    0 -0.39064952227E+02  0.45671197030E+02  0.41664112389E+00  0.60100860930E+02  0.10566000000E+00 0.  1.
         23    2    1    0    0    0 -0.18690681271E+02  0.26162945692E+02  0.12238764865E+02  0.90686095293E+02  0.83906729292E+02 0.  0.
         13    1    3    3    0    0  0.20374270956E+02 -0.19508251338E+02  0.11822123741E+02  0.30585234363E+02  0.10566000000E+00 0. -1.
         22    1    1    0    0    0  0.18690681271E+02 -0.26162945692E+02 -0.12238764865E+02  0.34403904707E+02  0.00000000000E+00 0.  1.
</event>
<event>
 5    1  0.1261138E-009  0.9118800E+02  0.7561462E-02  0.1125453E+00
         25   -1    0    0    0    0  0.00000000000E+00  0.00000000000E+00  0.99999998245E-14  0.12509000000E+03  0.12509000000E+03 0.  0.
        -13    1    3    3    0    0 -0.38803550791E+02  0.39943642164E+02  0.10329784766E+02  0.56638553306E+02  0.10566000000E+00 0. -1.
         23    2    1    0    0    0 -0.10453728710E+02  0.21986666915E+02  0.22108448750E+02  0.92204175210E+02  0.86140190701E+02 0.  0.
         13    1    3    3    0    0  0.28349822081E+02 -0.17956975249E+02  0.11778663984E+02  0.35565621903E+02  0.10566000000E+00 0.  1.
         22    1    1    0    0    0  0.10453728710E+02 -0.21986666915E+02 -0.22108448750E+02  0.32885824790E+02  0.00000000000E+00 0. -1.
</event>
<event>
 5    1  0.1261138E-009  0.9118800E+02  0.7561462E-02  0.1125453E+00
         25   -1    0    0    0    0  0.00000000000E+00  0.00000000000E+00  0.99999998245E-14  0.12509000000E+03  0.12509000000E+03 0.  0.
        -13    1    3    3    0    0 -0.27414294910E+02  0.27456640309E+02  0.26308696104E+01  0.38888858320E+02  0.10566000000E+00 0.  1.
         23    2    1    0    0    0  0.20913101514E+02  0.10665016798E+02 -0.19442128905E+02  0.94608911198E+02  0.89564218879E+02 0.  0.
         13    1    3    3    0    0  0.48327396424E+02 -0.16791623511E+02 -0.22072998515E+02  0.55720052878E+02  0.10566000000E+00 0. -1.
         22    1    1    0    0    0 -0.20913101514E+02 -0.10665016798E+02  0.19442128905E+02  0.30481088802E+02  0.00000000000E+00 0. -1.
</event>
<event>
 5    1  0.1261138E-009  0.9118800E+02  0.7561462E-02  0.1125453E+00
         25   -1    0    0    0    0  0.00000000000E+00  0.00000000000E+00  0.99999998245E-14  0.12509000000E+03  0.12509000000E+03 0.  0.
        -13    1    3    3    0    0  0.92965227638E+01 -0.42637633424E+01  0.61061932153E+02  0.61912646007E+02  0.10566000000E+00 0.  1.
         23    2    1    0    0    0  0.10526293012E+02 -0.29163852928E+01  0.27852941675E+02  0.95171869917E+02  0.90347054826E+02 0.  0.
         13    1    3    3    0    0  0.12297702478E+01  0.13473780496E+01 -0.33208990478E+02  0.33259223910E+02  0.10566000000E+00 0. -1.
         22    1    1    0    0    0 -0.10526293012E+02  0.29163852928E+01 -0.27852941675E+02  0.29918130083E+02  0.00000000000E+00 0.  1.
</event>
<event>
 5    1  0.1261138E-009  0.9118800E+02  0.7561462E-02  0.1125453E+00
         25   -1    0    0    0    0  0.00000000000E+00  0.00000000000E+00  0.99999998245E-14  0.12509000000E+03  0.12509000000E+03 0.  0.
        -13    1    3    3    0    0 -0.56173758303E+01 -0.28739719952E+02  0.22026913534E+02  0.36643178056E+02  0.10566000000E+00 0.  1.
         23    2    1    0    0    0 -0.19341236079E+02  0.16895302255E+02 -0.13494019754E+02  0.96079256809E+02  0.91594761688E+02 0.  0.
         13    1    3    3    0    0 -0.13723860249E+02  0.45635022207E+02 -0.35520933288E+02  0.59436078754E+02  0.10566000000E+00 0. -1.
         22    1    1    0    0    0  0.19341236079E+02 -0.16895302255E+02  0.13494019754E+02  0.29010743191E+02  0.00000000000E+00 0. -1.
</event>
<event>
 5    1  0.1261138E-009  0.9118800E+02  0.7561462E-02  0.1125453E+00
         25   -1    0    0    0    0  0.00000000000E+00  0.00000000000E+00  0.99999998245E-14  0.12509000000E+03  0.12509000000E+03 0.  0.
        -13    1    3    3    0    0  0.18786264063E+02 -0.10637711971E+02 -0.14641168701E+02  0.26085620912E+02  0.10566000000E+00 0. -1.
         23    2    1    0    0    0 -0.12342466559E+02  0.37442670152E+02 -0.13641860346E+02  0.83372013680E+02  0.72183809005E+02 0.  0.
         13    1    3    3    0    0 -0.31128730621E+02  0.48080382123E+02  0.99930835481E+00  0.57286392768E+02  0.10566000000E+00 0.  1.
         22    1    1    0    0    0  0.12342466559E+02 -0.37442670152E+02  0.13641860346E+02  0.41717986320E+02  0.00000000000E+00 0.  1.
</event>
<event>
 5    1  0.1261138E-009  0.9118800E+02  0.7561462E-02  0.1125453E+00
         25   -1    0    0    0    0  0.00000000000E+00  0.00000000000E+00  0.99999998245E-14  0.12509000000E+03  0.12509000000E+03 0.  0.
        -13    1    3    3    0    0  0.19193809853E+02 -0.51987691268E+02 -0.22858447216E+02  0.59946994530E+02  0.10566000000E+00 0. -1.
         23    2    1    0    0    0 -0.14474728907E+01 -0.21966149285E+02 -0.17902567542E+02  0.96715560503E+02  0.92459671352E+02 0.  0.
         13    1    3    3    0    0 -0.20641282744E+02  0.30021541983E+02  0.49558796734E+01  0.36768565973E+02  0.10566000000E+00 0.  1.
         22    1    1    0    0    0  0.14474728907E+01  0.21966149285E+02  0.17902567542E+02  0.28374439497E+02  0.00000000000E+00 0. -1.
</event>
<event>
 5    1  0.1261138E-009  0.9118800E+02  0.7561462E-02  0.1125453E+00
         25   -1    0    0    0    0  0.00000000000E+00  0.00000000000E+00  0.99999998245E-14  0.12509000000E+03  0.12509000000E+03 0.  0.
        -13    1    3    3    0    0  0.59793244641E+01  0.50495022305E+02  0.17194344315E+02  0.53676403001E+02  0.10566000000E+00 0. -1.
         23    2    1    0    0    0 -0.60896928638E+01  0.27279260526E+02 -0.13533411794E+02  0.94035279766E+02  0.88759440016E+02 0.  0.
         13    1    3    3    0    0 -0.12069017328E+02 -0.23215761780E+02 -0.30727756109E+02  0.40358876766E+02  0.10566000000E+00 0.  1.
         22    1    1    0    0    0  0.60896928638E+01 -0.27279260526E+02  0.13533411794E+02  0.31054720234E+02  0.00000000000E+00 0. -1.
</event>
<event>
 5    1  0.1261138E-009  0.9118800E+02  0.7561462E-02  0.1125453E+00
         25   -1    0    0    0    0  0.00000000000E+00  0.00000000000E+00  0.99999998245E-14  0.12509000000E+03  0.12509000000E+03 0.  0.
        -13    1    3    3    0    0  0.11692950733E+02  0.13392726922E+02  0.34119435655E+02  0.38473851961E+02  0.10566000000E+00 0. -1.
         23    2    1    0    0    0 -0.52751815738E+01  0.20701792758E+02 -0.20101636206E+02  0.95756272958E+02  0.91152598803E+02 0.  0.
         13    1    3    3    0    0 -0.16968132307E+02  0.73090658361E+01 -0.54221071861E+02  0.57282420997E+02  0.10566000000E+00 0.  1.
         22    1    1    0    0    0  0.52751815738E+01 -0.20701792758E+02  0.20101636206E+02  0.29333727042E+02  0.00000000000E+00 0.  1.
</event>
<event>
 5    1  0.1261138E-009  0.9118800E+02  0.7561462E-02  0.1125453E+00
         25   -1    0    0    0    0  0.00000000000E+00  0.00000000000E+00  0.99999998245E-14  0.12509000000E+03  0.12509000000E+03 0.  0.
        -13    1    3    3    0    0 -0.21223653364E+02  0.34304349162E+02  0.45303399806E+01  0.40592696116E+02  0.10566000000E+00 0. -1.
         23    2    1    0    0    0  0.11468889483E+02  0.14007048084E+01 -0.26351626183E+02  0.96316651178E+02  0.91918396916E+02 0.  0.
         13    1    3    3    0    0  0.32692542847E+02 -0.32903644354E+02 -0.30881966164E+02  0.55723955062E+02  0.10566000000E+00 0.  1.
         22    1    1    0    0    0 -0.11468889483E+02 -0.14007048084E+01  0.26351626183E+02  0.28773348822E+02  0.00000000000E+00 0.  1.
</event>
<event>
 5    1  0.1261138E-009  0.9118800E+02  0.7561462E-02  0.1125453E+00
         25   -1    0    0    0    0  0.00000000000E+00  0.00000000000E+00  0.99999998245E-14  0.12509000000E+03  0.12509000000E+03 0.  0.
        -13    1    3    3    0    0  0.18984026318E+02 -0.13428405280E+02 -0.23632107966E+02  0.33154230719E+02  0.10566000000E+00 0. -1.
         23    2    1    0    0    0  0.12356801924E+01  0.28525183908E+02  0.14958957300E+02  0.92856734171E+02  0.87082659898E+02 0.  0.
         13    1    3    3    0    0 -0.17748346126E+02  0.41953589188E+02  0.38591065266E+02  0.59702503452E+02  0.10566000000E+00 0.  1.
         22    1    1    0    0    0 -0.12356801924E+01 -0.28525183908E+02 -0.14958957300E+02  0.32233265829E+02  0.00000000000E+00 0.  1.
</event>
<event>
 5    1  0.1261138E-009  0.9118800E+02  0.7561462E-02  0.1125453E+00
         25   -1    0    0    0    0  0.00000000000E+00  0.00000000000E+00  0.99999998245E-14  0.12509000000E+03  0.12509000000E+03 0.  0.
        -13    1    3    3    0    0 -0.47575065231E+01 -0.25543678616E+02  0.26280562553E+02  0.36956630226E+02  0.10566000000E+00 0. -1.
         23    2    1    0    0    0 -0.12351369653E+02  0.26475441618E+02 -0.31877078595E+00  0.95873447226E+02  0.91313257126E+02 0.  0.
         13    1    3    3    0    0 -0.75938631297E+01  0.52019120235E+02 -0.26599333338E+02  0.58916816999E+02  0.10566000000E+00 0.  1.
         22    1    1    0    0    0  0.12351369653E+02 -0.26475441618E+02  0.31877078595E+00  0.29216552774E+02  0.00000000000E+00 0.  1.
</event>
<event>
 5    1  0.1261138E-009  0.9118800E+02  0.7561462E-02  0.1125453E+00
         25   -1    0    0    0    0  0.00000000000E+00  0.00000000000E+00  0.99999998245E-14  0.12509000000E+03  0.12509000000E+03 0.  0.
        -13    1    3    3    0    0 -0.39734208951E+02 -0.38856125164E+02 -0.53412726178E+01  0.55831408552E+02  0.10566000000E+00 0.  1.
         23    2    1    0    0    0 -0.16672738147E+01 -0.27783927239E+02  0.50185449701E+01  0.96807280746E+02  0.92583677811E+02 0.  0.
         13    1    3    3    0    0  0.38066935136E+02  0.11072197925E+02  0.10359817588E+02  0.40975872194E+02  0.10566000000E+00 0. -1.
         22    1    1    0    0    0  0.16672738147E+01  0.27783927239E+02 -0.50185449701E+01  0.28282719254E+02  0.00000000000E+00 0.  1.
</event>
<event>
 5    1  0.1261138E-009  0.9118800E+02  0.7561462E-02  0.1125453E+00
         25   -1    0    0    0    0  0.00000000000E+00  0.00000000000E+00  0.99999998245E-14  0.12509000000E+03  0.12509000000E+03 0.  0.
        -13    1    3    3    0    0  0.14706619889E+02  0.15025258169E+02  0.57197343702E+02  0.60939234835E+02  0.10566000000E+00 0.  1.
         23    2    1    0    0    0  0.15537846723E+02  0.10910076220E+02  0.23585389438E+02  0.94812532490E+02  0.89848156788E+02 0.  0.
         13    1    3    3    0    0  0.83122683397E+00 -0.41151819491E+01 -0.33611954264E+02  0.33873297655E+02  0.10566000000E+00 0. -1.
         22    1    1    0    0    0 -0.15537846723E+02 -0.10910076220E+02 -0.23585389438E+02  0.30277467510E+02  0.00000000000E+00 0.  1.
</event>
<event>
 5    1  0.1261138E-009  0.9118800E+02  0.7561462E-02  0.1125453E+00
         25   -1    0    0    0    0  0.00000000000E+00  0.00000000000E+00  0.99999998245E-14  0.12509000000E+03  0.12509000000E+03 0.  0.
        -13    1    3    3    0    0  0.21771979930E+02  0.12332373345E+01  0.29443529531E+02  0.36639767735E+02  0.10566000000E+00 0.  1.
         23    2    1    0    0    0 -0.15288280749E+02  0.20028045016E+02 -0.13590966448E+02  0.96461893454E+02  0.92115842309E+02 0.  0.
         13    1    3    3    0    0 -0.37060260679E+02  0.18794807682E+02 -0.43034495979E+02  0.59822125719E+02  0.10566000000E+00 0. -1.
         22    1    1    0    0    0  0.15288280749E+02 -0.20028045016E+02  0.13590966448E+02  0.28628106546E+02  0.00000000000E+00 0. -1.
</event>
<event>
 5    1  0.1261138E-009  0.9118800E+02  0.7561462E-02  0.1125453E+00
         25   -1    0    0    0    0  0.00000000000E+00  0.00000000000E+00  0.99999998245E-14  0.12509000000E+03  0.12509000000E+03 0.  0.
        -13    1    3    3    0    0 -0.20196842319E+01 -0.46702032492E+02 -0.26354337395E+02  0.53663034082E+02  0.10566000000E+00 0. -1.
         23    2    1    0    0    0 -0.99865884858E+01 -0.54538573898E+01 -0.27118885363E+02  0.95680640039E+02  0.91048747520E+02 0.  0.
         13    1    3    3    0    0 -0.79669042539E+01  0.41248175103E+02 -0.76454796734E+00  0.42017605957E+02  0.10566000000E+00 0.  1.
         22    1    1    0    0    0  0.99865884858E+01  0.54538573898E+01  0.27118885363E+02  0.29409359961E+02  0.00000000000E+00 0.  1.
</event>
<event>
 5    1  0.1261138E-009  0.9118800E+02  0.7561462E-02  0.1125453E+00
         25   -1    0    0    0    0  0.00000000000E+00  0.00000000000E+00  0.99999998245E-14  0.12509000000E+03  0.12509000000E+03 0.  0.
        -13    1    3    3    0    0  0.32613819508E+01 -0.31907299741E+02 -0.36405085584E+02  0.48518592410E+02  0.10566000000E+00 0. -1.
         23    2    1    0    0    0 -0.94392346383E+01 -0.27599793978E+02  0.79498095370E+01  0.94856785652E+02  0.89909746604E+02 0.  0.
         13    1    3    3    0    0 -0.12700616589E+02  0.43075057632E+01  0.44354895121E+02  0.46338193242E+02  0.10566000000E+00 0.  1.
         22    1    1    0    0    0  0.94392346383E+01  0.27599793978E+02 -0.79498095370E+01  0.30233214348E+02  0.00000000000E+00 0. -1.
</event>
<event>
 5    1  0.1261138E-009  0.9118800E+02  0.7561462E-02  0.1125453E+00
         25   -1    0    0    0    0  0.00000000000E+00  0.00000000000E+00  0.99999998245E-14  0.12509000000E+03  0.12509000000E+03 0.  0.
        -13    1    3    3    0    0  0.36176674728E+02 -0.23611242511E+02 -0.44297174868E+02  0.61874820667E+02  0.10566000000E+00 0.  1.
         23    2    1    0    0    0  0.20100615876E+02 -0.54661324017E+01 -0.19404592826E+02  0.96621568629E+02  0.92332420847E+02 0.  0.
         13    1    3    3    0    0 -0.16076058852E+02  0.18145110110E+02  0.24892582042E+02  0.34746747961E+02  0.10566000000E+00 0. -1.
         22    1    1    0    0    0 -0.20100615876E+02  0.54661324017E+01  0.19404592826E+02  0.28468431371E+02  0.00000000000E+00 0.  1.
</event>
<event>
 5    1  0.1261138E-009  0.9118800E+02  0.7561462E-02  0.1125453E+00
         25   -1    0    0    0    0  0.00000000000E+00  0.00000000000E+00  0.99999998245E-14  0.12509000000E+03  0.12509000000E+03 0.  0.
        -13    1    3    3    0    0 -0.54030602151E+02 -0.19798682205E+01  0.18688605545E+02  0.57205777577E+02  0.10566000000E+00 0. -1.
         23    2    1    0    0    0 -0.22343144824E+02 -0.18386882163E+02  0.13110542859E+02  0.93322408175E+02  0.87749028355E+02 0.  0.
         13    1    3    3    0    0  0.31687457327E+02 -0.16407013943E+02 -0.55780626860E+01  0.36116630598E+02  0.10566000000E+00 0.  1.
         22    1    1    0    0    0  0.22343144824E+02  0.18386882163E+02 -0.13110542859E+02  0.31767591825E+02  0.00000000000E+00 0. -1.
</event>
<event>
 5    1  0.1261138E-009  0.9118800E+02  0.7561462E-02  0.1125453E+00
         25   -1    0    0    0    0  0.00000000000E+00  0.00000000000E+00  0.99999998245E-14  0.12509000000E+03  0.12509000000E+03 0.  0.
        -13    1    3    3    0    0  0.37862540729E+02 -0.14448291433E+02 -0.42445166917E+01  0.40747419572E+02  0.10566000000E+00 0.  1.
         23    2    1    0    0    0 -0.15932604841E+01 -0.18841238783E+02  0.27595404316E+02  0.91637988144E+02  0.85314030346E+02 0.  0.
         13    1    3    3    0    0 -0.39455801213E+02 -0.43929473492E+01  0.31839921008E+02  0.50890568572E+02  0.10566000000E+00 0. -1.
         22    1    1    0    0    0  0.15932604841E+01  0.18841238783E+02 -0.27595404316E+02  0.33452011856E+02  0.00000000000E+00 0.  1.
</event>
<event>
 5    1  0.1261138E-009  0.9118800E+02  0.7561462E-02  0.1125453E+00
         25   -1    0    0    0    0  0.00000000000E+00  0.00000000000E+00  0.99999998245E-14  0.12509000000E+03  0.12509000000E+03 0.  0.
        -13    1    3    3    0    0  0.18354892378E+02 -0.21546350370E+01 -0.37655188825E+02  0.41946024077E+02  0.10566000000E+00 0.  1.
         23    2    1    0    0    0  0.92958594871E+01 -0.26336642140E+02  0.94001605957E+01  0.95621461827E+02  0.90967407459E+02 0.  0.
         13    1    3    3    0    0 -0.90590328912E+01 -0.24182007103E+02  0.47055349421E+02  0.53675437750E+02  0.10566000000E+00 0. -1.
         22    1    1    0    0    0 -0.92958594871E+01  0.26336642140E+02 -0.94001605957E+01  0.29468538173E+02  0.00000000000E+00 0. -1.
</event>
<event>
 5    1  0.1261138E-009  0.9118800E+02  0.7561462E-02  0.1125453E+00
         25   -1    0    0    0    0  0.00000000000E+00  0.00000000000E+00  0.99999998245E-14  0.12509000000E+03  0.12509000000E+03 0.  0.
        -13    1    3    3    0    0  0.39888009136E+02 -0.72712406869E+01  0.52968115596E+01  0.40889993772E+02  0.10566000000E+00 0.  1.
         23    2    1    0    0    0  0.41009890476E+01  0.22482124363E+02 -0.20749141392E+02  0.94222688883E+02  0.89023166675E+02 0.  0.
         13    1    3    3    0    0 -0.35787020088E+02  0.29753365050E+02 -0.26045952952E+02  0.53332695111E+02  0.10566000000E+00 0. -1.
         22    1    1    0    0    0 -0.41009890476E+01 -0.22482124363E+02  0.20749141392E+02  0.30867311117E+02  0.00000000000E+00 0. -1.
</event>
<event>
 5    1  0.1261138E-009  0.9118800E+02  0.7561462E-02  0.1125453E+00
         25   -1    0    0    0    0  0.00000000000E+00  0.00000000000E+00  0.99999998245E-14  0.12509000000E+03  0.12509000000E+03 0.  0.
        -13    1    3    3    0    0 -0.14696984176E+02 -0.28792099529E+02 -0.45048121812E+02  0.55446648068E+02  0.10566000000E+00 0.  1.
         23    2    1    0    0    0  0.14520681641E+02 -0.14324651665E+02 -0.19548867334E+02  0.96837494718E+02  0.92624490976E+02 0.  0.
         13    1    3    3    0    0  0.29217665817E+02  0.14467447864E+02  0.25499254477E+02  0.41390846651E+02  0.10566000000E+00 0. -1.
         22    1    1    0    0    0 -0.14520681641E+02  0.14324651665E+02  0.19548867334E+02  0.28252505282E+02  0.00000000000E+00 0.  1.
</event>
<event>
 5    1  0.1261138E-009  0.9118800E+02  0.7561462E-02  0.1125453E+00
         25   -1    0    0    0    0  0.00000000000E+00  0.00000000000E+00  0.99999998245E-14  0.12509000000E+03  0.12509000000E+03 0.  0.
        -13    1    3    3    0    0  0.10076137335E+02 -0.20159105210E+02  0.37296953189E+02  0.43577424748E+02  0.10566000000E+00 0.  1.
         23    2    1    0    0    0  0.28758854768E+02 -0.62529057260E+01 -0.80694658153E+01  0.94573007420E+02  0.89514059770E+02 0.  0.
         13    1    3    3    0    0  0.18682717433E+02  0.13906199484E+02 -0.45366419004E+02  0.50995582672E+02  0.10566000000E+00 0. -1.
         22    1    1    0    0    0 -0.28758854768E+02  0.62529057260E+01  0.80694658153E+01  0.30516992580E+02  0.00000000000E+00 0. -1.
</event>
<event>
 5    1  0.1261138E-009  0.9118800E+02  0.7561462E-02  0.1125453E+00
         25   -1    0    0    0    0  0.00000000000E+00  0.00000000000E+00  0.99999998245E-14  0.12509000000E+03  0.12509000000E+03 0.  0.
        -13    1    3    3    0    0  0.36003293811E+02 -0.81810362234E+00  0.49215477197E+01  0.36347479345E+02  0.10566000000E+00 0.  1.
         23    2    1    0    0    0 -0.19711895923E+02  0.60554164789E+01 -0.18700201380E+02  0.97252535294E+02  0.93183320288E+02 0.  0.
         13    1    3    3    0    0 -0.55715189733E+02  0.68735201013E+01 -0.23621749099E+02  0.60905055949E+02  0.10566000000E+00 0. -1.
         22    1    1    0    0    0  0.19711895923E+02 -0.60554164789E+01  0.18700201380E+02  0.27837464706E+02  0.00000000000E+00 0. -1.
</event>
<event>
 5    1  0.1261138E-009  0.9118800E+02  0.7561462E-02  0.1125453E+00
         25   -1    0    0    0    0  0.00000000000E+00  0.00000000000E+00  0.99999998245E-14  0.12509000000E+03  0.12509000000E+03 0.  0.
        -13    1    3    3    0    0 -0.53982196313E+02 -0.53635470516E+01  0.20791890088E+02  0.58096118745E+02  0.10566000000E+00 0. -1.
         23    2    1    0    0    0 -0.26866099496E+02 -0.13787417655E+02 -0.24547890039E+01  0.94793033538E+02  0.89821005509E+02 0.  0.
         13    1    3    3    0    0  0.27116096817E+02 -0.84238706033E+01 -0.23246679092E+02  0.36696914793E+02  0.10566000000E+00 0.  1.
         22    1    1    0    0    0  0.26866099496E+02  0.13787417655E+02  0.24547890039E+01  0.30296966462E+02  0.00000000000E+00 0. -1.
</event>
<event>
 5    1  0.1261138E-009  0.9118800E+02  0.7561462E-02  0.1125453E+00
         25   -1    0    0    0    0  0.00000000000E+00  0.00000000000E+00  0.99999998245E-14  0.12509000000E+03  0.12509000000E+03 0.  0.
        -13    1    3    3    0    0  0.10049607347E+02  0.23308950336E+02 -0.32298759062E+01  0.25587986165E+02  0.10566000000E+00 0. -1.
         23    2    1    0    0    0 -0.13957704036E+02 -0.29372241290E+02 -0.21275436482E+02  0.86228833550E+02  0.76975460229E+02 0.  0.
         13    1    3    3    0    0 -0.24007311384E+02 -0.52681191626E+02 -0.18045560576E+02  0.60640847385E+02  0.10566000000E+00 0.  1.
         22    1    1    0    0    0  0.13957704036E+02  0.29372241290E+02  0.21275436482E+02  0.38861166450E+02  0.00000000000E+00 0.  1.
</event>
<event>
 5    1  0.1261138E-009  0.9118800E+02  0.7561462E-02  0.1125453E+00
         25   -1    0    0    0    0  0.00000000000E+00  0.00000000000E+00  0.99999998245E-14  0.12509000000E+03  0.12509000000E+03 0.  0.
        -13    1    3    3    0    0 -0.16443168989E+02  0.18765299168E+01  0.52912949939E+02  0.55440874869E+02  0.10566000000E+00 0.  1.
         23    2    1    0    0    0  0.65361841412E+01 -0.15098352948E+02  0.23069510365E+02  0.96754787395E+02  0.92512726749E+02 0.  0.
         13    1    3    3    0    0  0.22979353130E+02 -0.16974882865E+02 -0.29843439574E+02  0.41313912526E+02  0.10566000000E+00 0. -1.
         22    1    1    0    0    0 -0.65361841412E+01  0.15098352948E+02 -0.23069510365E+02  0.28335212605E+02  0.00000000000E+00 0.  1.
</event>
<event>
 5    1  0.1261138E-009  0.9118800E+02  0.7561462E-02  0.1125453E+00
         25   -1    0    0    0    0  0.00000000000E+00  0.00000000000E+00  0.99999998245E-14  0.12509000000E+03  0.12509000000E+03 0.  0.
        -13    1    3    3    0    0  0.22841900517E+02  0.12084628371E+01  0.27225250531E+02  0.35558940256E+02  0.10566000000E+00 0. -1.
         23    2    1    0    0    0 -0.34476061406E+01 -0.21763031207E+01 -0.27988722877E+02  0.96805889767E+02  0.92581798438E+02 0.  0.
         13    1    3    3    0    0 -0.26289506657E+02 -0.33847659579E+01 -0.55213973408E+02  0.61246949511E+02  0.10566000000E+00 0.  1.
         22    1    1    0    0    0  0.34476061406E+01  0.21763031207E+01  0.27988722877E+02  0.28284110233E+02  0.00000000000E+00 0.  1.
</event>
<event>
 5    1  0.1261138E-009  0.9118800E+02  0.7561462E-02  0.1125453E+00
         25   -1    0    0    0    0  0.00000000000E+00  0.00000000000E+00  0.99999998245E-14  0.12509000000E+03  0.12509000000E+03 0.  0.
        -13    1    3    3    0    0 -0.85335030401E+01 -0.15275794289E+01  0.38874922385E+02  0.39829950132E+02  0.10566000000E+00 0.  1.
         23    2    1    0    0    0 -0.85433789688E+01 -0.24371213900E+02 -0.12754102075E+02  0.96287005175E+02  0.91878043376E+02 0.  0.
         13    1    3    3    0    0 -0.98759287861E-02 -0.22843634471E+02 -0.51629024460E+02  0.56457055043E+02  0.10566000000E+00 0. -1.
         22    1    1    0    0    0  0.85433789688E+01  0.24371213900E+02  0.12754102075E+02  0.28802994825E+02  0.00000000000E+00 0. -1.
</event>
<event>
 5    1  0.1261138E-009  0.9118800E+02  0.7561462E-02  0.1125453E+00
         25   -1    0    0    0    0  0.00000000000E+00  0.00000000000E+00  0.99999998245E-14  0.12509000000E+03  0.12509000000E+03 0.  0.
        -13    1    3    3    0    0  0.12781324287E+02 -0.42087408646E+02  0.21617353066E+01  0.44038579457E+02  0.10566000000E+00 0.  1.
         23    2    1    0    0    0  0.14407973418E+02  0.16665119989E+02 -0.20531053042E+01  0.10296464885E+03  0.10055937425E+03 0.  0.
         13    1    3    3    0    0  0.16266491305E+01  0.58752528634E+02 -0.42148406109E+01  0.58926069390E+02  0.10566000000E+00 0. -1.
         22    1    1    0    0    0 -0.14407973418E+02 -0.16665119989E+02  0.20531053042E+01  0.22125351153E+02  0.00000000000E+00 0.  1.
</event>
<event>
 5    1  0.1261138E-009  0.9118800E+02  0.7561462E-02  0.1125453E+00
         25   -1    0    0    0    0  0.00000000000E+00  0.00000000000E+00  0.99999998245E-14  0.12509000000E+03  0.12509000000E+03 0.  0.
        -13    1    3    3    0    0  0.15313212631E+02  0.35516263474E+01  0.36851511138E+02  0.40064367809E+02  0.10566000000E+00 0.  1.
         23    2    1    0    0    0 -0.45160370120E+01 -0.24993392056E+02 -0.94771497113E+01  0.97981318671E+02  0.94156562199E+02 0.  0.
         13    1    3    3    0    0 -0.19829249643E+02 -0.28545018403E+02 -0.46328660849E+02  0.57916950862E+02  0.10566000000E+00 0. -1.
         22    1    1    0    0    0  0.45160370120E+01  0.24993392056E+02  0.94771497113E+01  0.27108681329E+02  0.00000000000E+00 0. -1.
</event>
<event>
 5    1  0.1261138E-009  0.9118800E+02  0.7561462E-02  0.1125453E+00
         25   -1    0    0    0    0  0.00000000000E+00  0.00000000000E+00  0.99999998245E-14  0.12509000000E+03  0.12509000000E+03 0.  0.
        -13    1    3    3    0    0  0.21385318250E+02 -0.32689368823E+02  0.30033045755E+01  0.39178535872E+02  0.10566000000E+00 0.  1.
         23    2    1    0    0    0  0.16384795645E+02  0.22423251952E+02  0.11245238408E+02  0.95128038394E+02  0.90286347502E+02 0.  0.
         13    1    3    3    0    0 -0.50005226044E+01  0.55112620775E+02  0.82419338326E+01  0.55949502521E+02  0.10566000000E+00 0. -1.
         22    1    1    0    0    0 -0.16384795645E+02 -0.22423251952E+02 -0.11245238408E+02  0.29961961606E+02  0.00000000000E+00 0. -1.
</event>
<event>
 5    1  0.1261138E-009  0.9118800E+02  0.7561462E-02  0.1125453E+00
         25   -1    0    0    0    0  0.00000000000E+00  0.00000000000E+00  0.99999998245E-14  0.12509000000E+03  0.12509000000E+03 0.  0.
        -13    1    3    3    0    0  0.30441280547E+01 -0.59074036133E+02  0.11433802459E+02  0.60247418728E+02  0.10566000000E+00 0.  1.
         23    2    1    0    0    0 -0.80841332516E+01 -0.26871894999E+02  0.12580045652E+02  0.94337609851E+02  0.89184500518E+02 0.  0.
         13    1    3    3    0    0 -0.11128261306E+02  0.32202141134E+02  0.11462431931E+01  0.34090191123E+02  0.10566000000E+00 0. -1.
         22    1    1    0    0    0  0.80841332516E+01  0.26871894999E+02 -0.12580045652E+02  0.30752390149E+02  0.00000000000E+00 0.  1.
</event>
<event>
 5    1  0.1261138E-009  0.9118800E+02  0.7561462E-02  0.1125453E+00
         25   -1    0    0    0    0  0.00000000000E+00  0.00000000000E+00  0.99999998245E-14  0.12509000000E+03  0.12509000000E+03 0.  0.
        -13    1    3    3    0    0 -0.38559437910E+02 -0.13510208422E+02  0.15176807787E+02  0.43585578374E+02  0.10566000000E+00 0. -1.
         23    2    1    0    0    0  0.87188390117E+01 -0.28876561598E+02  0.85452930625E+01  0.93738827821E+02  0.88340657935E+02 0.  0.
         13    1    3    3    0    0  0.47278276922E+02 -0.15366353176E+02 -0.66315147241E+01  0.50153249448E+02  0.10566000000E+00 0.  1.
         22    1    1    0    0    0 -0.87188390117E+01  0.28876561598E+02 -0.85452930625E+01  0.31351172179E+02  0.00000000000E+00 0.  1.
</event>
<event>
 5    1  0.1261138E-009  0.9118800E+02  0.7561462E-02  0.1125453E+00
         25   -1    0    0    0    0  0.00000000000E+00  0.00000000000E+00  0.99999998245E-14  0.12509000000E+03  0.12509000000E+03 0.  0.
        -13    1    3    3    0    0 -0.38112659262E+02  0.38055165506E+02  0.22146294581E+02  0.58234353653E+02  0.10566000000E+00 0.  1.
         23    2    1    0    0    0 -0.75299384223E+01  0.17759675702E+02  0.23154908544E+02  0.94952716722E+02  0.90043115059E+02 0.  0.
         13    1    3    3    0    0  0.30582720839E+02 -0.20295489804E+02  0.10086139630E+01  0.36718363069E+02  0.10566000000E+00 0. -1.
         22    1    1    0    0    0  0.75299384223E+01 -0.17759675702E+02 -0.23154908544E+02  0.30137283278E+02  0.00000000000E+00 0.  1.
</event>
<event>
 5    1  0.1261138E-009  0.9118800E+02  0.7561462E-02  0.1125453E+00
         25   -1    0    0    0    0  0.00000000000E+00  0.00000000000E+00  0.99999998245E-14  0.12509000000E+03  0.12509000000E+03 0.  0.
        -13    1    3    3    0    0 -0.13804281281E+01 -0.26248612490E+02 -0.29755289375E+02  0.39702438833E+02  0.10566000000E+00 0.  1.
         23    2    1    0    0    0  0.35435282989E+01 -0.15031954834E+02  0.24941405698E+02  0.95754186101E+02  0.91149734935E+02 0.  0.
         13    1    3    3    0    0  0.49239564270E+01  0.11216657656E+02  0.54696695073E+02  0.56051747268E+02  0.10566000000E+00 0. -1.
         22    1    1    0    0    0 -0.35435282989E+01  0.15031954834E+02 -0.24941405698E+02  0.29335813899E+02  0.00000000000E+00 0. -1.
</event>
<event>
 5    1  0.1261138E-009  0.9118800E+02  0.7561462E-02  0.1125453E+00
         25   -1    0    0    0    0  0.00000000000E+00  0.00000000000E+00  0.99999998245E-14  0.12509000000E+03  0.12509000000E+03 0.  0.
        -13    1    3    3    0    0  0.46256123726E+01 -0.29288395457E+02 -0.27377595487E+02  0.40357778643E+02  0.10566000000E+00 0.  1.
         23    2    1    0    0    0  0.18506505262E+02  0.82053047801E+01  0.15953155349E+02  0.99315576066E+02  0.95912787052E+02 0.  0.
         13    1    3    3    0    0  0.13880892890E+02  0.37493700237E+02  0.43330750837E+02  0.58957797423E+02  0.10566000000E+00 0. -1.
         22    1    1    0    0    0 -0.18506505262E+02 -0.82053047801E+01 -0.15953155349E+02  0.25774423934E+02  0.00000000000E+00 0. -1.
</event>
<event>
 5    1  0.1261138E-009  0.9118800E+02  0.7561462E-02  0.1125453E+00
         25   -1    0    0    0    0  0.00000000000E+00  0.00000000000E+00  0.99999998245E-14  0.12509000000E+03  0.12509000000E+03 0.  0.
        -13    1    3    3    0    0  0.30424446752E+02  0.81779328093E+01  0.18227916201E+02  0.36397714739E+02  0.10566000000E+00 0.  1.
         23    2    1    0    0    0 -0.79262241397E+01  0.23767764122E+00 -0.27421438598E+02  0.96545003686E+02  0.92228633960E+02 0.  0.
         13    1    3    3    0    0 -0.38350670892E+02 -0.79402551681E+01 -0.45649354799E+02  0.60147288946E+02  0.10566000000E+00 0. -1.
         22    1    1    0    0    0  0.79262241397E+01 -0.23767764122E+00  0.27421438598E+02  0.28544996314E+02  0.00000000000E+00 0. -1.
</event>
<event>
 5    1  0.1261138E-009  0.9118800E+02  0.7561462E-02  0.1125453E+00
         25   -1    0    0    0    0  0.00000000000E+00  0.00000000000E+00  0.99999998245E-14  0.12509000000E+03  0.12509000000E+03 0.  0.
        -13    1    3    3    0    0 -0.24185805359E+02  0.45570586617E+02  0.23127545218E+02  0.56537828552E+02  0.10566000000E+00 0.  1.
         23    2    1    0    0    0  0.77591119501E+01  0.25566980815E+02  0.75138531964E+01  0.97335138875E+02  0.93294142065E+02 0.  0.
         13    1    3    3    0    0  0.31944917309E+02 -0.20003605803E+02 -0.15613692022E+02  0.40797310323E+02  0.10566000000E+00 0. -1.
         22    1    1    0    0    0 -0.77591119501E+01 -0.25566980815E+02 -0.75138531964E+01  0.27754861125E+02  0.00000000000E+00 0.  1.
</event>
<event>
 5    1  0.1261138E-009  0.9118800E+02  0.7561462E-02  0.1125453E+00
         25   -1    0    0    0    0  0.00000000000E+00  0.00000000000E+00  0.99999998245E-14  0.12509000000E+03  0.12509000000E+03 0.  0.
        -13    1    3    3    0    0  0.60404200071E+02 -0.55898707436E+01 -0.11202586458E+02  0.61688111890E+02  0.10566000000E+00 0.  1.
         23    2    1    0    0    0  0.36295278410E+02  0.13207648580E+01 -0.10201148471E+01  0.88756375230E+02  0.80978774101E+02 0.  0.
         13    1    3    3    0    0 -0.24108921661E+02  0.69106356016E+01  0.10182471611E+02  0.27068263340E+02  0.10566000000E+00 0. -1.
         22    1    1    0    0    0 -0.36295278410E+02 -0.13207648580E+01  0.10201148471E+01  0.36333624770E+02  0.00000000000E+00 0.  1.
</event>
<event>
 5    1  0.1261138E-009  0.9118800E+02  0.7561462E-02  0.1125453E+00
         25   -1    0    0    0    0  0.00000000000E+00  0.00000000000E+00  0.99999998245E-14  0.12509000000E+03  0.12509000000E+03 0.  0.
        -13    1    3    3    0    0  0.21274333628E+02  0.10039301157E+02  0.17158667746E+02  0.29117278065E+02  0.10566000000E+00 0.  1.
         23    2    1    0    0    0 -0.28772805070E+02 -0.12824289878E+01 -0.17823884260E+02  0.91219514532E+02  0.84698229295E+02 0.  0.
         13    1    3    3    0    0 -0.50047138699E+02 -0.11321730144E+02 -0.34982552006E+02  0.62102236467E+02  0.10566000000E+00 0. -1.
         22    1    1    0    0    0  0.28772805070E+02  0.12824289878E+01  0.17823884260E+02  0.33870485468E+02  0.00000000000E+00 0. -1.
</event>
<event>
 5    1  0.1261138E-009  0.9118800E+02  0.7561462E-02  0.1125453E+00
         25   -1    0    0    0    0  0.00000000000E+00  0.00000000000E+00  0.99999998245E-14  0.12509000000E+03  0.12509000000E+03 0.  0.
        -13    1    3    3    0    0  0.52885275422E+02 -0.18429630956E+02 -0.12269875061E+02  0.57332928163E+02  0.10566000000E+00 0. -1.
         23    2    1    0    0    0  0.22442884907E+02 -0.12001477481E+02 -0.23537312482E+02  0.90424114413E+02  0.83515249169E+02 0.  0.
         13    1    3    3    0    0 -0.30442390515E+02  0.64281534749E+01 -0.11267437421E+02  0.33091186250E+02  0.10566000000E+00 0.  1.
         22    1    1    0    0    0 -0.22442884907E+02  0.12001477481E+02  0.23537312482E+02  0.34665885587E+02  0.00000000000E+00 0. -1.
</event>
<event>
 5    1  0.1261138E-009  0.9118800E+02  0.7561462E-02  0.1125453E+00
         25   -1    0    0    0    0  0.00000000000E+00  0.00000000000E+00  0.99999998245E-14  0.12509000000E+03  0.12509000000E+03 0.  0.
        -13    1    3    3    0    0  0.50815339390E+02  0.27187997850E+02 -0.87314655956E+01  0.58289240859E+02  0.10566000000E+00 0. -1.
         23    2    1    0    0    0  0.32281194252E+02  0.16211354646E+01  0.43632763710E+01  0.92474945758E+02  0.86532501580E+02 0.  0.
         13    1    3    3    0    0 -0.18534145138E+02 -0.25566862385E+02  0.13094741967E+02  0.34185704899E+02  0.10566000000E+00 0.  1.
         22    1    1    0    0    0 -0.32281194252E+02 -0.16211354646E+01 -0.43632763710E+01  0.32615054242E+02  0.00000000000E+00 0. -1.
</event>
<event>
 5    1  0.1261138E-009  0.9118800E+02  0.7561462E-02  0.1125453E+00
         25   -1    0    0    0    0  0.00000000000E+00  0.00000000000E+00  0.99999998245E-14  0.12509000000E+03  0.12509000000E+03 0.  0.
        -13    1    3    3    0    0  0.32285221225E+02 -0.12799459271E+02 -0.56476271419E+01  0.35186197912E+02  0.10566000000E+00 0.  1.
         23    2    1    0    0    0 -0.14969571718E+02  0.11401655048E+02  0.22887396792E+02  0.95460306327E+02  0.90745530672E+02 0.  0.
         13    1    3    3    0    0 -0.47254792942E+02  0.24201114318E+02  0.28535023934E+02  0.60274108415E+02  0.10566000000E+00 0. -1.
         22    1    1    0    0    0  0.14969571718E+02 -0.11401655048E+02 -0.22887396792E+02  0.29629693673E+02  0.00000000000E+00 0. -1.
</event>
<event>
 5    1  0.1261138E-009  0.9118800E+02  0.7561462E-02  0.1125453E+00
         25   -1    0    0    0    0  0.00000000000E+00  0.00000000000E+00  0.99999998245E-14  0.12509000000E+03  0.12509000000E+03 0.  0.
        -13    1    3    3    0    0  0.40485026309E+02  0.24374587803E+02  0.14164933631E+02  0.49333704448E+02  0.10566000000E+00 0. -1.
         23    2    1    0    0    0  0.18976332351E+02  0.53343742843E+01 -0.22020996041E+02  0.95535287937E+02  0.90848831781E+02 0.  0.
         13    1    3    3    0    0 -0.21508693957E+02 -0.19040213519E+02 -0.36185929671E+02  0.46201583488E+02  0.10566000000E+00 0.  1.
         22    1    1    0    0    0 -0.18976332351E+02 -0.53343742843E+01  0.22020996041E+02  0.29554712063E+02  0.00000000000E+00 0. -1.
</event>
<event>
 5    1  0.1261138E-009  0.9118800E+02  0.7561462E-02  0.1125453E+00
         25   -1    0    0    0    0  0.00000000000E+00  0.00000000000E+00  0.99999998245E-14  0.12509000000E+03  0.12509000000E+03 0.  0.
        -13    1    3    3    0    0 -0.22933678117E+02  0.41577359625E+02 -0.16412717998E+02  0.50239614862E+02  0.10566000000E+00 0. -1.
         23    2    1    0    0    0  0.95141299512E+01  0.27870685834E+02  0.96961721903E+01  0.94085007616E+02  0.88829494569E+02 0.  0.
         13    1    3    3    0    0  0.32447808068E+02 -0.13706673791E+02  0.26108890189E+02  0.43845392754E+02  0.10566000000E+00 0.  1.
         22    1    1    0    0    0 -0.95141299512E+01 -0.27870685834E+02 -0.96961721903E+01  0.31004992384E+02  0.00000000000E+00 0. -1.
</event>
<event>
 5    1  0.1261138E-009  0.9118800E+02  0.7561462E-02  0.1125453E+00
         25   -1    0    0    0    0  0.00000000000E+00  0.00000000000E+00  0.99999998245E-14  0.12509000000E+03  0.12509000000E+03 0.  0.
        -13    1    3    3    0    0 -0.66288417001E+01 -0.47554761416E+02  0.14093843303E+02  0.50040428243E+02  0.10566000000E+00 0. -1.
         23    2    1    0    0    0 -0.11356510485E+02 -0.53453960617E+01  0.27732016499E+02  0.94649758074E+02  0.89621249572E+02 0.  0.
         13    1    3    3    0    0 -0.47276687845E+01  0.42209365355E+02  0.13638173196E+02  0.44609329831E+02  0.10566000000E+00 0.  1.
         22    1    1    0    0    0  0.11356510485E+02  0.53453960617E+01 -0.27732016499E+02  0.30440241926E+02  0.00000000000E+00 0. -1.
</event>
<event>
 5    1  0.1261138E-009  0.9118800E+02  0.7561462E-02  0.1125453E+00
         25   -1    0    0    0    0  0.00000000000E+00  0.00000000000E+00  0.99999998245E-14  0.12509000000E+03  0.12509000000E+03 0.  0.
        -13    1    3    3    0    0  0.21013867175E+02  0.25779850005E+02 -0.52247862359E+02  0.61935721236E+02  0.10566000000E+00 0. -1.
         23    2    1    0    0    0  0.38451779163E+01  0.12778451149E+02 -0.25802865948E+02  0.96040695394E+02  0.91542083621E+02 0.  0.
         13    1    3    3    0    0 -0.17168689259E+02 -0.13001398856E+02  0.26444996411E+02  0.34104974157E+02  0.10566000000E+00 0.  1.
         22    1    1    0    0    0 -0.38451779163E+01 -0.12778451149E+02  0.25802865948E+02  0.29049304606E+02  0.00000000000E+00 0. -1.
</event>
<event>
 5    1  0.1261138E-009  0.9118800E+02  0.7561462E-02  0.1125453E+00
         25   -1    0    0    0    0  0.00000000000E+00  0.00000000000E+00  0.99999998245E-14  0.12509000000E+03  0.12509000000E+03 0.  0.
        -13    1    3    3    0    0 -0.15742450426E+02  0.40191904144E+02 -0.18986278104E+02  0.47156164225E+02  0.10566000000E+00 0.  1.
         23    2    1    0    0    0  0.13786451469E+02  0.23478246089E+02  0.13996697977E+02  0.94476247571E+02  0.89378741977E+02 0.  0.
         13    1    3    3    0    0  0.29528901895E+02 -0.16713658055E+02  0.32982976080E+02  0.47320083346E+02  0.10566000000E+00 0. -1.
         22    1    1    0    0    0 -0.13786451469E+02 -0.23478246089E+02 -0.13996697977E+02  0.30613752429E+02  0.00000000000E+00 0. -1.
</event>
<event>
 5    1  0.1261138E-009  0.9118800E+02  0.7561462E-02  0.1125453E+00
         25   -1    0    0    0    0  0.00000000000E+00  0.00000000000E+00  0.99999998245E-14  0.12509000000E+03  0.12509000000E+03 0.  0.
        -13    1    3    3    0    0 -0.93868302595E+01 -0.47554598530E+02 -0.27041389421E+02  0.55504957702E+02  0.10566000000E+00 0. -1.
         23    2    1    0    0    0 -0.23026339779E+02 -0.18245370334E+02 -0.34836671091E+01  0.95505514222E+02  0.90807827020E+02 0.  0.
         13    1    3    3    0    0 -0.13639509519E+02  0.29309228196E+02  0.23557722311E+02  0.40000556520E+02  0.10566000000E+00 0.  1.
         22    1    1    0    0    0  0.23026339779E+02  0.18245370334E+02  0.34836671091E+01  0.29584485778E+02  0.00000000000E+00 0. -1.
</event>
<event>
 5    1  0.1261138E-009  0.9118800E+02  0.7561462E-02  0.1125453E+00
         25   -1    0    0    0    0  0.00000000000E+00  0.00000000000E+00  0.99999998245E-14  0.12509000000E+03  0.12509000000E+03 0.  0.
        -13    1    3    3    0    0  0.29660700941E+02 -0.12935807289E+02 -0.25938508706E+02  0.41471793890E+02  0.10566000000E+00 0. -1.
         23    2    1    0    0    0 -0.22320579502E+02 -0.13743898789E+02 -0.17279393519E+01  0.98820458747E+02  0.95264863771E+02 0.  0.
         13    1    3    3    0    0 -0.51981280444E+02 -0.80809149987E+00  0.24210569354E+02  0.57348664857E+02  0.10566000000E+00 0.  1.
         22    1    1    0    0    0  0.22320579502E+02  0.13743898789E+02  0.17279393519E+01  0.26269541253E+02  0.00000000000E+00 0.  1.
</event>
<event>
 5    1  0.1261138E-009  0.9118800E+02  0.7561462E-02  0.1125453E+00
         25   -1    0    0    0    0  0.00000000000E+00  0.00000000000E+00  0.99999998245E-14  0.12509000000E+03  0.12509000000E+03 0.  0.
        -13    1    3    3    0    0 -0.22003041807E+02  0.30515869359E+02  0.36691328938E+02  0.52551088617E+02  0.10566000000E+00 0.  1.
         23    2    1    0    0    0 -0.27560988601E+02  0.26447703896E+01  0.20959428426E+01  0.97323187445E+02  0.93278116056E+02 0.  0.
         13    1    3    3    0    0 -0.55579467932E+01 -0.27871098970E+02 -0.34595386096E+02  0.44772098828E+02  0.10566000000E+00 0. -1.
         22    1    1    0    0    0  0.27560988601E+02 -0.26447703896E+01 -0.20959428426E+01  0.27766812555E+02  0.00000000000E+00 0. -1.
</event>
<event>
 5    1  0.1261138E-009  0.9118800E+02  0.7561462E-02  0.1125453E+00
         25   -1    0    0    0    0  0.00000000000E+00  0.00000000000E+00  0.99999998245E-14  0.12509000000E+03  0.12509000000E+03 0.  0.
        -13    1    3    3    0    0 -0.27397298059E+02  0.41512708082E+02 -0.31845608614E+02  0.59059891850E+02  0.10566000000E+00 0. -1.
         23    2    1    0    0    0 -0.44019285841E+00  0.21713213983E+02 -0.22566985190E+02  0.93770257795E+02  0.88385151440E+02 0.  0.
         13    1    3    3    0    0  0.26957105200E+02 -0.19799494099E+02  0.92786234240E+01  0.34710365945E+02  0.10566000000E+00 0.  1.
         22    1    1    0    0    0  0.44019285841E+00 -0.21713213983E+02  0.22566985190E+02  0.31319742205E+02  0.00000000000E+00 0. -1.
</event>
<event>
 5    1  0.1261138E-009  0.9118800E+02  0.7561462E-02  0.1125453E+00
         25   -1    0    0    0    0  0.00000000000E+00  0.00000000000E+00  0.99999998245E-14  0.12509000000E+03  0.12509000000E+03 0.  0.
        -13    1    3    3    0    0 -0.13171079187E+02  0.29265240871E+02  0.38884348712E+02  0.50417609909E+02  0.10566000000E+00 0. -1.
         23    2    1    0    0    0 -0.24151851839E+02 -0.70428920210E+01  0.20832761554E+02  0.92426285740E+02  0.86462130823E+02 0.  0.
         13    1    3    3    0    0 -0.10980772652E+02 -0.36308132892E+02 -0.18051587158E+02  0.42008675831E+02  0.10566000000E+00 0.  1.
         22    1    1    0    0    0  0.24151851839E+02  0.70428920210E+01 -0.20832761554E+02  0.32663714260E+02  0.00000000000E+00 0. -1.
</event>
<event>
 5    1  0.1261138E-009  0.9118800E+02  0.7561462E-02  0.1125453E+00
         25   -1    0    0    0    0  0.00000000000E+00  0.00000000000E+00  0.99999998245E-14  0.12509000000E+03  0.12509000000E+03 0.  0.
        -13    1    3    3    0    0  0.97860198410E+01 -0.30462809541E+02 -0.41274901409E+02  0.52224300855E+02  0.10566000000E+00 0. -1.
         23    2    1    0    0    0 -0.94035932113E+01 -0.28085728262E+02 -0.27315448667E+01  0.95346142909E+02  0.90588023121E+02 0.  0.
         13    1    3    3    0    0 -0.19189613052E+02  0.23770812793E+01  0.38543356542E+02  0.43121842053E+02  0.10566000000E+00 0.  1.
         22    1    1    0    0    0  0.94035932113E+01  0.28085728262E+02  0.27315448667E+01  0.29743857091E+02  0.00000000000E+00 0. -1.
</event>
<event>
 5    1  0.1261138E-009  0.9118800E+02  0.7561462E-02  0.1125453E+00
         25   -1    0    0    0    0  0.00000000000E+00  0.00000000000E+00  0.99999998245E-14  0.12509000000E+03  0.12509000000E+03 0.  0.
        -13    1    3    3    0    0 -0.30228481758E+02  0.21512887739E+02 -0.50204824157E+02  0.62426764940E+02  0.10566000000E+00 0. -1.
         23    2    1    0    0    0 -0.12499845508E+02  0.69264240055E+01 -0.22852247620E+02  0.98137324650E+02  0.94363593515E+02 0.  0.
         13    1    3    3    0    0  0.17728636249E+02 -0.14586463734E+02  0.27352576537E+02  0.35710559710E+02  0.10566000000E+00 0.  1.
         22    1    1    0    0    0  0.12499845508E+02 -0.69264240055E+01  0.22852247620E+02  0.26952675350E+02  0.00000000000E+00 0. -1.
</event>
<event>
 5    1  0.1261138E-009  0.9118800E+02  0.7561462E-02  0.1125453E+00
         25   -1    0    0    0    0  0.00000000000E+00  0.00000000000E+00  0.99999998245E-14  0.12509000000E+03  0.12509000000E+03 0.  0.
        -13    1    3    3    0    0 -0.28678110883E+02 -0.36321534997E+01  0.34929638241E+02  0.45340019569E+02  0.10566000000E+00 0. -1.
         23    2    1    0    0    0 -0.27820572456E+02 -0.10606967952E+02 -0.12143412472E+02  0.92934837314E+02  0.87194779083E+02 0.  0.
         13    1    3    3    0    0  0.85753842730E+00 -0.69748144523E+01 -0.47073050712E+02  0.47594817745E+02  0.10566000000E+00 0.  1.
         22    1    1    0    0    0  0.27820572456E+02  0.10606967952E+02  0.12143412472E+02  0.32155162686E+02  0.00000000000E+00 0.  1.
</event>
<event>
 5    1  0.1261138E-009  0.9118800E+02  0.7561462E-02  0.1125453E+00
         25   -1    0    0    0    0  0.00000000000E+00  0.00000000000E+00  0.99999998245E-14  0.12509000000E+03  0.12509000000E+03 0.  0.
        -13    1    3    3    0    0  0.36177397669E+02 -0.35491602126E+02  0.97870803275E+01  0.51616431773E+02  0.10566000000E+00 0.  1.
         23    2    1    0    0    0  0.33273752165E+01 -0.39494571225E+02  0.71625071660E+01  0.84813529313E+02  0.74640074112E+02 0.  0.
         13    1    3    3    0    0 -0.32850022453E+02 -0.40029690992E+01 -0.26245731616E+01  0.33197097540E+02  0.10566000000E+00 0. -1.
         22    1    1    0    0    0 -0.33273752165E+01  0.39494571225E+02 -0.71625071660E+01  0.40276470687E+02  0.00000000000E+00 0.  1.
</event>
<event>
 5    1  0.1261138E-009  0.9118800E+02  0.7561462E-02  0.1125453E+00
         25   -1    0    0    0    0  0.00000000000E+00  0.00000000000E+00  0.99999998245E-14  0.12509000000E+03  0.12509000000E+03 0.  0.
        -13    1    3    3    0    0  0.26968638815E+02  0.16897044158E+02  0.41108714881E+02  0.51988029238E+02  0.10566000000E+00 0.  1.
         23    2    1    0    0    0 -0.43527812473E+00  0.28386875158E+02  0.10046994418E+02  0.94974451771E+02  0.90073304836E+02 0.  0.
         13    1    3    3    0    0 -0.27403916939E+02  0.11489831000E+02 -0.31061720463E+02  0.42986422533E+02  0.10566000000E+00 0. -1.
         22    1    1    0    0    0  0.43527812473E+00 -0.28386875158E+02 -0.10046994418E+02  0.30115548229E+02  0.00000000000E+00 0.  1.
</event>
<event>
 5    1  0.1261138E-009  0.9118800E+02  0.7561462E-02  0.1125453E+00
         25   -1    0    0    0    0  0.00000000000E+00  0.00000000000E+00  0.99999998245E-14  0.12509000000E+03  0.12509000000E+03 0.  0.
        -13    1    3    3    0    0  0.54236951570E+02 -0.19118203899E+02  0.12283115496E+02  0.58805090989E+02  0.10566000000E+00 0.  1.
         23    2    1    0    0    0  0.28047692978E+02 -0.42635811578E+00 -0.68166885555E+01  0.96222681013E+02  0.91790425622E+02 0.  0.
         13    1    3    3    0    0 -0.26189258592E+02  0.18691845783E+02 -0.19099804052E+02  0.37417590024E+02  0.10566000000E+00 0. -1.
         22    1    1    0    0    0 -0.28047692978E+02  0.42635811578E+00  0.68166885555E+01  0.28867318987E+02  0.00000000000E+00 0.  1.
</event>
<event>
 5    1  0.1261138E-009  0.9118800E+02  0.7561462E-02  0.1125453E+00
         25   -1    0    0    0    0  0.00000000000E+00  0.00000000000E+00  0.99999998245E-14  0.12509000000E+03  0.12509000000E+03 0.  0.
        -13    1    3    3    0    0  0.19945681167E+02 -0.46425692676E+02  0.35157303804E+02  0.61556659367E+02  0.10566000000E+00 0. -1.
         23    2    1    0    0    0  0.54893995340E+01 -0.24917119668E+02  0.99665716467E+01  0.97697867732E+02  0.93779232505E+02 0.  0.
         13    1    3    3    0    0 -0.14456281633E+02  0.21508573007E+02 -0.25190732157E+02  0.36141208365E+02  0.10566000000E+00 0.  1.
         22    1    1    0    0    0 -0.54893995340E+01  0.24917119668E+02 -0.99665716467E+01  0.27392132268E+02  0.00000000000E+00 0. -1.
</event>
<event>
 5    1  0.1261138E-009  0.9118800E+02  0.7561462E-02  0.1125453E+00
         25   -1    0    0    0    0  0.00000000000E+00  0.00000000000E+00  0.99999998245E-14  0.12509000000E+03  0.12509000000E+03 0.  0.
        -13    1    3    3    0    0  0.17345797826E+02 -0.11525578906E+02  0.39188646746E+02  0.44378788504E+02  0.10566000000E+00 0. -1.
         23    2    1    0    0    0 -0.24625309160E+02 -0.12227114360E+02  0.87252238373E+01  0.96244936162E+02  0.91820749448E+02 0.  0.
         13    1    3    3    0    0 -0.41971106985E+02 -0.70153545326E+00 -0.30463422908E+02  0.51866147658E+02  0.10566000000E+00 0.  1.
         22    1    1    0    0    0  0.24625309160E+02  0.12227114360E+02 -0.87252238373E+01  0.28845063838E+02  0.00000000000E+00 0.  1.
</event>
<event>
 5    1  0.1261138E-009  0.9118800E+02  0.7561462E-02  0.1125453E+00
         25   -1    0    0    0    0  0.00000000000E+00  0.00000000000E+00  0.99999998245E-14  0.12509000000E+03  0.12509000000E+03 0.  0.
        -13    1    3    3    0    0  0.27537472234E+02 -0.19646898486E+02 -0.14860404980E+02  0.36948014796E+02  0.10566000000E+00 0.  1.
         23    2    1    0    0    0 -0.18992496416E+01  0.29441711729E+02 -0.74239044495E+01  0.94667378548E+02  0.89645840199E+02 0.  0.
         13    1    3    3    0    0 -0.29436721876E+02  0.49088610216E+02  0.74365005300E+01  0.57719363751E+02  0.10566000000E+00 0. -1.
         22    1    1    0    0    0  0.18992496416E+01 -0.29441711729E+02  0.74239044495E+01  0.30422621452E+02  0.00000000000E+00 0. -1.
</event>
<event>
 5    1  0.1261138E-009  0.9118800E+02  0.7561462E-02  0.1125453E+00
         25   -1    0    0    0    0  0.00000000000E+00  0.00000000000E+00  0.99999998245E-14  0.12509000000E+03  0.12509000000E+03 0.  0.
        -13    1    3    3    0    0  0.42088088350E+02 -0.11108904789E+02 -0.29736179312E+02  0.52716851866E+02  0.10566000000E+00 0.  1.
         23    2    1    0    0    0  0.12950891084E+01 -0.21965255363E+02 -0.18351578433E+02  0.96438121703E+02  0.92083555468E+02 0.  0.
         13    1    3    3    0    0 -0.40792999242E+02 -0.10856350574E+02  0.11384600880E+02  0.43721269837E+02  0.10566000000E+00 0. -1.
         22    1    1    0    0    0 -0.12950891084E+01  0.21965255363E+02  0.18351578433E+02  0.28651878297E+02  0.00000000000E+00 0. -1.
</event>
<event>
 5    1  0.1261138E-009  0.9118800E+02  0.7561462E-02  0.1125453E+00
         25   -1    0    0    0    0  0.00000000000E+00  0.00000000000E+00  0.99999998245E-14  0.12509000000E+03  0.12509000000E+03 0.  0.
        -13    1    3    3    0    0  0.28820745555E+02 -0.27083008844E+02  0.14165638426E+02  0.42009537232E+02  0.10566000000E+00 0.  1.
         23    2    1    0    0    0  0.64242570849E+00 -0.78469672648E+01 -0.27858818263E+02  0.96140019671E+02  0.91677707330E+02 0.  0.
         13    1    3    3    0    0 -0.28178319847E+02  0.19236041579E+02 -0.42024456689E+02  0.54130482439E+02  0.10566000000E+00 0. -1.
         22    1    1    0    0    0 -0.64242570849E+00  0.78469672648E+01  0.27858818263E+02  0.28949980329E+02  0.00000000000E+00 0. -1.
</event>
<event>
 5    1  0.1261138E-009  0.9118800E+02  0.7561462E-02  0.1125453E+00
         25   -1    0    0    0    0  0.00000000000E+00  0.00000000000E+00  0.99999998245E-14  0.12509000000E+03  0.12509000000E+03 0.  0.
        -13    1    3    3    0    0  0.68162462772E+00  0.22232531174E+02  0.38112247337E+02  0.44128274560E+02  0.10566000000E+00 0. -1.
         23    2    1    0    0    0  0.26137498434E+02  0.96942665783E+01 -0.59951932167E+01  0.96575267482E+02  0.92269671716E+02 0.  0.
         13    1    3    3    0    0  0.25455873806E+02 -0.12538264596E+02 -0.44107440554E+02  0.52446992922E+02  0.10566000000E+00 0.  1.
         22    1    1    0    0    0 -0.26137498434E+02 -0.96942665783E+01  0.59951932167E+01  0.28514732518E+02  0.00000000000E+00 0.  1.
</event>
<event>
 5    1  0.1261138E-009  0.9118800E+02  0.7561462E-02  0.1125453E+00
         25   -1    0    0    0    0  0.00000000000E+00  0.00000000000E+00  0.99999998245E-14  0.12509000000E+03  0.12509000000E+03 0.  0.
        -13    1    3    3    0    0  0.41588021999E+02 -0.14413759492E+01 -0.77196106481E+01  0.42323098788E+02  0.10566000000E+00 0. -1.
         23    2    1    0    0    0 -0.53342790241E+01  0.15963958413E+02 -0.24724787372E+02  0.95179840998E+02  0.90358090512E+02 0.  0.
         13    1    3    3    0    0 -0.46922301024E+02  0.17405334362E+02 -0.17005176724E+02  0.52856742210E+02  0.10566000000E+00 0.  1.
         22    1    1    0    0    0  0.53342790241E+01 -0.15963958413E+02  0.24724787372E+02  0.29910159002E+02  0.00000000000E+00 0.  1.
</event>
<event>
 5    1  0.1261138E-009  0.9118800E+02  0.7561462E-02  0.1125453E+00
         25   -1    0    0    0    0  0.00000000000E+00  0.00000000000E+00  0.99999998245E-14  0.12509000000E+03  0.12509000000E+03 0.  0.
        -13    1    3    3    0    0 -0.59097249487E+02 -0.49675477968E+01  0.16231692144E+02  0.61486912607E+02  0.10566000000E+00 0.  1.
         23    2    1    0    0    0 -0.28703699663E+02 -0.45579285028E+01 -0.16994711219E+00  0.96026174226E+02  0.91522238652E+02 0.  0.
         13    1    3    3    0    0  0.30393549824E+02  0.40961929404E+00 -0.16401639256E+02  0.34539261619E+02  0.10566000000E+00 0. -1.
         22    1    1    0    0    0  0.28703699663E+02  0.45579285028E+01  0.16994711219E+00  0.29063825774E+02  0.00000000000E+00 0.  1.
</event>
<event>
 5    1  0.1261138E-009  0.9118800E+02  0.7561462E-02  0.1125453E+00
         25   -1    0    0    0    0  0.00000000000E+00  0.00000000000E+00  0.99999998245E-14  0.12509000000E+03  0.12509000000E+03 0.  0.
        -13    1    3    3    0    0  0.47248967333E+02 -0.20829496711E+02 -0.18575583728E+02  0.54876190850E+02  0.10566000000E+00 0.  1.
         23    2    1    0    0    0  0.11073948947E+02 -0.27697315803E+02 -0.21843717035E+01  0.95181052715E+02  0.90359767973E+02 0.  0.
         13    1    3    3    0    0 -0.36175018386E+02 -0.68678190914E+01  0.16391212025E+02  0.40304861865E+02  0.10566000000E+00 0. -1.
         22    1    1    0    0    0 -0.11073948947E+02  0.27697315803E+02  0.21843717035E+01  0.29908947285E+02  0.00000000000E+00 0.  1.
</event>
<event>
 5    1  0.1261138E-009  0.9118800E+02  0.7561462E-02  0.1125453E+00
         25   -1    0    0    0    0  0.00000000000E+00  0.00000000000E+00  0.99999998245E-14  0.12509000000E+03  0.12509000000E+03 0.  0.
        -13    1    3    3    0    0  0.10650595727E+02 -0.41991077722E+02 -0.18525829433E+02  0.47115849963E+02  0.10566000000E+00 0.  1.
         23    2    1    0    0    0 -0.21582844448E+02 -0.10854550407E+02  0.85346675316E+01  0.99468115041E+02  0.96111523351E+02 0.  0.
         13    1    3    3    0    0 -0.32233440175E+02  0.31136527315E+02  0.27060496964E+02  0.52352265077E+02  0.10566000000E+00 0. -1.
         22    1    1    0    0    0  0.21582844448E+02  0.10854550407E+02 -0.85346675316E+01  0.25621884959E+02  0.00000000000E+00 0. -1.
</event>
<event>
 5    1  0.1261138E-009  0.9118800E+02  0.7561462E-02  0.1125453E+00
         25   -1    0    0    0    0  0.00000000000E+00  0.00000000000E+00  0.99999998245E-14  0.12509000000E+03  0.12509000000E+03 0.  0.
        -13    1    3    3    0    0  0.95414402336E+01  0.35890274090E+02 -0.61551782137E+01  0.37643701184E+02  0.10566000000E+00 0. -1.
         23    2    1    0    0    0  0.14653143860E+02 -0.22130377090E+02 -0.11561210157E+02  0.96139528580E+02  0.91677037256E+02 0.  0.
         13    1    3    3    0    0  0.51117036268E+01 -0.58020651180E+02 -0.54060319431E+01  0.58495827396E+02  0.10566000000E+00 0.  1.
         22    1    1    0    0    0 -0.14653143860E+02  0.22130377090E+02  0.11561210157E+02  0.28950471420E+02  0.00000000000E+00 0.  1.
</event>
<event>
 5    1  0.1261138E-009  0.9118800E+02  0.7561462E-02  0.1125453E+00
         25   -1    0    0    0    0  0.00000000000E+00  0.00000000000E+00  0.99999998245E-14  0.12509000000E+03  0.12509000000E+03 0.  0.
        -13    1    3    3    0    0 -0.39598709481E+02  0.76414786399E+01 -0.30128013692E+02  0.50340424724E+02  0.10566000000E+00 0. -1.
         23    2    1    0    0    0 -0.30446296098E+02 -0.26798748281E+01  0.10125671636E+02  0.92892361868E+02  0.87133822320E+02 0.  0.
         13    1    3    3    0    0  0.91524133827E+01 -0.10321353468E+02  0.40253685328E+02  0.42551937144E+02  0.10566000000E+00 0.  1.
         22    1    1    0    0    0  0.30446296098E+02  0.26798748281E+01 -0.10125671636E+02  0.32197638132E+02  0.00000000000E+00 0. -1.
</event>
<event>
 5    1  0.1261138E-009  0.9118800E+02  0.7561462E-02  0.1125453E+00
         25   -1    0    0    0    0  0.00000000000E+00  0.00000000000E+00  0.99999998245E-14  0.12509000000E+03  0.12509000000E+03 0.  0.
        -13    1    3    3    0    0  0.23169579315E+02  0.54708463039E+02  0.10312923304E+02  0.60301018937E+02  0.10566000000E+00 0.  1.
         23    2    1    0    0    0  0.15731218333E+01  0.27326667852E+02  0.11972389780E+02  0.95214263938E+02  0.90405732407E+02 0.  0.
         13    1    3    3    0    0 -0.21596457482E+02 -0.27381795187E+02  0.16594664761E+01  0.34913245001E+02  0.10566000000E+00 0. -1.
         22    1    1    0    0    0 -0.15731218333E+01 -0.27326667852E+02 -0.11972389780E+02  0.29875736062E+02  0.00000000000E+00 0.  1.
</event>
<event>
 5    1  0.1261138E-009  0.9118800E+02  0.7561462E-02  0.1125453E+00
         25   -1    0    0    0    0  0.00000000000E+00  0.00000000000E+00  0.99999998245E-14  0.12509000000E+03  0.12509000000E+03 0.  0.
        -13    1    3    3    0    0  0.24899978905E+02  0.43465869218E+02  0.12821554996E+02  0.51707776716E+02  0.10566000000E+00 0.  1.
         23    2    1    0    0    0  0.53761162503E+01  0.57448483319E+01  0.27375395683E+02  0.96606352111E+02  0.92311803530E+02 0.  0.
         13    1    3    3    0    0 -0.19523862655E+02 -0.37721020886E+02  0.14553840686E+02  0.44898575394E+02  0.10566000000E+00 0. -1.
         22    1    1    0    0    0 -0.53761162503E+01 -0.57448483319E+01 -0.27375395683E+02  0.28483647889E+02  0.00000000000E+00 0.  1.
</event>
<event>
 5    1  0.1261138E-009  0.9118800E+02  0.7561462E-02  0.1125453E+00
         25   -1    0    0    0    0  0.00000000000E+00  0.00000000000E+00  0.99999998245E-14  0.12509000000E+03  0.12509000000E+03 0.  0.
        -13    1    3    3    0    0 -0.42276123189E+02  0.66245071971E+01 -0.90627551848E+01  0.43741277794E+02  0.10566000000E+00 0.  1.
         23    2    1    0    0    0  0.11203960861E+01 -0.13717346494E+02 -0.26894372438E+02  0.94878608919E+02  0.89940103844E+02 0.  0.
         13    1    3    3    0    0  0.43396519275E+02 -0.20341853691E+02 -0.17831617253E+02  0.51137331125E+02  0.10566000000E+00 0. -1.
         22    1    1    0    0    0 -0.11203960861E+01  0.13717346494E+02  0.26894372438E+02  0.30211391081E+02  0.00000000000E+00 0. -1.
</event>
<event>
 5    1  0.1261138E-009  0.9118800E+02  0.7561462E-02  0.1125453E+00
         25   -1    0    0    0    0  0.00000000000E+00  0.00000000000E+00  0.99999998245E-14  0.12509000000E+03  0.12509000000E+03 0.  0.
        -13    1    3    3    0    0  0.58613711742E+01 -0.41089214462E+02  0.12563346990E+02  0.43365055848E+02  0.10566000000E+00 0.  1.
         23    2    1    0    0    0 -0.39546438657E+01  0.77766649608E+01  0.28175146779E+02  0.95595006831E+02  0.90931021709E+02 0.  0.
         13    1    3    3    0    0 -0.98160150398E+01  0.48865879422E+02  0.15611799789E+02  0.52229950983E+02  0.10566000000E+00 0. -1.
         22    1    1    0    0    0  0.39546438657E+01 -0.77766649608E+01 -0.28175146779E+02  0.29494993169E+02  0.00000000000E+00 0. -1.
</event>
<event>
 5    1  0.1261138E-009  0.9118800E+02  0.7561462E-02  0.1125453E+00
         25   -1    0    0    0    0  0.00000000000E+00  0.00000000000E+00  0.99999998245E-14  0.12509000000E+03  0.12509000000E+03 0.  0.
        -13    1    3    3    0    0  0.45898518936E+02  0.34888453486E+02 -0.19046983335E+02  0.60718011869E+02  0.10566000000E+00 0.  1.
         23    2    1    0    0    0  0.17239789791E+02  0.22616982640E+02 -0.12315255152E+01  0.96625023083E+02  0.92337100750E+02 0.  0.
         13    1    3    3    0    0 -0.28658729145E+02 -0.12271470845E+02  0.17815457820E+02  0.35907011213E+02  0.10566000000E+00 0. -1.
         22    1    1    0    0    0 -0.17239789791E+02 -0.22616982640E+02  0.12315255152E+01  0.28464976917E+02  0.00000000000E+00 0.  1.
</event>
<event>
 5    1  0.1261138E-009  0.9118800E+02  0.7561462E-02  0.1125453E+00
         25   -1    0    0    0    0  0.00000000000E+00  0.00000000000E+00  0.99999998245E-14  0.12509000000E+03  0.12509000000E+03 0.  0.
        -13    1    3    3    0    0 -0.31469535247E+00  0.15776695818E+02  0.43355940835E+02  0.46138399775E+02  0.10566000000E+00 0.  1.
         23    2    1    0    0    0  0.25501369621E+02 -0.91022598429E+01  0.71668569708E+01  0.97080451171E+02  0.92952026196E+02 0.  0.
         13    1    3    3    0    0  0.25816064973E+02 -0.24878955661E+02 -0.36189083864E+02  0.50942051396E+02  0.10566000000E+00 0. -1.
         22    1    1    0    0    0 -0.25501369621E+02  0.91022598429E+01 -0.71668569708E+01  0.28009548829E+02  0.00000000000E+00 0. -1.
</event>
<event>
 5    1  0.1261138E-009  0.9118800E+02  0.7561462E-02  0.1125453E+00
         25   -1    0    0    0    0  0.00000000000E+00  0.00000000000E+00  0.99999998245E-14  0.12509000000E+03  0.12509000000E+03 0.  0.
        -13    1    3    3    0    0 -0.21611355399E+02  0.33288501084E+02 -0.17837713064E+02  0.43512873474E+02  0.10566000000E+00 0. -1.
         23    2    1    0    0    0  0.25285757225E+02  0.13571903733E+02 -0.53267467516E+01  0.95901983275E+02  0.91352340286E+02 0.  0.
         13    1    3    3    0    0  0.46897112624E+02 -0.19716597351E+02  0.12510966312E+02  0.52389109801E+02  0.10566000000E+00 0.  1.
         22    1    1    0    0    0 -0.25285757225E+02 -0.13571903733E+02  0.53267467516E+01  0.29188016725E+02  0.00000000000E+00 0.  1.
</event>
<event>
 5    1  0.1261138E-009  0.9118800E+02  0.7561462E-02  0.1125453E+00
         25   -1    0    0    0    0  0.00000000000E+00  0.00000000000E+00  0.99999998245E-14  0.12509000000E+03  0.12509000000E+03 0.  0.
        -13    1    3    3    0    0  0.21120002104E+02 -0.24116437163E+02  0.78331456532E+01  0.33000399470E+02  0.10566000000E+00 0. -1.
         23    2    1    0    0    0 -0.24874482435E+02  0.12271105703E+02 -0.11941232100E+02  0.94892103788E+02  0.89958870744E+02 0.  0.
         13    1    3    3    0    0 -0.45994484539E+02  0.36387542866E+02 -0.19774377754E+02  0.61891704318E+02  0.10566000000E+00 0.  1.
         22    1    1    0    0    0  0.24874482435E+02 -0.12271105703E+02  0.11941232100E+02  0.30197896212E+02  0.00000000000E+00 0.  1.
</event>
<event>
 5    1  0.1261138E-009  0.9118800E+02  0.7561462E-02  0.1125453E+00
         25   -1    0    0    0    0  0.00000000000E+00  0.00000000000E+00  0.99999998245E-14  0.12509000000E+03  0.12509000000E+03 0.  0.
        -13    1    3    3    0    0  0.18370861989E+02 -0.37591516499E+02 -0.86245723444E+01  0.42720078360E+02  0.10566000000E+00 0.  1.
         23    2    1    0    0    0 -0.26594089936E+02 -0.68956134183E+01 -0.28298824097E+01  0.97471105410E+02  0.93476269991E+02 0.  0.
         13    1    3    3    0    0 -0.44964951924E+02  0.30695903081E+02  0.57946899347E+01  0.54751027050E+02  0.10566000000E+00 0. -1.
         22    1    1    0    0    0  0.26594089936E+02  0.68956134183E+01  0.28298824097E+01  0.27618894590E+02  0.00000000000E+00 0. -1.
</event>
<event>
 5    1  0.1261138E-009  0.9118800E+02  0.7561462E-02  0.1125453E+00
         25   -1    0    0    0    0  0.00000000000E+00  0.00000000000E+00  0.99999998245E-14  0.12509000000E+03  0.12509000000E+03 0.  0.
        -13    1    3    3    0    0  0.41035599788E+02  0.18504470822E+02  0.18807218862E+01  0.45054235863E+02  0.10566000000E+00 0. -1.
         23    2    1    0    0    0  0.19706869171E+00  0.30306551130E+01  0.28651257071E+02  0.96278227437E+02  0.91866091896E+02 0.  0.
         13    1    3    3    0    0 -0.40838531096E+02 -0.15473815709E+02  0.26770535185E+02  0.51223991574E+02  0.10566000000E+00 0.  1.
         22    1    1    0    0    0 -0.19706869171E+00 -0.30306551130E+01 -0.28651257071E+02  0.28811772563E+02  0.00000000000E+00 0.  1.
</event>
<event>
 5    1  0.1261138E-009  0.9118800E+02  0.7561462E-02  0.1125453E+00
         25   -1    0    0    0    0  0.00000000000E+00  0.00000000000E+00  0.99999998245E-14  0.12509000000E+03  0.12509000000E+03 0.  0.
        -13    1    3    3    0    0 -0.25944141580E+02 -0.23637996900E+02 -0.83353943627E+01  0.36074136760E+02  0.10566000000E+00 0.  1.
         23    2    1    0    0    0  0.28256368258E+02  0.25828673806E+01 -0.14140260961E+01  0.96680617380E+02  0.92412384214E+02 0.  0.
         13    1    3    3    0    0  0.54200509838E+02  0.26220864281E+02  0.69213682665E+01  0.60606480620E+02  0.10566000000E+00 0. -1.
         22    1    1    0    0    0 -0.28256368258E+02 -0.25828673806E+01  0.14140260961E+01  0.28409382620E+02  0.00000000000E+00 0. -1.
</event>
<event>
 5    1  0.1261138E-009  0.9118800E+02  0.7561462E-02  0.1125453E+00
         25   -1    0    0    0    0  0.00000000000E+00  0.00000000000E+00  0.99999998245E-14  0.12509000000E+03  0.12509000000E+03 0.  0.
        -13    1    3    3    0    0 -0.34336891019E+02  0.19317007898E+02  0.18266057456E+02  0.43426131511E+02  0.10566000000E+00 0.  1.
         23    2    1    0    0    0 -0.13913579718E+02 -0.13769330468E+02 -0.19378151152E+02  0.97545583067E+02  0.93575882960E+02 0.  0.
         13    1    3    3    0    0  0.20423311301E+02 -0.33086338366E+02 -0.37644208608E+02  0.54119451556E+02  0.10566000000E+00 0. -1.
         22    1    1    0    0    0  0.13913579718E+02  0.13769330468E+02  0.19378151152E+02  0.27544416933E+02  0.00000000000E+00 0. -1.
</event>
<event>
 5    1  0.1261138E-009  0.9118800E+02  0.7561462E-02  0.1125453E+00
         25   -1    0    0    0    0  0.00000000000E+00  0.00000000000E+00  0.99999998245E-14  0.12509000000E+03  0.12509000000E+03 0.  0.
        -13    1    3    3    0    0  0.22872234014E+02 -0.24574894701E+02  0.24420898049E+01  0.33660652177E+02  0.10566000000E+00 0.  1.
         23    2    1    0    0    0 -0.18527190966E+02  0.21677227081E+02 -0.48607015472E+01  0.96162756811E+02  0.91708725860E+02 0.  0.
         13    1    3    3    0    0 -0.41399424981E+02  0.46252121781E+02 -0.73027913521E+01  0.62502104633E+02  0.10566000000E+00 0. -1.
         22    1    1    0    0    0  0.18527190966E+02 -0.21677227081E+02  0.48607015472E+01  0.28927243189E+02  0.00000000000E+00 0. -1.
</event>
<event>
 5    1  0.1261138E-009  0.9118800E+02  0.7561462E-02  0.1125453E+00
         25   -1    0    0    0    0  0.00000000000E+00  0.00000000000E+00  0.99999998245E-14  0.12509000000E+03  0.12509000000E+03 0.  0.
        -13    1    3    3    0    0 -0.22136791072E+02 -0.20095419460E+02 -0.15943418548E+02  0.33883139778E+02  0.10566000000E+00 0. -1.
         23    2    1    0    0    0  0.23964757461E+02 -0.50797828903E+01  0.19365567370E+02  0.93862784403E+02  0.88516005908E+02 0.  0.
         13    1    3    3    0    0  0.46101548533E+02  0.15015636569E+02  0.35308985917E+02  0.59979644625E+02  0.10566000000E+00 0.  1.
         22    1    1    0    0    0 -0.23964757461E+02  0.50797828903E+01 -0.19365567370E+02  0.31227215597E+02  0.00000000000E+00 0.  1.
</event>
<event>
 5    1  0.1261138E-009  0.9118800E+02  0.7561462E-02  0.1125453E+00
         25   -1    0    0    0    0  0.00000000000E+00  0.00000000000E+00  0.99999998245E-14  0.12509000000E+03  0.12509000000E+03 0.  0.
        -13    1    3    3    0    0  0.33033983400E+02  0.28042766954E+02 -0.88848448744E+01  0.44233386375E+02  0.10566000000E+00 0. -1.
         23    2    1    0    0    0 -0.12357990375E+02  0.69518103432E+01 -0.24600901950E+02  0.96695423583E+02  0.92432423813E+02 0.  0.
         13    1    3    3    0    0 -0.45391973775E+02 -0.21090956611E+02 -0.15716057075E+02  0.52462037208E+02  0.10566000000E+00 0.  1.
         22    1    1    0    0    0  0.12357990375E+02 -0.69518103432E+01  0.24600901950E+02  0.28394576417E+02  0.00000000000E+00 0.  1.
</event>
<event>
 5    1  0.1261138E-009  0.9118800E+02  0.7561462E-02  0.1125453E+00
         25   -1    0    0    0    0  0.00000000000E+00  0.00000000000E+00  0.99999998245E-14  0.12509000000E+03  0.12509000000E+03 0.  0.
        -13    1    3    3    0    0  0.28240630707E+02 -0.38732496067E+02 -0.36061246863E+02  0.59984699413E+02  0.10566000000E+00 0.  1.
         23    2    1    0    0    0  0.26504831140E+02 -0.16974482496E+02 -0.15359748829E+02  0.90067706901E+02  0.82979701208E+02 0.  0.
         13    1    3    3    0    0 -0.17357995661E+01  0.21758013570E+02  0.20701498034E+02  0.30083007489E+02  0.10566000000E+00 0. -1.
         22    1    1    0    0    0 -0.26504831140E+02  0.16974482496E+02  0.15359748829E+02  0.35022293099E+02  0.00000000000E+00 0.  1.
</event>
<event>
 5    1  0.1261138E-009  0.9118800E+02  0.7561462E-02  0.1125453E+00
         25   -1    0    0    0    0  0.00000000000E+00  0.00000000000E+00  0.99999998245E-14  0.12509000000E+03  0.12509000000E+03 0.  0.
        -13    1    3    3    0    0 -0.34840567169E+02  0.24305066424E+02 -0.16093824875E+02  0.45427125571E+02  0.10566000000E+00 0. -1.
         23    2    1    0    0    0  0.15889851294E+01 -0.39444440287E+01 -0.30940732573E+02  0.93858406307E+02  0.88509818607E+02 0.  0.
         13    1    3    3    0    0  0.36429552298E+02 -0.28249510452E+02 -0.14846907698E+02  0.48431280736E+02  0.10566000000E+00 0.  1.
         22    1    1    0    0    0 -0.15889851294E+01  0.39444440287E+01  0.30940732573E+02  0.31231593693E+02  0.00000000000E+00 0. -1.
</event>
<event>
 5    1  0.1261138E-009  0.9118800E+02  0.7561462E-02  0.1125453E+00
         25   -1    0    0    0    0  0.00000000000E+00  0.00000000000E+00  0.99999998245E-14  0.12509000000E+03  0.12509000000E+03 0.  0.
        -13    1    3    3    0    0  0.20273784582E+02  0.10208074792E+02  0.35045093721E+02  0.41754052380E+02  0.10566000000E+00 0.  1.
         23    2    1    0    0    0 -0.84853949850E+01 -0.26912027231E+02  0.88881335336E+01  0.95505239473E+02  0.90807448545E+02 0.  0.
         13    1    3    3    0    0 -0.28759179567E+02 -0.37120102023E+02 -0.26156960187E+02  0.53751187093E+02  0.10566000000E+00 0. -1.
         22    1    1    0    0    0  0.84853949850E+01  0.26912027231E+02 -0.88881335336E+01  0.29584760527E+02  0.00000000000E+00 0. -1.
</event>
<event>
 5    1  0.1261138E-009  0.9118800E+02  0.7561462E-02  0.1125453E+00
         25   -1    0    0    0    0  0.00000000000E+00  0.00000000000E+00  0.99999998245E-14  0.12509000000E+03  0.12509000000E+03 0.  0.
        -13    1    3    3    0    0  0.18049471989E+02 -0.30486491462E+02  0.82971142153E+01  0.36387674687E+02  0.10566000000E+00 0. -1.
         23    2    1    0    0    0 -0.22213805912E+02 -0.19740971948E+00 -0.20873706943E+02  0.94607155887E+02  0.89561767288E+02 0.  0.
         13    1    3    3    0    0 -0.40263277901E+02  0.30289081743E+02 -0.29170821158E+02  0.58219481200E+02  0.10566000000E+00 0.  1.
         22    1    1    0    0    0  0.22213805912E+02  0.19740971948E+00  0.20873706943E+02  0.30482844113E+02  0.00000000000E+00 0.  1.
</event>
<event>
 5    1  0.1261138E-009  0.9118800E+02  0.7561462E-02  0.1125453E+00
         25   -1    0    0    0    0  0.00000000000E+00  0.00000000000E+00  0.99999998245E-14  0.12509000000E+03  0.12509000000E+03 0.  0.
        -13    1    3    3    0    0  0.44319207801E+02 -0.69309377183E+01  0.22045337724E+02  0.49982378467E+02  0.10566000000E+00 0.  1.
         23    2    1    0    0    0  0.25100320606E+01 -0.19286024158E+02  0.24690958452E+02  0.93659212259E+02  0.88227850608E+02 0.  0.
         13    1    3    3    0    0 -0.41809175741E+02 -0.12355086439E+02  0.26456207276E+01  0.43676833792E+02  0.10566000000E+00 0. -1.
         22    1    1    0    0    0 -0.25100320606E+01  0.19286024158E+02 -0.24690958452E+02  0.31430787741E+02  0.00000000000E+00 0.  1.
</event>
<event>
 5    1  0.1261138E-009  0.9118800E+02  0.7561462E-02  0.1125453E+00
         25   -1    0    0    0    0  0.00000000000E+00  0.00000000000E+00  0.99999998245E-14  0.12509000000E+03  0.12509000000E+03 0.  0.
        -13    1    3    3    0    0  0.18901832737E+02  0.28351380397E+02  0.12864070624E+02  0.36422184563E+02  0.10566000000E+00 0. -1.
         23    2    1    0    0    0 -0.16675699842E+02 -0.58347078365E+01 -0.22027436906E+02  0.96852954166E+02  0.92645366713E+02 0.  0.
         13    1    3    3    0    0 -0.35577532579E+02 -0.34186088234E+02 -0.34891507530E+02  0.60430769604E+02  0.10566000000E+00 0.  1.
         22    1    1    0    0    0  0.16675699842E+02  0.58347078365E+01  0.22027436906E+02  0.28237045834E+02  0.00000000000E+00 0.  1.
</event>
<event>
 5    1  0.1261138E-009  0.9118800E+02  0.7561462E-02  0.1125453E+00
         25   -1    0    0    0    0  0.00000000000E+00  0.00000000000E+00  0.99999998245E-14  0.12509000000E+03  0.12509000000E+03 0.  0.
        -13    1    3    3    0    0  0.35956617425E+02  0.29158849499E+02 -0.39095186205E+02  0.60593412094E+02  0.10566000000E+00 0.  1.
         23    2    1    0    0    0  0.21349436589E+02  0.14527284974E+02 -0.77761671399E+01  0.98121328792E+02  0.94342386747E+02 0.  0.
         13    1    3    3    0    0 -0.14607180836E+02 -0.14631564526E+02  0.31319019065E+02  0.37527916698E+02  0.10566000000E+00 0. -1.
         22    1    1    0    0    0 -0.21349436589E+02 -0.14527284974E+02  0.77761671399E+01  0.26968671208E+02  0.00000000000E+00 0.  1.
</event>
<event>
 5    1  0.1261138E-009  0.9118800E+02  0.7561462E-02  0.1125453E+00
         25   -1    0    0    0    0  0.00000000000E+00  0.00000000000E+00  0.99999998245E-14  0.12509000000E+03  0.12509000000E+03 0.  0.
        -13    1    3    3    0    0  0.14583133765E+02 -0.36412622113E+02  0.43327612365E+02  0.58445187970E+02  0.10566000000E+00 0. -1.
         23    2    1    0    0    0  0.12737601607E+02 -0.25101791131E+02  0.76472315862E+01  0.95921068521E+02  0.91378470236E+02 0.  0.
         13    1    3    3    0    0 -0.18455321582E+01  0.11310830982E+02 -0.35680380779E+02  0.37475880551E+02  0.10566000000E+00 0.  1.
         22    1    1    0    0    0 -0.12737601607E+02  0.25101791131E+02 -0.76472315862E+01  0.29168931479E+02  0.00000000000E+00 0. -1.
</event>
<event>
 5    1  0.1261138E-009  0.9118800E+02  0.7561462E-02  0.1125453E+00
         25   -1    0    0    0    0  0.00000000000E+00  0.00000000000E+00  0.99999998245E-14  0.12509000000E+03  0.12509000000E+03 0.  0.
        -13    1    3    3    0    0 -0.18569321967E+02  0.51394704043E+02  0.95662120237E+01  0.55477553105E+02  0.10566000000E+00 0.  1.
         23    2    1    0    0    0  0.61843005552E+01  0.27223450243E+02 -0.10252760452E+02  0.95349776171E+02  0.90593040033E+02 0.  0.
         13    1    3    3    0    0  0.24753622523E+02 -0.24171253799E+02 -0.19818972476E+02  0.39872223066E+02  0.10566000000E+00 0. -1.
         22    1    1    0    0    0 -0.61843005552E+01 -0.27223450243E+02  0.10252760452E+02  0.29740223829E+02  0.00000000000E+00 0. -1.
</event>
<event>
 5    1  0.1261138E-009  0.9118800E+02  0.7561462E-02  0.1125453E+00
         25   -1    0    0    0    0  0.00000000000E+00  0.00000000000E+00  0.99999998245E-14  0.12509000000E+03  0.12509000000E+03 0.  0.
        -13    1    3    3    0    0 -0.22238697877E+02 -0.29206593885E+02  0.29967450968E+02  0.47388227348E+02  0.10566000000E+00 0.  1.
         23    2    1    0    0    0 -0.62870685707E+01 -0.24589378050E+02 -0.15196069429E+02  0.95508159791E+02  0.90811471282E+02 0.  0.
         13    1    3    3    0    0  0.15951629306E+02  0.46172158350E+01 -0.45163520397E+02  0.48119932443E+02  0.10566000000E+00 0. -1.
         22    1    1    0    0    0  0.62870685707E+01  0.24589378050E+02  0.15196069429E+02  0.29581840209E+02  0.00000000000E+00 0.  1.
</event>
<event>
 5    1  0.1261138E-009  0.9118800E+02  0.7561462E-02  0.1125453E+00
         25   -1    0    0    0    0  0.00000000000E+00  0.00000000000E+00  0.99999998245E-14  0.12509000000E+03  0.12509000000E+03 0.  0.
        -13    1    3    3    0    0  0.66736743270E+00 -0.99236192007E+01 -0.37505744941E+02  0.38802263658E+02  0.10566000000E+00 0.  1.
         23    2    1    0    0    0 -0.89688380813E+01 -0.20665409320E+02  0.18063394513E+02  0.96214657227E+02  0.91779490330E+02 0.  0.
         13    1    3    3    0    0 -0.96362055140E+01 -0.10741790120E+02  0.55569139454E+02  0.57412393570E+02  0.10566000000E+00 0. -1.
         22    1    1    0    0    0  0.89688380813E+01  0.20665409320E+02 -0.18063394513E+02  0.28875342773E+02  0.00000000000E+00 0. -1.
</event>
<event>
 5    1  0.1261138E-009  0.9118800E+02  0.7561462E-02  0.1125453E+00
         25   -1    0    0    0    0  0.00000000000E+00  0.00000000000E+00  0.99999998245E-14  0.12509000000E+03  0.12509000000E+03 0.  0.
        -13    1    3    3    0    0  0.44727897153E+02 -0.81864528408E+01  0.42881152928E+01  0.45672769684E+02  0.10566000000E+00 0.  1.
         23    2    1    0    0    0  0.33047003194E+01 -0.20034807269E+02 -0.21201957139E+02  0.95732930442E+02  0.91120559909E+02 0.  0.
         13    1    3    3    0    0 -0.41423196833E+02 -0.11848354428E+02 -0.25490072432E+02  0.50060160758E+02  0.10566000000E+00 0. -1.
         22    1    1    0    0    0 -0.33047003194E+01  0.20034807269E+02  0.21201957139E+02  0.29357069558E+02  0.00000000000E+00 0.  1.
</event>
<event>
 5    1  0.1261138E-009  0.9118800E+02  0.7561462E-02  0.1125453E+00
         25   -1    0    0    0    0  0.00000000000E+00  0.00000000000E+00  0.99999998245E-14  0.12509000000E+03  0.12509000000E+03 0.  0.
        -13    1    3    3    0    0  0.20966646566E+02 -0.52513525174E+02  0.16174226461E+02  0.58812306196E+02  0.10566000000E+00 0.  1.
         23    2    1    0    0    0  0.10475677658E+01 -0.21605856122E+02  0.19805196738E+02  0.95761579743E+02  0.91159881088E+02 0.  0.
         13    1    3    3    0    0 -0.19919078800E+02  0.30907669052E+02  0.36309702764E+01  0.36949273547E+02  0.10566000000E+00 0. -1.
         22    1    1    0    0    0 -0.10475677658E+01  0.21605856122E+02 -0.19805196738E+02  0.29328420257E+02  0.00000000000E+00 0.  1.
</event>
<event>
 5    1  0.1261138E-009  0.9118800E+02  0.7561462E-02  0.1125453E+00
         25   -1    0    0    0    0  0.00000000000E+00  0.00000000000E+00  0.99999998245E-14  0.12509000000E+03  0.12509000000E+03 0.  0.
        -13    1    3    3    0    0 -0.37506818643E+02  0.29485694377E+02  0.48058899171E+01  0.47950759739E+02  0.10566000000E+00 0.  1.
         23    2    1    0    0    0 -0.10504777971E+02  0.32249698629E+02  0.25971611555E+02  0.82370940686E+02  0.70427649690E+02 0.  0.
         13    1    3    3    0    0  0.27002040672E+02  0.27640042523E+01  0.21165721638E+02  0.34420180948E+02  0.10566000000E+00 0. -1.
         22    1    1    0    0    0  0.10504777971E+02 -0.32249698629E+02 -0.25971611555E+02  0.42719059314E+02  0.00000000000E+00 0.  1.
</event>
<event>
 5    1  0.1261138E-009  0.9118800E+02  0.7561462E-02  0.1125453E+00
         25   -1    0    0    0    0  0.00000000000E+00  0.00000000000E+00  0.99999998245E-14  0.12509000000E+03  0.12509000000E+03 0.  0.
        -13    1    3    3    0    0  0.14182920983E+02  0.14935545757E+02 -0.48205584985E+02  0.52421516217E+02  0.10566000000E+00 0.  1.
         23    2    1    0    0    0 -0.83391953174E+01 -0.14030610757E+02 -0.22798387649E+02  0.97051335692E+02  0.92912835838E+02 0.  0.
         13    1    3    3    0    0 -0.22522116301E+02 -0.28966156515E+02  0.25407197336E+02  0.44629819475E+02  0.10566000000E+00 0. -1.
         22    1    1    0    0    0  0.83391953174E+01  0.14030610757E+02  0.22798387649E+02  0.28038664308E+02  0.00000000000E+00 0.  1.
</event>
<event>
 5    1  0.1261138E-009  0.9118800E+02  0.7561462E-02  0.1125453E+00
         25   -1    0    0    0    0  0.00000000000E+00  0.00000000000E+00  0.99999998245E-14  0.12509000000E+03  0.12509000000E+03 0.  0.
        -13    1    3    3    0    0 -0.19818566334E+02 -0.39491014456E+02  0.92092532650E+01  0.45134657460E+02  0.10566000000E+00 0.  1.
         23    2    1    0    0    0 -0.24150402750E+02  0.10544973174E+02  0.13388952859E+02  0.95531541466E+02  0.90843673110E+02 0.  0.
         13    1    3    3    0    0 -0.43318364161E+01  0.50035987630E+02  0.41796995935E+01  0.50396884006E+02  0.10566000000E+00 0. -1.
         22    1    1    0    0    0  0.24150402750E+02 -0.10544973174E+02 -0.13388952859E+02  0.29558458534E+02  0.00000000000E+00 0. -1.
</event>
<event>
 5    1  0.1261138E-009  0.9118800E+02  0.7561462E-02  0.1125453E+00
         25   -1    0    0    0    0  0.00000000000E+00  0.00000000000E+00  0.99999998245E-14  0.12509000000E+03  0.12509000000E+03 0.  0.
        -13    1    3    3    0    0 -0.45574352859E+01  0.76354277963E+01  0.46308928750E+02  0.47155042361E+02  0.10566000000E+00 0.  1.
         23    2    1    0    0    0  0.26152890924E+02  0.51867845382E+01  0.62246469742E+01  0.97710762109E+02  0.93796430446E+02 0.  0.
         13    1    3    3    0    0  0.30710326210E+02 -0.24486432581E+01 -0.40084281776E+02  0.50555719748E+02  0.10566000000E+00 0. -1.
         22    1    1    0    0    0 -0.26152890924E+02 -0.51867845382E+01 -0.62246469742E+01  0.27379237891E+02  0.00000000000E+00 0.  1.
</event>
<event>
 5    1  0.1261138E-009  0.9118800E+02  0.7561462E-02  0.1125453E+00
         25   -1    0    0    0    0  0.00000000000E+00  0.00000000000E+00  0.99999998245E-14  0.12509000000E+03  0.12509000000E+03 0.  0.
        -13    1    3    3    0    0 -0.26689542855E+02 -0.31497590000E+02  0.44054478289E+01  0.41519260690E+02  0.10566000000E+00 0. -1.
         23    2    1    0    0    0  0.25204895610E+02 -0.12938609913E+02  0.90368695322E+00  0.96743729711E+02  0.92497774023E+02 0.  0.
         13    1    3    3    0    0  0.51894438465E+02  0.18558980087E+02 -0.35017608756E+01  0.55224469022E+02  0.10566000000E+00 0.  1.
         22    1    1    0    0    0 -0.25204895610E+02  0.12938609913E+02 -0.90368695322E+00  0.28346270289E+02  0.00000000000E+00 0.  1.
</event>
<event>
 5    1  0.1261138E-009  0.9118800E+02  0.7561462E-02  0.1125453E+00
         25   -1    0    0    0    0  0.00000000000E+00  0.00000000000E+00  0.99999998245E-14  0.12509000000E+03  0.12509000000E+03 0.  0.
        -13    1    3    3    0    0  0.11515799217E+02  0.38253758763E+02 -0.36826271326E+01  0.40119030369E+02  0.10566000000E+00 0.  1.
         23    2    1    0    0    0 -0.93412314397E+01 -0.81559349812E+01 -0.26461928008E+02  0.95866524606E+02  0.91303773339E+02 0.  0.
         13    1    3    3    0    0 -0.20857030657E+02 -0.46409693744E+02 -0.22779300875E+02  0.55747494237E+02  0.10566000000E+00 0. -1.
         22    1    1    0    0    0  0.93412314397E+01  0.81559349812E+01  0.26461928008E+02  0.29223475394E+02  0.00000000000E+00 0. -1.
</event>
<event>
 5    1  0.1261138E-009  0.9118800E+02  0.7561462E-02  0.1125453E+00
         25   -1    0    0    0    0  0.00000000000E+00  0.00000000000E+00  0.99999998245E-14  0.12509000000E+03  0.12509000000E+03 0.  0.
        -13    1    3    3    0    0  0.85011166782E+01  0.16431494762E+01  0.34576536697E+02  0.35644312014E+02  0.10566000000E+00 0. -1.
         23    2    1    0    0    0  0.49875428207E+01 -0.17898733082E+02 -0.22403095716E+02  0.95984348882E+02  0.91465055093E+02 0.  0.
         13    1    3    3    0    0 -0.35135738575E+01 -0.19541882558E+02 -0.56979632413E+02  0.60340036868E+02  0.10566000000E+00 0.  1.
         22    1    1    0    0    0 -0.49875428207E+01  0.17898733082E+02  0.22403095716E+02  0.29105651118E+02  0.00000000000E+00 0.  1.
</event>
<event>
 5    1  0.1261138E-009  0.9118800E+02  0.7561462E-02  0.1125453E+00
         25   -1    0    0    0    0  0.00000000000E+00  0.00000000000E+00  0.99999998245E-14  0.12509000000E+03  0.12509000000E+03 0.  0.
        -13    1    3    3    0    0  0.68660289942E+01  0.57520109562E+02  0.15601996639E+02  0.59992823082E+02  0.10566000000E+00 0.  1.
         23    2    1    0    0    0  0.36247471425E+01  0.28670438422E+02 -0.52258391268E+01  0.95722633319E+02  0.91106422956E+02 0.  0.
         13    1    3    3    0    0 -0.32412818517E+01 -0.28849671140E+02 -0.20827835766E+02  0.35729810238E+02  0.10566000000E+00 0. -1.
         22    1    1    0    0    0 -0.36247471425E+01 -0.28670438422E+02  0.52258391268E+01  0.29367366681E+02  0.00000000000E+00 0.  1.
</event>
<event>
 5    1  0.1261138E-009  0.9118800E+02  0.7561462E-02  0.1125453E+00
         25   -1    0    0    0    0  0.00000000000E+00  0.00000000000E+00  0.99999998245E-14  0.12509000000E+03  0.12509000000E+03 0.  0.
        -13    1    3    3    0    0 -0.38341410585E+02 -0.43967668357E+01 -0.22404523644E+02  0.44624759585E+02  0.10566000000E+00 0.  1.
         23    2    1    0    0    0  0.11892142287E+01  0.26146227212E+02 -0.14398194771E+02  0.95217814935E+02  0.90410645615E+02 0.  0.
         13    1    3    3    0    0  0.39530624814E+02  0.30542994047E+02  0.80063288737E+01  0.50593055350E+02  0.10566000000E+00 0. -1.
         22    1    1    0    0    0 -0.11892142287E+01 -0.26146227212E+02  0.14398194771E+02  0.29872185065E+02  0.00000000000E+00 0.  1.
</event>
<event>
 5    1  0.1261138E-009  0.9118800E+02  0.7561462E-02  0.1125453E+00
         25   -1    0    0    0    0  0.00000000000E+00  0.00000000000E+00  0.99999998245E-14  0.12509000000E+03  0.12509000000E+03 0.  0.
        -13    1    3    3    0    0 -0.24608003894E+02 -0.26095942102E+02 -0.17933523508E+02  0.40102050811E+02  0.10566000000E+00 0. -1.
         23    2    1    0    0    0 -0.29989771123E+01 -0.55761703716E+01  0.28840753083E+02  0.95562443750E+02  0.90886215002E+02 0.  0.
         13    1    3    3    0    0  0.21609026782E+02  0.20519771730E+02  0.46774276590E+02  0.55460392939E+02  0.10566000000E+00 0.  1.
         22    1    1    0    0    0  0.29989771123E+01  0.55761703716E+01 -0.28840753083E+02  0.29527556250E+02  0.00000000000E+00 0.  1.
</event>
<event>
 5    1  0.1261138E-009  0.9118800E+02  0.7561462E-02  0.1125453E+00
         25   -1    0    0    0    0  0.00000000000E+00  0.00000000000E+00  0.99999998245E-14  0.12509000000E+03  0.12509000000E+03 0.  0.
        -13    1    3    3    0    0  0.77480223329E+01  0.35629043252E+02 -0.71936405543E+01  0.37164770974E+02  0.10566000000E+00 0. -1.
         23    2    1    0    0    0 -0.13404907651E+02 -0.11250863744E+02  0.22525401550E+02  0.96565147694E+02  0.92255951299E+02 0.  0.
         13    1    3    3    0    0 -0.21152929984E+02 -0.46879906996E+02  0.29719042104E+02  0.59400376720E+02  0.10566000000E+00 0.  1.
         22    1    1    0    0    0  0.13404907651E+02  0.11250863744E+02 -0.22525401550E+02  0.28524852306E+02  0.00000000000E+00 0.  1.
</event>
<event>
 5    1  0.1261138E-009  0.9118800E+02  0.7561462E-02  0.1125453E+00
         25   -1    0    0    0    0  0.00000000000E+00  0.00000000000E+00  0.99999998245E-14  0.12509000000E+03  0.12509000000E+03 0.  0.
        -13    1    3    3    0    0  0.80754663433E+01  0.29162552958E+02 -0.15397588645E+02  0.33952386540E+02  0.10566000000E+00 0.  1.
         23    2    1    0    0    0 -0.69193773530E+01 -0.25219848937E+02  0.11587078305E+02  0.96486172511E+02  0.92148806497E+02 0.  0.
         13    1    3    3    0    0 -0.14994843696E+02 -0.54382401895E+02  0.26984666950E+02  0.62533785970E+02  0.10566000000E+00 0. -1.
         22    1    1    0    0    0  0.69193773530E+01  0.25219848937E+02 -0.11587078305E+02  0.28603827489E+02  0.00000000000E+00 0. -1.
</event>
<event>
 5    1  0.1261138E-009  0.9118800E+02  0.7561462E-02  0.1125453E+00
         25   -1    0    0    0    0  0.00000000000E+00  0.00000000000E+00  0.99999998245E-14  0.12509000000E+03  0.12509000000E+03 0.  0.
        -13    1    3    3    0    0  0.29197725344E+01 -0.42207364441E+02 -0.32477999525E+02  0.53336838132E+02  0.10566000000E+00 0. -1.
         23    2    1    0    0    0  0.25258919083E+02 -0.22522255883E+02 -0.13445241354E+02  0.88675174470E+02  0.80853243898E+02 0.  0.
         13    1    3    3    0    0  0.22339146549E+02  0.19685108558E+02  0.19032758171E+02  0.35338336338E+02  0.10566000000E+00 0.  1.
         22    1    1    0    0    0 -0.25258919083E+02  0.22522255883E+02  0.13445241354E+02  0.36414825530E+02  0.00000000000E+00 0.  1.
</event>
<event>
 4    1  0.1261138E-009  0.9118800E+02  0.7561462E-02  0.1125453E+00
         25   -1    0    0    0    0  0.00000000000E+00  0.00000000000E+00  0.99999998245E-14  0.12509000000E+03  0.12509000000E+03 0.  0.
        -13    1    1    0    0    0 -0.12815500593E+02  0.30394747631E+01  0.48054086891E+02  0.49826517973E+02  0.10566000000E+00 0.  1.
         13    1    1    0    0    0 -0.51117897988E+01  0.15083743382E+02  0.47568356985E+01  0.16621924054E+02  0.10566000000E+00 0. -1.
         22    1    1    0    0    0  0.17927290392E+02 -0.18123218145E+02 -0.52810922590E+02  0.58641557973E+02  0.00000000000E+00 0.  1.
</event>
<event>
 5    1  0.1261138E-009  0.9118800E+02  0.7561462E-02  0.1125453E+00
         25   -1    0    0    0    0  0.00000000000E+00  0.00000000000E+00  0.99999998245E-14  0.12509000000E+03  0.12509000000E+03 0.  0.
        -13    1    3    3    0    0  0.10333678476E+02  0.31887941021E+02  0.16467186934E+02  0.37347089618E+02  0.10566000000E+00 0. -1.
         23    2    1    0    0    0 -0.23769872550E+02 -0.13236417248E+02 -0.41883216339E+01  0.97562711345E+02  0.93598776831E+02 0.  0.
         13    1    3    3    0    0 -0.34103551026E+02 -0.45124358269E+02 -0.20655508567E+02  0.60215621727E+02  0.10566000000E+00 0.  1.
         22    1    1    0    0    0  0.23769872550E+02  0.13236417248E+02  0.41883216339E+01  0.27527288655E+02  0.00000000000E+00 0.  1.
</event>
<event>
 5    1  0.1261138E-009  0.9118800E+02  0.7561462E-02  0.1125453E+00
         25   -1    0    0    0    0  0.00000000000E+00  0.00000000000E+00  0.99999998245E-14  0.12509000000E+03  0.12509000000E+03 0.  0.
        -13    1    3    3    0    0 -0.72117376420E+01 -0.46607261543E+02 -0.21969027864E+02  0.52027832337E+02  0.10566000000E+00 0.  1.
         23    2    1    0    0    0  0.19104960454E+02 -0.11123265049E+02 -0.18360002827E+02  0.96352981311E+02  0.91967824615E+02 0.  0.
         13    1    3    3    0    0  0.26316698096E+02  0.35483996494E+02  0.36090250371E+01  0.44325148974E+02  0.10566000000E+00 0. -1.
         22    1    1    0    0    0 -0.19104960454E+02  0.11123265049E+02  0.18360002827E+02  0.28737018689E+02  0.00000000000E+00 0.  1.
</event>
<event>
 5    1  0.1261138E-009  0.9118800E+02  0.7561462E-02  0.1125453E+00
         25   -1    0    0    0    0  0.00000000000E+00  0.00000000000E+00  0.99999998245E-14  0.12509000000E+03  0.12509000000E+03 0.  0.
        -13    1    3    3    0    0  0.14517773597E+02 -0.27471100889E+02 -0.18673701921E+00  0.31072064126E+02  0.10566000000E+00 0.  1.
         23    2    1    0    0    0 -0.13239625951E+02  0.23464390802E+02  0.18945682255E+02  0.92153633972E+02  0.86066765055E+02 0.  0.
         13    1    3    3    0    0 -0.27757399549E+02  0.50935491691E+02  0.19132419274E+02  0.61081569846E+02  0.10566000000E+00 0. -1.
         22    1    1    0    0    0  0.13239625951E+02 -0.23464390802E+02 -0.18945682255E+02  0.32936366028E+02  0.00000000000E+00 0. -1.
</event>
<event>
 5    1  0.1261138E-009  0.9118800E+02  0.7561462E-02  0.1125453E+00
         25   -1    0    0    0    0  0.00000000000E+00  0.00000000000E+00  0.99999998245E-14  0.12509000000E+03  0.12509000000E+03 0.  0.
        -13    1    3    3    0    0  0.30397485692E+01  0.16531877575E+02  0.59258577862E+02  0.61596536118E+02  0.10566000000E+00 0.  1.
         23    2    1    0    0    0 -0.61385801284E-01  0.79789085363E+01  0.49548310409E+02  0.74903330315E+02  0.55604020342E+02 0.  0.
         13    1    3    3    0    0 -0.31011343705E+01 -0.85529690383E+01 -0.97102674528E+01  0.13306794197E+02  0.10566000000E+00 0. -1.
         22    1    1    0    0    0  0.61385801284E-01 -0.79789085363E+01 -0.49548310409E+02  0.50186669685E+02  0.00000000000E+00 0.  1.
</event>
<event>
 5    1  0.1261138E-009  0.9118800E+02  0.7561462E-02  0.1125453E+00
         25   -1    0    0    0    0  0.00000000000E+00  0.00000000000E+00  0.99999998245E-14  0.12509000000E+03  0.12509000000E+03 0.  0.
        -13    1    3    3    0    0  0.49336594813E+02 -0.46611655255E+01 -0.20082980677E+02  0.53471144823E+02  0.10566000000E+00 0.  1.
         23    2    1    0    0    0  0.91039419331E+01  0.96572277049E+01 -0.25326639539E+02  0.96496600831E+02  0.92162961628E+02 0.  0.
         13    1    3    3    0    0 -0.40232652880E+02  0.14318393230E+02 -0.52436588621E+01  0.43025456008E+02  0.10566000000E+00 0. -1.
         22    1    1    0    0    0 -0.91039419331E+01 -0.96572277049E+01  0.25326639539E+02  0.28593399169E+02  0.00000000000E+00 0.  1.
</event>
<event>
 5    1  0.1261138E-009  0.9118800E+02  0.7561462E-02  0.1125453E+00
         25   -1    0    0    0    0  0.00000000000E+00  0.00000000000E+00  0.99999998245E-14  0.12509000000E+03  0.12509000000E+03 0.  0.
        -13    1    3    3    0    0 -0.23103933123E+02  0.16757690980E+02  0.21936007919E+02  0.35997382408E+02  0.10566000000E+00 0.  1.
         23    2    1    0    0    0  0.13554844705E+02 -0.26418836198E+02  0.83772654688E+01  0.94237653286E+02  0.89044191271E+02 0.  0.
         13    1    3    3    0    0  0.36658777828E+02 -0.43176527179E+02 -0.13558742451E+02  0.58240270878E+02  0.10566000000E+00 0. -1.
         22    1    1    0    0    0 -0.13554844705E+02  0.26418836198E+02 -0.83772654688E+01  0.30852346714E+02  0.00000000000E+00 0. -1.
</event>
<event>
 5    1  0.1261138E-009  0.9118800E+02  0.7561462E-02  0.1125453E+00
         25   -1    0    0    0    0  0.00000000000E+00  0.00000000000E+00  0.99999998245E-14  0.12509000000E+03  0.12509000000E+03 0.  0.
        -13    1    3    3    0    0  0.10754965543E+02 -0.49711159184E+01 -0.32434951636E+02  0.34531413654E+02  0.10566000000E+00 0.  1.
         23    2    1    0    0    0 -0.51470923478E+01  0.16509235729E+02  0.23141972726E+02  0.96200584539E+02  0.91760308086E+02 0.  0.
         13    1    3    3    0    0 -0.15902057891E+02  0.21480351647E+02  0.55576924362E+02  0.61669170885E+02  0.10566000000E+00 0. -1.
         22    1    1    0    0    0  0.51470923478E+01 -0.16509235729E+02 -0.23141972726E+02  0.28889415461E+02  0.00000000000E+00 0. -1.
</event>
<event>
 5    1  0.1261138E-009  0.9118800E+02  0.7561462E-02  0.1125453E+00
         25   -1    0    0    0    0  0.00000000000E+00  0.00000000000E+00  0.99999998245E-14  0.12509000000E+03  0.12509000000E+03 0.  0.
        -13    1    3    3    0    0 -0.93580642321E+01  0.29222341978E+02 -0.18575319793E+02  0.35868820810E+02  0.10566000000E+00 0.  1.
         23    2    1    0    0    0 -0.85873122419E+01 -0.69711048540E+01  0.28073042191E+02  0.94916602241E+02  0.89992929993E+02 0.  0.
         13    1    3    3    0    0  0.77075199017E+00 -0.36193446832E+02  0.46648361984E+02  0.59047781432E+02  0.10566000000E+00 0. -1.
         22    1    1    0    0    0  0.85873122419E+01  0.69711048540E+01 -0.28073042191E+02  0.30173397759E+02  0.00000000000E+00 0. -1.
</event>
<event>
 5    1  0.1261138E-009  0.9118800E+02  0.7561462E-02  0.1125453E+00
         25   -1    0    0    0    0  0.00000000000E+00  0.00000000000E+00  0.99999998245E-14  0.12509000000E+03  0.12509000000E+03 0.  0.
        -13    1    3    3    0    0 -0.52798731808E+02  0.14391547535E+02  0.28180329313E+02  0.61554568029E+02  0.10566000000E+00 0.  1.
         23    2    1    0    0    0 -0.28637619168E+02  0.44316514431E+00  0.10493469382E+02  0.94587171826E+02  0.89533851405E+02 0.  0.
         13    1    3    3    0    0  0.24161112640E+02 -0.13948382391E+02 -0.17686859932E+02  0.33032603797E+02  0.10566000000E+00 0. -1.
         22    1    1    0    0    0  0.28637619168E+02 -0.44316514431E+00 -0.10493469382E+02  0.30502828174E+02  0.00000000000E+00 0.  1.
</event>
<event>
 5    1  0.1261138E-009  0.9118800E+02  0.7561462E-02  0.1125453E+00
         25   -1    0    0    0    0  0.00000000000E+00  0.00000000000E+00  0.99999998245E-14  0.12509000000E+03  0.12509000000E+03 0.  0.
        -13    1    3    3    0    0  0.19434058990E+02  0.41535148614E+02 -0.29909841496E+02  0.54749073066E+02  0.10566000000E+00 0.  1.
         23    2    1    0    0    0  0.52903001501E+01  0.33236848364E+01 -0.28916344103E+02  0.95506404667E+02  0.90809053621E+02 0.  0.
         13    1    3    3    0    0 -0.14143758839E+02 -0.38211463777E+02  0.99349739348E+00  0.40757331601E+02  0.10566000000E+00 0. -1.
         22    1    1    0    0    0 -0.52903001501E+01 -0.33236848364E+01  0.28916344103E+02  0.29583595333E+02  0.00000000000E+00 0.  1.
</event>
<event>
 5    1  0.1261138E-009  0.9118800E+02  0.7561462E-02  0.1125453E+00
         25   -1    0    0    0    0  0.00000000000E+00  0.00000000000E+00  0.99999998245E-14  0.12509000000E+03  0.12509000000E+03 0.  0.
        -13    1    3    3    0    0 -0.53117666297E+02  0.19947193997E+02  0.66306872681E+01  0.57125775259E+02  0.10566000000E+00 0.  1.
         23    2    1    0    0    0 -0.29018763198E+02 -0.67077716723E+01 -0.49875414434E+01  0.94891351222E+02  0.89957824277E+02 0.  0.
         13    1    3    3    0    0  0.24098903099E+02 -0.26654965670E+02 -0.11618228712E+02  0.37765575963E+02  0.10566000000E+00 0. -1.
         22    1    1    0    0    0  0.29018763198E+02  0.67077716723E+01  0.49875414434E+01  0.30198648778E+02  0.00000000000E+00 0. -1.
</event>
<event>
 5    1  0.1261138E-009  0.9118800E+02  0.7561462E-02  0.1125453E+00
         25   -1    0    0    0    0  0.00000000000E+00  0.00000000000E+00  0.99999998245E-14  0.12509000000E+03  0.12509000000E+03 0.  0.
        -13    1    3    3    0    0 -0.15713378516E+02 -0.29752465495E+02 -0.13944283829E+02  0.36422159230E+02  0.10566000000E+00 0.  1.
         23    2    1    0    0    0  0.20283433091E+02  0.90570279263E+01  0.16438374491E+02  0.97455464203E+02  0.93455336575E+02 0.  0.
         13    1    3    3    0    0  0.35996811606E+02  0.38809493421E+02  0.30382658320E+02  0.61033304974E+02  0.10566000000E+00 0. -1.
         22    1    1    0    0    0 -0.20283433091E+02 -0.90570279263E+01 -0.16438374491E+02  0.27634535797E+02  0.00000000000E+00 0. -1.
</event>
<event>
 5    1  0.1261138E-009  0.9118800E+02  0.7561462E-02  0.1125453E+00
         25   -1    0    0    0    0  0.00000000000E+00  0.00000000000E+00  0.99999998245E-14  0.12509000000E+03  0.12509000000E+03 0.  0.
        -13    1    3    3    0    0 -0.28842091428E+02  0.32598309761E+02 -0.30561715419E+02  0.53184073279E+02  0.10566000000E+00 0.  1.
         23    2    1    0    0    0 -0.16224282724E+02  0.17181771712E+02  0.10810724072E+02  0.99103226749E+02  0.95635438871E+02 0.  0.
         13    1    3    3    0    0  0.12617808704E+02 -0.15416538049E+02  0.41372439491E+02  0.45919153470E+02  0.10566000000E+00 0. -1.
         22    1    1    0    0    0  0.16224282724E+02 -0.17181771712E+02 -0.10810724072E+02  0.25986773251E+02  0.00000000000E+00 0.  1.
</event>
<event>
 5    1  0.1261138E-009  0.9118800E+02  0.7561462E-02  0.1125453E+00
         25   -1    0    0    0    0  0.00000000000E+00  0.00000000000E+00  0.99999998245E-14  0.12509000000E+03  0.12509000000E+03 0.  0.
        -13    1    3    3    0    0  0.13579408572E+02 -0.37579147809E+02 -0.69348445232E+01  0.40554850756E+02  0.10566000000E+00 0.  1.
         23    2    1    0    0    0  0.15979524595E+02  0.79911839993E+01  0.23620574232E+02  0.95473522238E+02  0.90763746581E+02 0.  0.
         13    1    3    3    0    0  0.24001160232E+01  0.45570331808E+02  0.30555418755E+02  0.54918671482E+02  0.10566000000E+00 0. -1.
         22    1    1    0    0    0 -0.15979524595E+02 -0.79911839993E+01 -0.23620574232E+02  0.29616477762E+02  0.00000000000E+00 0. -1.
</event>
<event>
 5    1  0.1261138E-009  0.9118800E+02  0.7561462E-02  0.1125453E+00
         25   -1    0    0    0    0  0.00000000000E+00  0.00000000000E+00  0.99999998245E-14  0.12509000000E+03  0.12509000000E+03 0.  0.
        -13    1    3    3    0    0  0.22521587918E+02 -0.46320740569E+02 -0.17729164859E+02  0.54471711739E+02  0.10566000000E+00 0.  1.
         23    2    1    0    0    0  0.23369383628E+02 -0.54048617046E+01 -0.17502153333E+02  0.95397139031E+02  0.90658414628E+02 0.  0.
         13    1    3    3    0    0  0.84779571024E+00  0.40915878864E+02  0.22701152622E+00  0.40925427292E+02  0.10566000000E+00 0. -1.
         22    1    1    0    0    0 -0.23369383628E+02  0.54048617046E+01  0.17502153333E+02  0.29692860969E+02  0.00000000000E+00 0. -1.
</event>
<event>
 4    1  0.1261138E-009  0.9118800E+02  0.7561462E-02  0.1125453E+00
         25   -1    0    0    0    0  0.00000000000E+00  0.00000000000E+00  0.99999998245E-14  0.12509000000E+03  0.12509000000E+03 0.  0.
        -13    1    1    0    0    0 -0.10297563533E+02 -0.37820847894E+01 -0.35803084856E+01  0.11540093282E+02  0.10566000000E+00 0. -1.
         13    1    1    0    0    0  0.31980353069E+02  0.22016952930E+02  0.47460262503E+02  0.61318650341E+02  0.10566000000E+00 0.  1.
         22    1    1    0    0    0 -0.21682789536E+02 -0.18234868140E+02 -0.43879954018E+02  0.52231256377E+02  0.00000000000E+00 0.  1.
</event>
<event>
 5    1  0.1261138E-009  0.9118800E+02  0.7561462E-02  0.1125453E+00
         25   -1    0    0    0    0  0.00000000000E+00  0.00000000000E+00  0.99999998245E-14  0.12509000000E+03  0.12509000000E+03 0.  0.
        -13    1    3    3    0    0  0.32578083746E+02  0.16312587667E+02  0.95298164702E+01  0.37659801154E+02  0.10566000000E+00 0.  1.
         23    2    1    0    0    0 -0.41303711112E+01 -0.25743243328E+02  0.16976975322E+02  0.93977426438E+02  0.88677868977E+02 0.  0.
         13    1    3    3    0    0 -0.36708454857E+02 -0.42055830995E+02  0.74471588522E+01  0.56317625284E+02  0.10566000000E+00 0. -1.
         22    1    1    0    0    0  0.41303711112E+01  0.25743243328E+02 -0.16976975322E+02  0.31112573562E+02  0.00000000000E+00 0. -1.
</event>
<event>
 5    1  0.1261138E-009  0.9118800E+02  0.7561462E-02  0.1125453E+00
         25   -1    0    0    0    0  0.00000000000E+00  0.00000000000E+00  0.99999998245E-14  0.12509000000E+03  0.12509000000E+03 0.  0.
        -13    1    3    3    0    0  0.12684648794E+02 -0.57786955278E+01 -0.60090832122E+02  0.61686407791E+02  0.10566000000E+00 0. -1.
         23    2    1    0    0    0  0.71676249780E+00 -0.23970211255E+01 -0.37761756895E+02  0.87245452935E+02  0.78610173103E+02 0.  0.
         13    1    3    3    0    0 -0.11967886297E+02  0.33816744023E+01  0.22329075227E+02  0.25559045144E+02  0.10566000000E+00 0.  1.
         22    1    1    0    0    0 -0.71676249780E+00  0.23970211255E+01  0.37761756895E+02  0.37844547065E+02  0.00000000000E+00 0. -1.
</event>
<event>
 5    1  0.1261138E-009  0.9118800E+02  0.7561462E-02  0.1125453E+00
         25   -1    0    0    0    0  0.00000000000E+00  0.00000000000E+00  0.99999998245E-14  0.12509000000E+03  0.12509000000E+03 0.  0.
        -13    1    3    3    0    0 -0.90786400548E-01 -0.37032350889E+01 -0.43077260256E+02  0.43236370193E+02  0.10566000000E+00 0.  1.
         23    2    1    0    0    0 -0.14733160150E+02 -0.26702734322E+02  0.43976605378E+00  0.94589255378E+02  0.89536762341E+02 0.  0.
         13    1    3    3    0    0 -0.14642373749E+02 -0.22999499233E+02  0.43517026310E+02  0.51352885185E+02  0.10566000000E+00 0. -1.
         22    1    1    0    0    0  0.14733160150E+02  0.26702734322E+02 -0.43976605378E+00  0.30500744622E+02  0.00000000000E+00 0.  1.
</event>
<event>
 4    1  0.1261138E-009  0.9118800E+02  0.7561462E-02  0.1125453E+00
         25   -1    0    0    0    0  0.00000000000E+00  0.00000000000E+00  0.99999998245E-14  0.12509000000E+03  0.12509000000E+03 0.  0.
        -13    1    1    0    0    0  0.29731883287E+02  0.10391272181E+02 -0.47319516989E+02  0.56842864754E+02  0.10566000000E+00 0.  1.
         13    1    1    0    0    0 -0.98487875472E+01  0.51168020143E+01 -0.33974456820E+01  0.11607501032E+02  0.10566000000E+00 0. -1.
         22    1    1    0    0    0 -0.19883095739E+02 -0.15508074195E+02  0.50716962671E+02  0.56639634215E+02  0.00000000000E+00 0.  1.
</event>
<event>
 5    1  0.1261138E-009  0.9118800E+02  0.7561462E-02  0.1125453E+00
         25   -1    0    0    0    0  0.00000000000E+00  0.00000000000E+00  0.99999998245E-14  0.12509000000E+03  0.12509000000E+03 0.  0.
        -13    1    3    3    0    0  0.16243039861E+02 -0.56845680594E+02 -0.90474923981E+01  0.59809163419E+02  0.10566000000E+00 0.  1.
         23    2    1    0    0    0 -0.18517464323E+01 -0.24949076261E+02 -0.13351092573E+02  0.96732689760E+02  0.92482842864E+02 0.  0.
         13    1    3    3    0    0 -0.18094786293E+02  0.31896604333E+02 -0.43036001751E+01  0.36923526341E+02  0.10566000000E+00 0. -1.
         22    1    1    0    0    0  0.18517464323E+01  0.24949076261E+02  0.13351092573E+02  0.28357310240E+02  0.00000000000E+00 0.  1.
</event>
<event>
 5    1  0.1261138E-009  0.9118800E+02  0.7561462E-02  0.1125453E+00
         25   -1    0    0    0    0  0.00000000000E+00  0.00000000000E+00  0.99999998245E-14  0.12509000000E+03  0.12509000000E+03 0.  0.
        -13    1    3    3    0    0 -0.13668215878E+02  0.11166807633E+01 -0.40864995262E+02  0.43104826911E+02  0.10566000000E+00 0.  1.
         23    2    1    0    0    0  0.77537170098E+01 -0.28588534814E+02 -0.37756741469E+01  0.95228985859E+02  0.90426100116E+02 0.  0.
         13    1    3    3    0    0  0.21421932888E+02 -0.29705215577E+02  0.37089321115E+02  0.52124158948E+02  0.10566000000E+00 0. -1.
         22    1    1    0    0    0 -0.77537170098E+01  0.28588534814E+02  0.37756741469E+01  0.29861014141E+02  0.00000000000E+00 0. -1.
</event>
<event>
 5    1  0.1261138E-009  0.9118800E+02  0.7561462E-02  0.1125453E+00
         25   -1    0    0    0    0  0.00000000000E+00  0.00000000000E+00  0.99999998245E-14  0.12509000000E+03  0.12509000000E+03 0.  0.
        -13    1    3    3    0    0 -0.21654594224E+02  0.24724505329E+02 -0.16152411925E+02  0.36621499011E+02  0.10566000000E+00 0.  1.
         23    2    1    0    0    0  0.22479307006E+02  0.16157200155E+02  0.17109407037E+02  0.92546088596E+02  0.86635283488E+02 0.  0.
         13    1    3    3    0    0  0.44133901229E+02 -0.85673051739E+01  0.33261818962E+02  0.55924589586E+02  0.10566000000E+00 0. -1.
         22    1    1    0    0    0 -0.22479307006E+02 -0.16157200155E+02 -0.17109407037E+02  0.32543911404E+02  0.00000000000E+00 0. -1.
</event>
<event>
 5    1  0.1261138E-009  0.9118800E+02  0.7561462E-02  0.1125453E+00
         25   -1    0    0    0    0  0.00000000000E+00  0.00000000000E+00  0.99999998245E-14  0.12509000000E+03  0.12509000000E+03 0.  0.
        -13    1    3    3    0    0  0.28851230795E+02  0.19435698748E+02 -0.47190753209E+02  0.58626941389E+02  0.10566000000E+00 0.  1.
         23    2    1    0    0    0  0.13202813171E+02 -0.64642880733E+01 -0.24762083793E+02  0.96293088886E+02  0.91886325846E+02 0.  0.
         13    1    3    3    0    0 -0.15648417624E+02 -0.25899986821E+02  0.22428669416E+02  0.37666147497E+02  0.10566000000E+00 0. -1.
         22    1    1    0    0    0 -0.13202813171E+02  0.64642880733E+01  0.24762083793E+02  0.28796911114E+02  0.00000000000E+00 0.  1.
</event>
<event>
 5    1  0.1261138E-009  0.9118800E+02  0.7561462E-02  0.1125453E+00
         25   -1    0    0    0    0  0.00000000000E+00  0.00000000000E+00  0.99999998245E-14  0.12509000000E+03  0.12509000000E+03 0.  0.
        -13    1    3    3    0    0  0.38111698413E+02  0.33763536190E+02  0.16831820964E+02  0.53626479401E+02  0.10566000000E+00 0. -1.
         23    2    1    0    0    0  0.12049389606E+02  0.23355792250E+02 -0.13995766642E+02  0.95314803856E+02  0.90544737720E+02 0.  0.
         13    1    3    3    0    0 -0.26062308807E+02 -0.10407743940E+02 -0.30827587606E+02  0.41688324456E+02  0.10566000000E+00 0.  1.
         22    1    1    0    0    0 -0.12049389606E+02 -0.23355792250E+02  0.13995766642E+02  0.29775196144E+02  0.00000000000E+00 0. -1.
</event>
<event>
 5    1  0.1261138E-009  0.9118800E+02  0.7561462E-02  0.1125453E+00
         25   -1    0    0    0    0  0.00000000000E+00  0.00000000000E+00  0.99999998245E-14  0.12509000000E+03  0.12509000000E+03 0.  0.
        -13    1    3    3    0    0 -0.21599811355E+02 -0.15768227063E+02 -0.32560558002E+02  0.42135376309E+02  0.10566000000E+00 0.  1.
         23    2    1    0    0    0 -0.26401973081E+02  0.14849496246E+02  0.85459980826E+01  0.93616109161E+02  0.88166717586E+02 0.  0.
         13    1    3    3    0    0 -0.48021617259E+01  0.30617723309E+02  0.41106556084E+02  0.51480732852E+02  0.10566000000E+00 0. -1.
         22    1    1    0    0    0  0.26401973081E+02 -0.14849496246E+02 -0.85459980826E+01  0.31473890839E+02  0.00000000000E+00 0. -1.
</event>
<event>
 5    1  0.1261138E-009  0.9118800E+02  0.7561462E-02  0.1125453E+00
         25   -1    0    0    0    0  0.00000000000E+00  0.00000000000E+00  0.99999998245E-14  0.12509000000E+03  0.12509000000E+03 0.  0.
        -13    1    3    3    0    0 -0.16785080740E+02  0.19390186687E+02 -0.41758080334E+02  0.49004762140E+02  0.10566000000E+00 0.  1.
         23    2    1    0    0    0  0.20205005689E+02  0.58377976191E+00 -0.22779532716E+02  0.94635276812E+02  0.89601034887E+02 0.  0.
         13    1    3    3    0    0  0.36990086429E+02 -0.18806406925E+02  0.18978547618E+02  0.45630514672E+02  0.10566000000E+00 0. -1.
         22    1    1    0    0    0 -0.20205005689E+02 -0.58377976191E+00  0.22779532716E+02  0.30454723188E+02  0.00000000000E+00 0. -1.
</event>
<event>
 5    1  0.1261138E-009  0.9118800E+02  0.7561462E-02  0.1125453E+00
         25   -1    0    0    0    0  0.00000000000E+00  0.00000000000E+00  0.99999998245E-14  0.12509000000E+03  0.12509000000E+03 0.  0.
        -13    1    3    3    0    0 -0.12112520033E+02 -0.28774844641E+02  0.15782203527E+01  0.31260306607E+02  0.10566000000E+00 0.  1.
         23    2    1    0    0    0  0.17151760508E+01  0.30606464225E+02 -0.90008019515E+01  0.93141417606E+02  0.87490638109E+02 0.  0.
         13    1    3    3    0    0  0.13827696083E+02  0.59381308865E+02 -0.10579022304E+02  0.61881110999E+02  0.10566000000E+00 0. -1.
         22    1    1    0    0    0 -0.17151760508E+01 -0.30606464225E+02  0.90008019515E+01  0.31948582394E+02  0.00000000000E+00 0. -1.
</event>
<event>
 5    1  0.1261138E-009  0.9118800E+02  0.7561462E-02  0.1125453E+00
         25   -1    0    0    0    0  0.00000000000E+00  0.00000000000E+00  0.99999998245E-14  0.12509000000E+03  0.12509000000E+03 0.  0.
        -13    1    3    3    0    0  0.31332893717E+02  0.55601479003E+00 -0.42919351843E+02  0.53142650553E+02  0.10566000000E+00 0.  1.
         23    2    1    0    0    0 -0.65495916867E+01  0.12809608810E+02 -0.23726680163E+02  0.97342232870E+02  0.93303653302E+02 0.  0.
         13    1    3    3    0    0 -0.37882485404E+02  0.12253594020E+02  0.19192671680E+02  0.44199582317E+02  0.10566000000E+00 0. -1.
         22    1    1    0    0    0  0.65495916867E+01 -0.12809608810E+02  0.23726680163E+02  0.27747767130E+02  0.00000000000E+00 0.  1.
</event>
<event>
 5    1  0.1261138E-009  0.9118800E+02  0.7561462E-02  0.1125453E+00
         25   -1    0    0    0    0  0.00000000000E+00  0.00000000000E+00  0.99999998245E-14  0.12509000000E+03  0.12509000000E+03 0.  0.
        -13    1    3    3    0    0 -0.38337704749E+02 -0.18429611541E+02 -0.24024619309E+01  0.42605318615E+02  0.10566000000E+00 0.  1.
         23    2    1    0    0    0 -0.79441722093E+01  0.26607627947E+02 -0.43988095792E+01  0.96975497288E+02  0.92810677249E+02 0.  0.
         13    1    3    3    0    0  0.30393532539E+02  0.45037239488E+02 -0.19963476483E+01  0.54370178672E+02  0.10566000000E+00 0. -1.
         22    1    1    0    0    0  0.79441722093E+01 -0.26607627947E+02  0.43988095792E+01  0.28114502712E+02  0.00000000000E+00 0. -1.
</event>
<event>
 5    1  0.1261138E-009  0.9118800E+02  0.7561462E-02  0.1125453E+00
         25   -1    0    0    0    0  0.00000000000E+00  0.00000000000E+00  0.99999998245E-14  0.12509000000E+03  0.12509000000E+03 0.  0.
        -13    1    3    3    0    0  0.53231783318E+02  0.30246253972E+02 -0.99272884814E+01  0.62024356951E+02  0.10566000000E+00 0. -1.
         23    2    1    0    0    0  0.13449240703E+02  0.24572563655E+01 -0.86254710091E+00  0.11139094267E+03  0.11054536596E+03 0.  0.
         13    1    3    3    0    0 -0.39782542614E+02 -0.27788997606E+02  0.90647413805E+01  0.49366585715E+02  0.10566000000E+00 0.  1.
         22    1    1    0    0    0 -0.13449240703E+02 -0.24572563655E+01  0.86254710091E+00  0.13699057334E+02  0.00000000000E+00 0. -1.
</event>
<event>
 5    1  0.1261138E-009  0.9118800E+02  0.7561462E-02  0.1125453E+00
         25   -1    0    0    0    0  0.00000000000E+00  0.00000000000E+00  0.99999998245E-14  0.12509000000E+03  0.12509000000E+03 0.  0.
        -13    1    3    3    0    0  0.45298328006E+02  0.10002774403E+02  0.40658232690E+02  0.61685468835E+02  0.10566000000E+00 0.  1.
         23    2    1    0    0    0  0.27888773049E+02  0.34251898254E+01  0.15435661851E+02  0.93031066077E+02  0.87332720164E+02 0.  0.
         13    1    3    3    0    0 -0.17409554958E+02 -0.65775845771E+01 -0.25222570839E+02  0.31345597242E+02  0.10566000000E+00 0. -1.
         22    1    1    0    0    0 -0.27888773049E+02 -0.34251898254E+01 -0.15435661851E+02  0.32058933923E+02  0.00000000000E+00 0.  1.
</event>
<event>
 5    1  0.1261138E-009  0.9118800E+02  0.7561462E-02  0.1125453E+00
         25   -1    0    0    0    0  0.00000000000E+00  0.00000000000E+00  0.99999998245E-14  0.12509000000E+03  0.12509000000E+03 0.  0.
        -13    1    3    3    0    0  0.47393387985E+01 -0.26350575388E+02  0.22341777705E+02  0.34870909804E+02  0.10566000000E+00 0. -1.
         23    2    1    0    0    0  0.10562202531E+02  0.15554803350E+02 -0.21994393424E+02  0.96154461787E+02  0.91697410814E+02 0.  0.
         13    1    3    3    0    0  0.58228637322E+01  0.41905378738E+02 -0.44336171129E+02  0.61283551983E+02  0.10566000000E+00 0.  1.
         22    1    1    0    0    0 -0.10562202531E+02 -0.15554803350E+02  0.21994393424E+02  0.28935538213E+02  0.00000000000E+00 0.  1.
</event>
<event>
 5    1  0.1261138E-009  0.9118800E+02  0.7561462E-02  0.1125453E+00
         25   -1    0    0    0    0  0.00000000000E+00  0.00000000000E+00  0.99999998245E-14  0.12509000000E+03  0.12509000000E+03 0.  0.
        -13    1    3    3    0    0  0.53813669885E+01 -0.18437972333E+02  0.31211671154E+02  0.36648294840E+02  0.10566000000E+00 0.  1.
         23    2    1    0    0    0  0.25170739232E+01  0.25357877298E+02 -0.10808505455E+02  0.97410018202E+02  0.93394487277E+02 0.  0.
         13    1    3    3    0    0 -0.28642930653E+01  0.43795849631E+02 -0.42020176608E+02  0.60761723362E+02  0.10566000000E+00 0. -1.
         22    1    1    0    0    0 -0.25170739232E+01 -0.25357877298E+02  0.10808505455E+02  0.27679981798E+02  0.00000000000E+00 0. -1.
</event>
<event>
 5    1  0.1261138E-009  0.9118800E+02  0.7561462E-02  0.1125453E+00
         25   -1    0    0    0    0  0.00000000000E+00  0.00000000000E+00  0.99999998245E-14  0.12509000000E+03  0.12509000000E+03 0.  0.
        -13    1    3    3    0    0 -0.33157014852E+02 -0.18709359472E+02 -0.41205030653E+02  0.56100744031E+02  0.10566000000E+00 0.  1.
         23    2    1    0    0    0 -0.30211789700E+02  0.17296103114E+01 -0.10590075422E+02  0.93029221997E+02  0.87330078777E+02 0.  0.
         13    1    3    3    0    0  0.29452251514E+01  0.20438969784E+02  0.30614955231E+02  0.36928477965E+02  0.10566000000E+00 0. -1.
         22    1    1    0    0    0  0.30211789700E+02 -0.17296103114E+01  0.10590075422E+02  0.32060778003E+02  0.00000000000E+00 0.  1.
</event>
<event>
 5    1  0.1261138E-009  0.9118800E+02  0.7561462E-02  0.1125453E+00
         25   -1    0    0    0    0  0.00000000000E+00  0.00000000000E+00  0.99999998245E-14  0.12509000000E+03  0.12509000000E+03 0.  0.
        -13    1    3    3    0    0  0.35701681197E+02 -0.84604330177E+01 -0.21551294533E+02  0.42551832243E+02  0.10566000000E+00 0.  1.
         23    2    1    0    0    0  0.15112389702E+02 -0.13895556002E+01  0.26076333369E+02  0.94918981634E+02  0.89996237284E+02 0.  0.
         13    1    3    3    0    0 -0.20589291495E+02  0.70708774175E+01  0.47627627902E+02  0.52367149391E+02  0.10566000000E+00 0. -1.
         22    1    1    0    0    0 -0.15112389702E+02  0.13895556002E+01 -0.26076333369E+02  0.30171018366E+02  0.00000000000E+00 0. -1.
</event>
<event>
 5    1  0.1261138E-009  0.9118800E+02  0.7561462E-02  0.1125453E+00
         25   -1    0    0    0    0  0.00000000000E+00  0.00000000000E+00  0.99999998245E-14  0.12509000000E+03  0.12509000000E+03 0.  0.
        -13    1    3    3    0    0 -0.22568157980E+02  0.28508685583E+02 -0.72752347341E-01  0.36360464315E+02  0.10566000000E+00 0.  1.
         23    2    1    0    0    0  0.27747500697E+02  0.13857640423E+01 -0.12124160171E+02  0.94777636239E+02  0.89799559767E+02 0.  0.
         13    1    3    3    0    0  0.50315658677E+02 -0.27122921541E+02 -0.12051407823E+02  0.58417171924E+02  0.10566000000E+00 0. -1.
         22    1    1    0    0    0 -0.27747500697E+02 -0.13857640423E+01  0.12124160171E+02  0.30312363761E+02  0.00000000000E+00 0. -1.
</event>
<event>
 5    1  0.1261138E-009  0.9118800E+02  0.7561462E-02  0.1125453E+00
         25   -1    0    0    0    0  0.00000000000E+00  0.00000000000E+00  0.99999998245E-14  0.12509000000E+03  0.12509000000E+03 0.  0.
        -13    1    3    3    0    0 -0.29088328669E+02  0.83202843512E+01  0.16658320912E+02  0.34537933002E+02  0.10566000000E+00 0. -1.
         23    2    1    0    0    0  0.20913788749E+02 -0.67330821984E+01 -0.17555133447E+02  0.96966990451E+02  0.92799211048E+02 0.  0.
         13    1    3    3    0    0  0.50002117418E+02 -0.15053366550E+02 -0.34213454359E+02  0.62429057449E+02  0.10566000000E+00 0.  1.
         22    1    1    0    0    0 -0.20913788749E+02  0.67330821984E+01  0.17555133447E+02  0.28123009549E+02  0.00000000000E+00 0.  1.
</event>
<event>
 5    1  0.1261138E-009  0.9118800E+02  0.7561462E-02  0.1125453E+00
         25   -1    0    0    0    0  0.00000000000E+00  0.00000000000E+00  0.99999998245E-14  0.12509000000E+03  0.12509000000E+03 0.  0.
        -13    1    3    3    0    0  0.55055730720E+02  0.20770048207E+02  0.27951653516E+01  0.58909697852E+02  0.10566000000E+00 0. -1.
         23    2    1    0    0    0  0.24492627990E+02  0.11601054678E+02 -0.13581827611E+02  0.94775987782E+02  0.89797263451E+02 0.  0.
         13    1    3    3    0    0 -0.30563102730E+02 -0.91689935291E+01 -0.16376992963E+02  0.35866289930E+02  0.10566000000E+00 0.  1.
         22    1    1    0    0    0 -0.24492627990E+02 -0.11601054678E+02  0.13581827611E+02  0.30314012218E+02  0.00000000000E+00 0. -1.
</event>
<event>
 5    1  0.1261138E-009  0.9118800E+02  0.7561462E-02  0.1125453E+00
         25   -1    0    0    0    0  0.00000000000E+00  0.00000000000E+00  0.99999998245E-14  0.12509000000E+03  0.12509000000E+03 0.  0.
        -13    1    3    3    0    0 -0.56168555590E+02  0.17159858254E+02  0.16152531298E+02  0.60912090785E+02  0.10566000000E+00 0.  1.
         23    2    1    0    0    0 -0.22605616631E+02  0.16775636050E+02  0.37706405930E+01  0.96688352185E+02  0.92422853502E+02 0.  0.
         13    1    3    3    0    0  0.33562938959E+02 -0.38422220345E+00 -0.12381890705E+02  0.35776261400E+02  0.10566000000E+00 0. -1.
         22    1    1    0    0    0  0.22605616631E+02 -0.16775636050E+02 -0.37706405930E+01  0.28401647815E+02  0.00000000000E+00 0.  1.
</event>
<event>
 5    1  0.1261138E-009  0.9118800E+02  0.7561462E-02  0.1125453E+00
         25   -1    0    0    0    0  0.00000000000E+00  0.00000000000E+00  0.99999998245E-14  0.12509000000E+03  0.12509000000E+03 0.  0.
        -13    1    3    3    0    0  0.26850778962E+02 -0.55875283572E+00 -0.18684277549E+02  0.32716814136E+02  0.10566000000E+00 0.  1.
         23    2    1    0    0    0 -0.25536863415E+02 -0.29860276583E+01  0.15263909999E+02  0.95189586915E+02  0.90371581563E+02 0.  0.
         13    1    3    3    0    0 -0.52387642377E+02 -0.24272748226E+01  0.33948187548E+02  0.62472772779E+02  0.10566000000E+00 0. -1.
         22    1    1    0    0    0  0.25536863415E+02  0.29860276583E+01 -0.15263909999E+02  0.29900413085E+02  0.00000000000E+00 0. -1.
</event>
<event>
 5    1  0.1261138E-009  0.9118800E+02  0.7561462E-02  0.1125453E+00
         25   -1    0    0    0    0  0.00000000000E+00  0.00000000000E+00  0.99999998245E-14  0.12509000000E+03  0.12509000000E+03 0.  0.
        -13    1    3    3    0    0 -0.38448310246E+02  0.20457457400E+01  0.21830487731E+02  0.44261032467E+02  0.10566000000E+00 0. -1.
         23    2    1    0    0    0  0.12397603392E+02  0.17163982569E+02  0.17745012243E+02  0.97464136629E+02  0.93466943899E+02 0.  0.
         13    1    3    3    0    0  0.50845913638E+02  0.15118236829E+02 -0.40854754882E+01  0.53203104162E+02  0.10566000000E+00 0.  1.
         22    1    1    0    0    0 -0.12397603392E+02 -0.17163982569E+02 -0.17745012243E+02  0.27625863371E+02  0.00000000000E+00 0.  1.
</event>
<event>
 5    1  0.1261138E-009  0.9118800E+02  0.7561462E-02  0.1125453E+00
         25   -1    0    0    0    0  0.00000000000E+00  0.00000000000E+00  0.99999998245E-14  0.12509000000E+03  0.12509000000E+03 0.  0.
        -13    1    3    3    0    0  0.23787716490E+02 -0.35260611494E+02 -0.35078980478E+02  0.55133585174E+02  0.10566000000E+00 0.  1.
         23    2    1    0    0    0  0.88396855467E+01 -0.29129018126E+02  0.96579212639E+00  0.94633925204E+02  0.89599147918E+02 0.  0.
         13    1    3    3    0    0 -0.14948030944E+02  0.61315933680E+01  0.36044772605E+02  0.39500340030E+02  0.10566000000E+00 0. -1.
         22    1    1    0    0    0 -0.88396855467E+01  0.29129018126E+02 -0.96579212639E+00  0.30456074796E+02  0.00000000000E+00 0.  1.
</event>
<event>
 5    1  0.1261138E-009  0.9118800E+02  0.7561462E-02  0.1125453E+00
         25   -1    0    0    0    0  0.00000000000E+00  0.00000000000E+00  0.99999998245E-14  0.12509000000E+03  0.12509000000E+03 0.  0.
        -13    1    3    3    0    0  0.27306659342E+02  0.34419504831E+02  0.42470639398E+02  0.61107465437E+02  0.10566000000E+00 0.  1.
         23    2    1    0    0    0  0.14800389606E+02  0.75745967497E+01  0.23591482853E+02  0.96228535872E+02  0.91798404149E+02 0.  0.
         13    1    3    3    0    0 -0.12506269736E+02 -0.26844908081E+02 -0.18879156545E+02  0.35121070435E+02  0.10566000000E+00 0. -1.
         22    1    1    0    0    0 -0.14800389606E+02 -0.75745967497E+01 -0.23591482853E+02  0.28861464128E+02  0.00000000000E+00 0.  1.
</event>
<event>
 5    1  0.1261138E-009  0.9118800E+02  0.7561462E-02  0.1125453E+00
         25   -1    0    0    0    0  0.00000000000E+00  0.00000000000E+00  0.99999998245E-14  0.12509000000E+03  0.12509000000E+03 0.  0.
        -13    1    3    3    0    0  0.16822651737E+02  0.38055087270E+02  0.30365915080E+00  0.41608829009E+02  0.10566000000E+00 0.  1.
         23    2    1    0    0    0  0.20192335726E+02 -0.13560460236E+02  0.16368940894E+02  0.95771767961E+02  0.91173860336E+02 0.  0.
         13    1    3    3    0    0  0.33696839893E+01 -0.51615547505E+02  0.16065281743E+02  0.54162938953E+02  0.10566000000E+00 0. -1.
         22    1    1    0    0    0 -0.20192335726E+02  0.13560460236E+02 -0.16368940894E+02  0.29318232039E+02  0.00000000000E+00 0. -1.
</event>
<event>
 5    1  0.1261138E-009  0.9118800E+02  0.7561462E-02  0.1125453E+00
         25   -1    0    0    0    0  0.00000000000E+00  0.00000000000E+00  0.99999998245E-14  0.12509000000E+03  0.12509000000E+03 0.  0.
        -13    1    3    3    0    0  0.19463477627E+01 -0.31331195454E+02 -0.35986923459E+02  0.47754600849E+02  0.10566000000E+00 0.  1.
         23    2    1    0    0    0 -0.69131927405E+01 -0.25923868680E+02  0.11160792387E+02  0.96031395630E+02  0.91529374841E+02 0.  0.
         13    1    3    3    0    0 -0.88595405032E+01  0.54073267735E+01  0.47147715846E+02  0.48276794781E+02  0.10566000000E+00 0. -1.
         22    1    1    0    0    0  0.69131927405E+01  0.25923868680E+02 -0.11160792387E+02  0.29058604370E+02  0.00000000000E+00 0. -1.
</event>
<event>
 5    1  0.1261138E-009  0.9118800E+02  0.7561462E-02  0.1125453E+00
         25   -1    0    0    0    0  0.00000000000E+00  0.00000000000E+00  0.99999998245E-14  0.12509000000E+03  0.12509000000E+03 0.  0.
        -13    1    3    3    0    0  0.95926989115E+00  0.20470109367E+02 -0.40106661512E+02  0.45038883621E+02  0.10566000000E+00 0.  1.
         23    2    1    0    0    0 -0.19537535866E+02 -0.17413678883E+02 -0.13938521564E+02  0.95438121420E+02  0.90714944286E+02 0.  0.
         13    1    3    3    0    0 -0.20496805757E+02 -0.37883788249E+02  0.26168139947E+02  0.50399237799E+02  0.10566000000E+00 0. -1.
         22    1    1    0    0    0  0.19537535866E+02  0.17413678883E+02  0.13938521564E+02  0.29651878580E+02  0.00000000000E+00 0. -1.
</event>
<event>
 5    1  0.1261138E-009  0.9118800E+02  0.7561462E-02  0.1125453E+00
         25   -1    0    0    0    0  0.00000000000E+00  0.00000000000E+00  0.99999998245E-14  0.12509000000E+03  0.12509000000E+03 0.  0.
        -13    1    3    3    0    0  0.35440667753E+02 -0.37416280379E+02  0.29734614916E+01  0.51622394418E+02  0.10566000000E+00 0.  1.
         23    2    1    0    0    0 -0.47562932225E+01 -0.26993793288E+02  0.13607262972E+02  0.94488614298E+02  0.89396048152E+02 0.  0.
         13    1    3    3    0    0 -0.40196960976E+02  0.10422487091E+02  0.10633801480E+02  0.42866219880E+02  0.10566000000E+00 0. -1.
         22    1    1    0    0    0  0.47562932225E+01  0.26993793288E+02 -0.13607262972E+02  0.30601385702E+02  0.00000000000E+00 0.  1.
</event>
<event>
 5    1  0.1261138E-009  0.9118800E+02  0.7561462E-02  0.1125453E+00
         25   -1    0    0    0    0  0.00000000000E+00  0.00000000000E+00  0.99999998245E-14  0.12509000000E+03  0.12509000000E+03 0.  0.
        -13    1    3    3    0    0  0.39700285850E+02 -0.41466288258E+02  0.21493569727E+02  0.61298861834E+02  0.10566000000E+00 0. -1.
         23    2    1    0    0    0  0.30352510905E+02 -0.19417770327E+02  0.11290422636E+02  0.87330254688E+02  0.78744999955E+02 0.  0.
         13    1    3    3    0    0 -0.93477749459E+01  0.22048517930E+02 -0.10203147090E+02  0.26031392854E+02  0.10566000000E+00 0.  1.
         22    1    1    0    0    0 -0.30352510905E+02  0.19417770327E+02 -0.11290422636E+02  0.37759745312E+02  0.00000000000E+00 0. -1.
</event>
<event>
 5    1  0.1261138E-009  0.9118800E+02  0.7561462E-02  0.1125453E+00
         25   -1    0    0    0    0  0.00000000000E+00  0.00000000000E+00  0.99999998245E-14  0.12509000000E+03  0.12509000000E+03 0.  0.
        -13    1    3    3    0    0  0.63048312953E+01  0.22749828655E+02  0.54269621082E+02  0.59181995049E+02  0.10566000000E+00 0.  1.
         23    2    1    0    0    0  0.81802054789E+01  0.21957167860E+02  0.17912862889E+02  0.95595871110E+02  0.90932210653E+02 0.  0.
         13    1    3    3    0    0  0.18753741836E+01 -0.79266079495E+00 -0.36356758193E+02  0.36413876061E+02  0.10566000000E+00 0. -1.
         22    1    1    0    0    0 -0.81802054789E+01 -0.21957167860E+02 -0.17912862889E+02  0.29494128890E+02  0.00000000000E+00 0.  1.
</event>
<event>
 5    1  0.1261138E-009  0.9118800E+02  0.7561462E-02  0.1125453E+00
         25   -1    0    0    0    0  0.00000000000E+00  0.00000000000E+00  0.99999998245E-14  0.12509000000E+03  0.12509000000E+03 0.  0.
        -13    1    3    3    0    0 -0.19003326195E+02  0.26235395591E+02 -0.17046414996E+02  0.36606199154E+02  0.10566000000E+00 0. -1.
         23    2    1    0    0    0  0.16936655247E+02 -0.18819064919E+02 -0.17622931044E+02  0.94242387548E+02  0.89050841753E+02 0.  0.
         13    1    3    3    0    0  0.35939981441E+02 -0.45054460510E+02 -0.57651604859E+00  0.57636188394E+02  0.10566000000E+00 0.  1.
         22    1    1    0    0    0 -0.16936655247E+02  0.18819064919E+02  0.17622931044E+02  0.30847612452E+02  0.00000000000E+00 0.  1.
</event>
<event>
 5    1  0.1261138E-009  0.9118800E+02  0.7561462E-02  0.1125453E+00
         25   -1    0    0    0    0  0.00000000000E+00  0.00000000000E+00  0.99999998245E-14  0.12509000000E+03  0.12509000000E+03 0.  0.
        -13    1    3    3    0    0 -0.26612618607E+02 -0.50141313500E+01  0.29739903241E+02  0.40222456304E+02  0.10566000000E+00 0. -1.
         23    2    1    0    0    0  0.26323179701E+02 -0.32188352567E+01  0.10064015633E+02  0.96725319487E+02  0.92472873477E+02 0.  0.
         13    1    3    3    0    0  0.52935798308E+02  0.17952960933E+01 -0.19675887608E+02  0.56502863182E+02  0.10566000000E+00 0.  1.
         22    1    1    0    0    0 -0.26323179701E+02  0.32188352567E+01 -0.10064015633E+02  0.28364680513E+02  0.00000000000E+00 0.  1.
</event>
<event>
 5    1  0.1261138E-009  0.9118800E+02  0.7561462E-02  0.1125453E+00
         25   -1    0    0    0    0  0.00000000000E+00  0.00000000000E+00  0.99999998245E-14  0.12509000000E+03  0.12509000000E+03 0.  0.
        -13    1    3    3    0    0 -0.40858889355E+02 -0.42440798017E+02  0.35029881656E+01  0.59016542306E+02  0.10566000000E+00 0. -1.
         23    2    1    0    0    0 -0.27938491930E+02 -0.78712539046E+01  0.27723141493E+00  0.96062550463E+02  0.91571943164E+02 0.  0.
         13    1    3    3    0    0  0.12920397424E+02  0.34569544112E+02 -0.32257567506E+01  0.37046008157E+02  0.10566000000E+00 0.  1.
         22    1    1    0    0    0  0.27938491930E+02  0.78712539046E+01 -0.27723141493E+00  0.29027449537E+02  0.00000000000E+00 0. -1.
</event>
<event>
 5    1  0.1261138E-009  0.9118800E+02  0.7561462E-02  0.1125453E+00
         25   -1    0    0    0    0  0.00000000000E+00  0.00000000000E+00  0.99999998245E-14  0.12509000000E+03  0.12509000000E+03 0.  0.
        -13    1    3    3    0    0 -0.17566218934E+01 -0.46190456604E+02  0.23181439615E+02  0.51711065629E+02  0.10566000000E+00 0.  1.
         23    2    1    0    0    0  0.17837099447E+02 -0.62532260888E+01  0.21826779186E+02  0.96216599736E+02  0.91782137815E+02 0.  0.
         13    1    3    3    0    0  0.19593721341E+02  0.39937230516E+02 -0.13546604294E+01  0.44505534107E+02  0.10566000000E+00 0. -1.
         22    1    1    0    0    0 -0.17837099447E+02  0.62532260888E+01 -0.21826779186E+02  0.28873400264E+02  0.00000000000E+00 0.  1.
</event>
<event>
 5    1  0.1261138E-009  0.9118800E+02  0.7561462E-02  0.1125453E+00
         25   -1    0    0    0    0  0.00000000000E+00  0.00000000000E+00  0.99999998245E-14  0.12509000000E+03  0.12509000000E+03 0.  0.
        -13    1    3    3    0    0 -0.51032140987E+02 -0.30431536595E+02 -0.43148850112E+01  0.59573376856E+02  0.10566000000E+00 0. -1.
         23    2    1    0    0    0 -0.24968295103E+02 -0.48881124032E+01 -0.12144717611E+02  0.96897739199E+02  0.92705815852E+02 0.  0.
         13    1    3    3    0    0  0.26063845884E+02  0.25543424192E+02 -0.78298326000E+01  0.37324362343E+02  0.10566000000E+00 0.  1.
         22    1    1    0    0    0  0.24968295103E+02  0.48881124032E+01  0.12144717611E+02  0.28192260801E+02  0.00000000000E+00 0. -1.
</event>
<event>
 5    1  0.1261138E-009  0.9118800E+02  0.7561462E-02  0.1125453E+00
         25   -1    0    0    0    0  0.00000000000E+00  0.00000000000E+00  0.99999998245E-14  0.12509000000E+03  0.12509000000E+03 0.  0.
        -13    1    3    3    0    0  0.37863723155E+02  0.21016517365E+02 -0.97157225357E+01  0.44382000426E+02  0.10566000000E+00 0. -1.
         23    2    1    0    0    0  0.16867917439E+02 -0.24249163001E+02  0.14552846559E+01  0.95515240518E+02  0.90821224242E+02 0.  0.
         13    1    3    3    0    0 -0.20995805716E+02 -0.45265680366E+02  0.11171007192E+02  0.51133240093E+02  0.10566000000E+00 0.  1.
         22    1    1    0    0    0 -0.16867917439E+02  0.24249163001E+02 -0.14552846559E+01  0.29574759482E+02  0.00000000000E+00 0. -1.
</event>
<event>
 5    1  0.1261138E-009  0.9118800E+02  0.7561462E-02  0.1125453E+00
         25   -1    0    0    0    0  0.00000000000E+00  0.00000000000E+00  0.99999998245E-14  0.12509000000E+03  0.12509000000E+03 0.  0.
        -13    1    3    3    0    0  0.62653326939E+01 -0.43636797009E+02  0.29979417643E+01  0.44186233895E+02  0.10566000000E+00 0.  1.
         23    2    1    0    0    0 -0.26755238688E+02 -0.41625263081E+01  0.10206662829E+02  0.96153079144E+02  0.91695524647E+02 0.  0.
         13    1    3    3    0    0 -0.33020571381E+02  0.39474270701E+02  0.72087210648E+01  0.51966845249E+02  0.10566000000E+00 0. -1.
         22    1    1    0    0    0  0.26755238688E+02  0.41625263081E+01 -0.10206662829E+02  0.28936920856E+02  0.00000000000E+00 0.  1.
</event>
<event>
 5    1  0.1261138E-009  0.9118800E+02  0.7561462E-02  0.1125453E+00
         25   -1    0    0    0    0  0.00000000000E+00  0.00000000000E+00  0.99999998245E-14  0.12509000000E+03  0.12509000000E+03 0.  0.
        -13    1    3    3    0    0  0.16976318373E+02 -0.26955533749E+02 -0.21427548007E+02  0.38392019520E+02  0.10566000000E+00 0.  1.
         23    2    1    0    0    0 -0.30965878859E+02 -0.11463628844E+02 -0.13598215725E+02  0.89379890637E+02  0.81936273650E+02 0.  0.
         13    1    3    3    0    0 -0.47942197232E+02  0.15491904905E+02  0.78293322826E+01  0.50987871117E+02  0.10566000000E+00 0. -1.
         22    1    1    0    0    0  0.30965878859E+02  0.11463628844E+02  0.13598215725E+02  0.35710109363E+02  0.00000000000E+00 0.  1.
</event>
<event>
 5    1  0.1261138E-009  0.9118800E+02  0.7561462E-02  0.1125453E+00
         25   -1    0    0    0    0  0.00000000000E+00  0.00000000000E+00  0.99999998245E-14  0.12509000000E+03  0.12509000000E+03 0.  0.
        -13    1    3    3    0    0 -0.38696411441E+02  0.65469739892E+01  0.23782433474E+02  0.45889981835E+02  0.10566000000E+00 0. -1.
         23    2    1    0    0    0  0.56986600355E+01 -0.15642505496E+02  0.24430957181E+02  0.95525927663E+02  0.90835942681E+02 0.  0.
         13    1    3    3    0    0  0.44395071476E+02 -0.22189479485E+02  0.64852370646E+00  0.49635945828E+02  0.10566000000E+00 0.  1.
         22    1    1    0    0    0 -0.56986600355E+01  0.15642505496E+02 -0.24430957181E+02  0.29564072337E+02  0.00000000000E+00 0. -1.
</event>
<event>
 5    1  0.1261138E-009  0.9118800E+02  0.7561462E-02  0.1125453E+00
         25   -1    0    0    0    0  0.00000000000E+00  0.00000000000E+00  0.99999998245E-14  0.12509000000E+03  0.12509000000E+03 0.  0.
        -13    1    3    3    0    0  0.70579183699E+01  0.22106587035E+02 -0.67141716983E+01  0.24157952473E+02  0.10566000000E+00 0. -1.
         23    2    1    0    0    0 -0.18793058461E+02 -0.32294223819E+02 -0.14744641124E+02  0.84921599729E+02  0.74820971126E+02 0.  0.
         13    1    3    3    0    0 -0.25850976831E+02 -0.54400810854E+02 -0.80304694261E+01  0.60763647257E+02  0.10566000000E+00 0.  1.
         22    1    1    0    0    0  0.18793058461E+02  0.32294223819E+02  0.14744641124E+02  0.40168400271E+02  0.00000000000E+00 0.  1.
</event>
<event>
 5    1  0.1261138E-009  0.9118800E+02  0.7561462E-02  0.1125453E+00
         25   -1    0    0    0    0  0.00000000000E+00  0.00000000000E+00  0.99999998245E-14  0.12509000000E+03  0.12509000000E+03 0.  0.
        -13    1    3    3    0    0  0.29570297811E+02 -0.16027629076E+02 -0.13988283678E+02  0.36427608359E+02  0.10566000000E+00 0.  1.
         23    2    1    0    0    0 -0.22506457155E+02 -0.14411076000E+02  0.13294973520E+02  0.95240778134E+02  0.90442411365E+02 0.  0.
         13    1    3    3    0    0 -0.52076754966E+02  0.16165530757E+01  0.27283257198E+02  0.58813169775E+02  0.10566000000E+00 0. -1.
         22    1    1    0    0    0  0.22506457155E+02  0.14411076000E+02 -0.13294973520E+02  0.29849221866E+02  0.00000000000E+00 0. -1.
</event>
<event>
 5    1  0.1261138E-009  0.9118800E+02  0.7561462E-02  0.1125453E+00
         25   -1    0    0    0    0  0.00000000000E+00  0.00000000000E+00  0.99999998245E-14  0.12509000000E+03  0.12509000000E+03 0.  0.
        -13    1    3    3    0    0  0.71595277023E+01  0.32656034704E+02  0.77110692016E+01  0.34309578717E+02  0.10566000000E+00 0. -1.
         23    2    1    0    0    0  0.29962600523E+01 -0.27218978483E+02  0.13410311367E+02  0.94599233940E+02  0.89550702103E+02 0.  0.
         13    1    3    3    0    0 -0.41632676500E+01 -0.59875013186E+02  0.56992421659E+01  0.60289655223E+02  0.10566000000E+00 0.  1.
         22    1    1    0    0    0 -0.29962600523E+01  0.27218978483E+02 -0.13410311367E+02  0.30490766060E+02  0.00000000000E+00 0.  1.
</event>
<event>
 5    1  0.1261138E-009  0.9118800E+02  0.7561462E-02  0.1125453E+00
         25   -1    0    0    0    0  0.00000000000E+00  0.00000000000E+00  0.99999998245E-14  0.12509000000E+03  0.12509000000E+03 0.  0.
        -13    1    3    3    0    0  0.97776436792E+01  0.50305076200E+02 -0.22412577213E+02  0.55933333431E+02  0.10566000000E+00 0.  1.
         23    2    1    0    0    0 -0.10786093409E+02  0.26816198838E+02  0.27847405700E+01  0.96052040168E+02  0.91557584663E+02 0.  0.
         13    1    3    3    0    0 -0.20563737088E+02 -0.23488877362E+02  0.25197317783E+02  0.40118706737E+02  0.10566000000E+00 0. -1.
         22    1    1    0    0    0  0.10786093409E+02 -0.26816198838E+02 -0.27847405700E+01  0.29037959832E+02  0.00000000000E+00 0.  1.
</event>
<event>
 5    1  0.1261138E-009  0.9118800E+02  0.7561462E-02  0.1125453E+00
         25   -1    0    0    0    0  0.00000000000E+00  0.00000000000E+00  0.99999998245E-14  0.12509000000E+03  0.12509000000E+03 0.  0.
        -13    1    3    3    0    0 -0.28525138270E+02 -0.25621877957E+02 -0.10438402754E+02  0.39738338660E+02  0.10566000000E+00 0.  1.
         23    2    1    0    0    0 -0.85612572726E+01  0.25677670993E+02 -0.13444303302E+02  0.94867703513E+02  0.89924935167E+02 0.  0.
         13    1    3    3    0    0  0.19963880997E+02  0.51299548950E+02 -0.30059005481E+01  0.55129364853E+02  0.10566000000E+00 0. -1.
         22    1    1    0    0    0  0.85612572726E+01 -0.25677670993E+02  0.13444303302E+02  0.30222296487E+02  0.00000000000E+00 0. -1.
</event>
<event>
 5    1  0.1261138E-009  0.9118800E+02  0.7561462E-02  0.1125453E+00
         25   -1    0    0    0    0  0.00000000000E+00  0.00000000000E+00  0.99999998245E-14  0.12509000000E+03  0.12509000000E+03 0.  0.
        -13    1    3    3    0    0  0.48799362231E+02  0.19554293379E+02 -0.31035635603E+01  0.52662998533E+02  0.10566000000E+00 0.  1.
         23    2    1    0    0    0  0.12287892251E+02  0.17592295031E+02  0.19869151433E+02  0.95845097554E+02  0.91274412658E+02 0.  0.
         13    1    3    3    0    0 -0.36511469980E+02 -0.19619983487E+01  0.22972714993E+02  0.43182099020E+02  0.10566000000E+00 0. -1.
         22    1    1    0    0    0 -0.12287892251E+02 -0.17592295031E+02 -0.19869151433E+02  0.29244902446E+02  0.00000000000E+00 0.  1.
</event>
<event>
 5    1  0.1261138E-009  0.9118800E+02  0.7561462E-02  0.1125453E+00
         25   -1    0    0    0    0  0.00000000000E+00  0.00000000000E+00  0.99999998245E-14  0.12509000000E+03  0.12509000000E+03 0.  0.
        -13    1    3    3    0    0 -0.16484071568E+02  0.35036767647E+02  0.26569547397E+02  0.46960107703E+02  0.10566000000E+00 0.  1.
         23    2    1    0    0    0  0.15602636133E+02  0.25251572508E+02 -0.71859364605E+01  0.94549504732E+02  0.89481210284E+02 0.  0.
         13    1    3    3    0    0  0.32086707701E+02 -0.97851951390E+01 -0.33755483858E+02  0.47589397028E+02  0.10566000000E+00 0. -1.
         22    1    1    0    0    0 -0.15602636133E+02 -0.25251572508E+02  0.71859364605E+01  0.30540495268E+02  0.00000000000E+00 0.  1.
</event>
<event>
 5    1  0.1261138E-009  0.9118800E+02  0.7561462E-02  0.1125453E+00
         25   -1    0    0    0    0  0.00000000000E+00  0.00000000000E+00  0.99999998245E-14  0.12509000000E+03  0.12509000000E+03 0.  0.
        -13    1    3    3    0    0 -0.29578931923E+02 -0.19252702185E+02  0.36286673890E+02  0.50619300876E+02  0.10566000000E+00 0.  1.
         23    2    1    0    0    0 -0.23631071766E+02  0.13536021671E+02  0.30472773372E+01  0.97686764157E+02  0.93764420527E+02 0.  0.
         13    1    3    3    0    0  0.59478601567E+01  0.32788723856E+02 -0.33239396553E+02  0.47067463281E+02  0.10566000000E+00 0. -1.
         22    1    1    0    0    0  0.23631071766E+02 -0.13536021671E+02 -0.30472773372E+01  0.27403235843E+02  0.00000000000E+00 0. -1.
</event>
<event>
 5    1  0.1261138E-009  0.9118800E+02  0.7561462E-02  0.1125453E+00
         25   -1    0    0    0    0  0.00000000000E+00  0.00000000000E+00  0.99999998245E-14  0.12509000000E+03  0.12509000000E+03 0.  0.
        -13    1    3    3    0    0 -0.44036168772E+02 -0.26917954581E+02  0.32445069251E+02  0.60962727315E+02  0.10566000000E+00 0. -1.
         23    2    1    0    0    0 -0.18240663414E+02 -0.70234562144E+01  0.23053275362E+02  0.94865767274E+02  0.89922241723E+02 0.  0.
         13    1    3    3    0    0  0.25795505358E+02  0.19894498367E+02 -0.93917938890E+01  0.33903039958E+02  0.10566000000E+00 0.  1.
         22    1    1    0    0    0  0.18240663414E+02  0.70234562144E+01 -0.23053275362E+02  0.30224232726E+02  0.00000000000E+00 0. -1.
</event>
<event>
 5    1  0.1261138E-009  0.9118800E+02  0.7561462E-02  0.1125453E+00
         25   -1    0    0    0    0  0.00000000000E+00  0.00000000000E+00  0.99999998245E-14  0.12509000000E+03  0.12509000000E+03 0.  0.
        -13    1    3    3    0    0 -0.27674581139E+02  0.16953555449E+02  0.48581754689E+01  0.32816436682E+02  0.10566000000E+00 0.  1.
         23    2    1    0    0    0  0.21631214685E+02 -0.76067045297E+01 -0.21297720848E+02  0.93795203054E+02  0.88420448993E+02 0.  0.
         13    1    3    3    0    0  0.49305795824E+02 -0.24560259979E+02 -0.26155896317E+02  0.60978766372E+02  0.10566000000E+00 0. -1.
         22    1    1    0    0    0 -0.21631214685E+02  0.76067045297E+01  0.21297720848E+02  0.31294796946E+02  0.00000000000E+00 0. -1.
</event>
<event>
 5    1  0.1261138E-009  0.9118800E+02  0.7561462E-02  0.1125453E+00
         25   -1    0    0    0    0  0.00000000000E+00  0.00000000000E+00  0.99999998245E-14  0.12509000000E+03  0.12509000000E+03 0.  0.
        -13    1    3    3    0    0  0.49243069191E+02 -0.28489517712E+02 -0.19819784655E+02  0.60244232177E+02  0.10566000000E+00 0.  1.
         23    2    1    0    0    0  0.20699375033E+02 -0.15874217142E+02 -0.21191091446E+02  0.91481708563E+02  0.85084579968E+02 0.  0.
         13    1    3    3    0    0 -0.28543694158E+02  0.12615300570E+02 -0.13713067905E+01  0.31237476386E+02  0.10566000000E+00 0. -1.
         22    1    1    0    0    0 -0.20699375033E+02  0.15874217142E+02  0.21191091446E+02  0.33608291437E+02  0.00000000000E+00 0.  1.
</event>
<event>
 5    1  0.1261138E-009  0.9118800E+02  0.7561462E-02  0.1125453E+00
         25   -1    0    0    0    0  0.00000000000E+00  0.00000000000E+00  0.99999998245E-14  0.12509000000E+03  0.12509000000E+03 0.  0.
        -13    1    3    3    0    0 -0.32574688393E+02  0.16933317545E+02 -0.81498106225E+01  0.37606889584E+02  0.10566000000E+00 0. -1.
         23    2    1    0    0    0  0.52377263543E+01 -0.27772583984E+02  0.66916345965E+00  0.96819910183E+02  0.92600739898E+02 0.  0.
         13    1    3    3    0    0  0.37812414747E+02 -0.44705901529E+02  0.88189740821E+01  0.59213020599E+02  0.10566000000E+00 0.  1.
         22    1    1    0    0    0 -0.52377263543E+01  0.27772583984E+02 -0.66916345965E+00  0.28270089817E+02  0.00000000000E+00 0.  1.
</event>
<event>
 5    1  0.1261138E-009  0.9118800E+02  0.7561462E-02  0.1125453E+00
         25   -1    0    0    0    0  0.00000000000E+00  0.00000000000E+00  0.99999998245E-14  0.12509000000E+03  0.12509000000E+03 0.  0.
        -13    1    3    3    0    0 -0.89323566564E+00 -0.25784194053E+02  0.27000287261E+02  0.37345002465E+02  0.10566000000E+00 0.  1.
         23    2    1    0    0    0 -0.22008576327E+02  0.15452757100E+01 -0.19756847025E+02  0.95474154354E+02  0.90764617756E+02 0.  0.
         13    1    3    3    0    0 -0.21115340661E+02  0.27329469763E+02 -0.46757134285E+02  0.58129151889E+02  0.10566000000E+00 0. -1.
         22    1    1    0    0    0  0.22008576327E+02 -0.15452757100E+01  0.19756847025E+02  0.29615845646E+02  0.00000000000E+00 0. -1.
</event>
<event>
 5    1  0.1261138E-009  0.9118800E+02  0.7561462E-02  0.1125453E+00
         25   -1    0    0    0    0  0.00000000000E+00  0.00000000000E+00  0.99999998245E-14  0.12509000000E+03  0.12509000000E+03 0.  0.
        -13    1    3    3    0    0  0.94832628434E+01 -0.33720259386E+02  0.38846657478E+00  0.35030704211E+02  0.10566000000E+00 0.  1.
         23    2    1    0    0    0  0.13505162888E+02  0.25136206419E+02 -0.98436724485E+01  0.94905298824E+02  0.89977216893E+02 0.  0.
         13    1    3    3    0    0  0.40219000446E+01  0.58856465805E+02 -0.10232139023E+02  0.59874594613E+02  0.10566000000E+00 0. -1.
         22    1    1    0    0    0 -0.13505162888E+02 -0.25136206419E+02  0.98436724485E+01  0.30184701176E+02  0.00000000000E+00 0. -1.
</event>
<event>
 5    1  0.1261138E-009  0.9118800E+02  0.7561462E-02  0.1125453E+00
         25   -1    0    0    0    0  0.00000000000E+00  0.00000000000E+00  0.99999998245E-14  0.12509000000E+03  0.12509000000E+03 0.  0.
        -13    1    3    3    0    0 -0.12628598654E+02  0.33268930588E+02 -0.99799258952E+01  0.36958264724E+02  0.10566000000E+00 0. -1.
         23    2    1    0    0    0  0.20886528223E+02 -0.26358082850E+01  0.21262032734E+02  0.95168960872E+02  0.90343027019E+02 0.  0.
         13    1    3    3    0    0  0.33515126877E+02 -0.35904738873E+02  0.31241958629E+02  0.58210696149E+02  0.10566000000E+00 0.  1.
         22    1    1    0    0    0 -0.20886528223E+02  0.26358082850E+01 -0.21262032734E+02  0.29921039128E+02  0.00000000000E+00 0.  1.
</event>
<event>
 5    1  0.1261138E-009  0.9118800E+02  0.7561462E-02  0.1125453E+00
         25   -1    0    0    0    0  0.00000000000E+00  0.00000000000E+00  0.99999998245E-14  0.12509000000E+03  0.12509000000E+03 0.  0.
        -13    1    3    3    0    0 -0.37802896883E+02  0.30129782921E+02  0.48337536494E+01  0.48582292762E+02  0.10566000000E+00 0.  1.
         23    2    1    0    0    0 -0.22410319412E+02 -0.12210609228E+02  0.15962513693E+02  0.94988119041E+02  0.90092283364E+02 0.  0.
         13    1    3    3    0    0  0.15392577472E+02 -0.42340392149E+02  0.11128760044E+02  0.46405826280E+02  0.10566000000E+00 0. -1.
         22    1    1    0    0    0  0.22410319412E+02  0.12210609228E+02 -0.15962513693E+02  0.30101880959E+02  0.00000000000E+00 0.  1.
</event>
<event>
 5    1  0.1261138E-009  0.9118800E+02  0.7561462E-02  0.1125453E+00
         25   -1    0    0    0    0  0.00000000000E+00  0.00000000000E+00  0.99999998245E-14  0.12509000000E+03  0.12509000000E+03 0.  0.
        -13    1    3    3    0    0  0.36130902298E+02 -0.38681672450E+02  0.33044668423E+02  0.62399320186E+02  0.10566000000E+00 0. -1.
         23    2    1    0    0    0  0.15365028974E+02 -0.17492898206E+02  0.17979033081E+02  0.95673487060E+02  0.91038919660E+02 0.  0.
         13    1    3    3    0    0 -0.20765873324E+02  0.21188774244E+02 -0.15065635343E+02  0.33274166875E+02  0.10566000000E+00 0.  1.
         22    1    1    0    0    0 -0.15365028974E+02  0.17492898206E+02 -0.17979033081E+02  0.29416512940E+02  0.00000000000E+00 0. -1.
</event>
<event>
 5    1  0.1261138E-009  0.9118800E+02  0.7561462E-02  0.1125453E+00
         25   -1    0    0    0    0  0.00000000000E+00  0.00000000000E+00  0.99999998245E-14  0.12509000000E+03  0.12509000000E+03 0.  0.
        -13    1    3    3    0    0  0.53612412786E+02 -0.81160088700E+01 -0.27791511674E+02  0.60930613733E+02  0.10566000000E+00 0. -1.
         23    2    1    0    0    0  0.28955175311E+02 -0.45089513966E+01 -0.37680620967E+01  0.95544592371E+02  0.90861642178E+02 0.  0.
         13    1    3    3    0    0 -0.24657237475E+02  0.36070574734E+01  0.24023449578E+02  0.34613978638E+02  0.10566000000E+00 0.  1.
         22    1    1    0    0    0 -0.28955175311E+02  0.45089513966E+01  0.37680620967E+01  0.29545407629E+02  0.00000000000E+00 0. -1.
</event>
<event>
 5    1  0.1261138E-009  0.9118800E+02  0.7561462E-02  0.1125453E+00
         25   -1    0    0    0    0  0.00000000000E+00  0.00000000000E+00  0.99999998245E-14  0.12509000000E+03  0.12509000000E+03 0.  0.
        -13    1    3    3    0    0 -0.68487815593E+01 -0.42820401859E+02 -0.39068481045E+02  0.58368227653E+02  0.10566000000E+00 0. -1.
         23    2    1    0    0    0  0.12877792502E+02 -0.20786732965E+02 -0.16113258833E+02  0.95805824797E+02  0.91220574147E+02 0.  0.
         13    1    3    3    0    0  0.19726574061E+02  0.22033668894E+02  0.22955222212E+02  0.37437597144E+02  0.10566000000E+00 0.  1.
         22    1    1    0    0    0 -0.12877792502E+02  0.20786732965E+02  0.16113258833E+02  0.29284175203E+02  0.00000000000E+00 0. -1.
</event>
<event>
 5    1  0.1261138E-009  0.9118800E+02  0.7561462E-02  0.1125453E+00
         25   -1    0    0    0    0  0.00000000000E+00  0.00000000000E+00  0.99999998245E-14  0.12509000000E+03  0.12509000000E+03 0.  0.
        -13    1    3    3    0    0  0.30853795974E+02  0.26209761221E+00  0.85402286970E+01  0.32015185325E+02  0.10566000000E+00 0.  1.
         23    2    1    0    0    0 -0.30118995956E+02 -0.13519064295E+01 -0.50905300730E+01  0.94513946220E+02  0.89431487549E+02 0.  0.
         13    1    3    3    0    0 -0.60972791929E+02 -0.16140040417E+01 -0.13630758770E+02  0.62498760895E+02  0.10566000000E+00 0. -1.
         22    1    1    0    0    0  0.30118995956E+02  0.13519064295E+01  0.50905300730E+01  0.30576053780E+02  0.00000000000E+00 0. -1.
</event>
<event>
 5    1  0.1261138E-009  0.9118800E+02  0.7561462E-02  0.1125453E+00
         25   -1    0    0    0    0  0.00000000000E+00  0.00000000000E+00  0.99999998245E-14  0.12509000000E+03  0.12509000000E+03 0.  0.
        -13    1    3    3    0    0  0.33301803866E+02  0.11742885052E+02 -0.34009001992E+02  0.49025798011E+02  0.10566000000E+00 0.  1.
         23    2    1    0    0    0  0.26159196973E+02  0.55858702872E+01  0.11842282702E+02  0.95836877214E+02  0.91263146129E+02 0.  0.
         13    1    3    3    0    0 -0.71426068932E+01 -0.61570147646E+01  0.45851284694E+02  0.46811079204E+02  0.10566000000E+00 0. -1.
         22    1    1    0    0    0 -0.26159196973E+02 -0.55858702872E+01 -0.11842282702E+02  0.29253122786E+02  0.00000000000E+00 0.  1.
</event>
<event>
 5    1  0.1261138E-009  0.9118800E+02  0.7561462E-02  0.1125453E+00
         25   -1    0    0    0    0  0.00000000000E+00  0.00000000000E+00  0.99999998245E-14  0.12509000000E+03  0.12509000000E+03 0.  0.
        -13    1    3    3    0    0 -0.12797131388E+02  0.25582981139E+02  0.25540403342E+02  0.38348127237E+02  0.10566000000E+00 0. -1.
         23    2    1    0    0    0  0.26214977906E+02  0.55471957971E+01 -0.11670176743E+02  0.95863479971E+02  0.91299601965E+02 0.  0.
         13    1    3    3    0    0  0.39012109293E+02 -0.20035785342E+02 -0.37210580085E+02  0.57515352734E+02  0.10566000000E+00 0.  1.
         22    1    1    0    0    0 -0.26214977906E+02 -0.55471957971E+01  0.11670176743E+02  0.29226520029E+02  0.00000000000E+00 0.  1.
</event>
<event>
 5    1  0.1261138E-009  0.9118800E+02  0.7561462E-02  0.1125453E+00
         25   -1    0    0    0    0  0.00000000000E+00  0.00000000000E+00  0.99999998245E-14  0.12509000000E+03  0.12509000000E+03 0.  0.
        -13    1    3    3    0    0  0.12526203497E+02  0.12570161314E+02 -0.51956743516E+02  0.54903816719E+02  0.10566000000E+00 0. -1.
         23    2    1    0    0    0 -0.10293891175E+02  0.20010112370E+02 -0.19224071329E+02  0.95493822695E+02  0.90791720228E+02 0.  0.
         13    1    3    3    0    0 -0.22820094672E+02  0.74399510567E+01  0.32732672187E+02  0.40590005976E+02  0.10566000000E+00 0.  1.
         22    1    1    0    0    0  0.10293891175E+02 -0.20010112370E+02  0.19224071329E+02  0.29596177305E+02  0.00000000000E+00 0. -1.
</event>
<event>
 5    1  0.1261138E-009  0.9118800E+02  0.7561462E-02  0.1125453E+00
         25   -1    0    0    0    0  0.00000000000E+00  0.00000000000E+00  0.99999998245E-14  0.12509000000E+03  0.12509000000E+03 0.  0.
        -13    1    3    3    0    0 -0.50397137681E+01 -0.17207224271E+02  0.35186436643E+02  0.39491565804E+02  0.10566000000E+00 0. -1.
         23    2    1    0    0    0 -0.65967974487E+01 -0.19319632056E+02 -0.21036711405E+02  0.95776024731E+02  0.91179700411E+02 0.  0.
         13    1    3    3    0    0 -0.15570836806E+01 -0.21124077852E+01 -0.56223148048E+02  0.56284458927E+02  0.10566000000E+00 0.  1.
         22    1    1    0    0    0  0.65967974487E+01  0.19319632056E+02  0.21036711405E+02  0.29313975269E+02  0.00000000000E+00 0.  1.
</event>
<event>
 5    1  0.1261138E-009  0.9118800E+02  0.7561462E-02  0.1125453E+00
         25   -1    0    0    0    0  0.00000000000E+00  0.00000000000E+00  0.99999998245E-14  0.12509000000E+03  0.12509000000E+03 0.  0.
        -13    1    3    3    0    0 -0.21734036139E+02  0.29611010904E+02 -0.17868531163E+02  0.40846981083E+02  0.10566000000E+00 0. -1.
         23    2    1    0    0    0  0.24841147515E+02  0.16702609833E+02  0.56992378650E+01  0.94618027675E+02  0.89576950516E+02 0.  0.
         13    1    3    3    0    0  0.46575183654E+02 -0.12908401071E+02  0.23567769028E+02  0.53771046592E+02  0.10566000000E+00 0.  1.
         22    1    1    0    0    0 -0.24841147515E+02 -0.16702609833E+02 -0.56992378650E+01  0.30471972325E+02  0.00000000000E+00 0.  1.
</event>
<event>
 5    1  0.1261138E-009  0.9118800E+02  0.7561462E-02  0.1125453E+00
         25   -1    0    0    0    0  0.00000000000E+00  0.00000000000E+00  0.99999998245E-14  0.12509000000E+03  0.12509000000E+03 0.  0.
        -13    1    3    3    0    0 -0.20621331856E+02  0.19341701362E+02 -0.20750581557E+02  0.35070479581E+02  0.10566000000E+00 0.  1.
         23    2    1    0    0    0  0.62341277004E+01 -0.28676532916E+02  0.41330774503E+01  0.95454038442E+02  0.90736890168E+02 0.  0.
         13    1    3    3    0    0  0.26855459556E+02 -0.48018234278E+02  0.24883659007E+02  0.60383558861E+02  0.10566000000E+00 0. -1.
         22    1    1    0    0    0 -0.62341277004E+01  0.28676532916E+02 -0.41330774503E+01  0.29635961558E+02  0.00000000000E+00 0. -1.
</event>
<event>
 5    1  0.1261138E-009  0.9118800E+02  0.7561462E-02  0.1125453E+00
         25   -1    0    0    0    0  0.00000000000E+00  0.00000000000E+00  0.99999998245E-14  0.12509000000E+03  0.12509000000E+03 0.  0.
        -13    1    3    3    0    0  0.22164356516E+02 -0.39578519421E+02 -0.94285274375E+01  0.46331697498E+02  0.10566000000E+00 0. -1.
         23    2    1    0    0    0  0.22767077535E+02  0.12260226746E+01  0.18454794514E+02  0.95757042569E+02  0.91153654945E+02 0.  0.
         13    1    3    3    0    0  0.60272101858E+00  0.40804542096E+02  0.27883321952E+02  0.49425345071E+02  0.10566000000E+00 0.  1.
         22    1    1    0    0    0 -0.22767077535E+02 -0.12260226746E+01 -0.18454794514E+02  0.29332957431E+02  0.00000000000E+00 0.  1.
</event>
<event>
 5    1  0.1261138E-009  0.9118800E+02  0.7561462E-02  0.1125453E+00
         25   -1    0    0    0    0  0.00000000000E+00  0.00000000000E+00  0.99999998245E-14  0.12509000000E+03  0.12509000000E+03 0.  0.
        -13    1    3    3    0    0  0.46677670571E+02 -0.18329493009E+02 -0.20597221282E+02  0.54212839185E+02  0.10566000000E+00 0. -1.
         23    2    1    0    0    0  0.18565482012E+02  0.25139450067E+01 -0.29334234129E+02  0.90283472828E+02  0.83304328411E+02 0.  0.
         13    1    3    3    0    0 -0.28112188559E+02  0.20843438015E+02 -0.87370128471E+01  0.36070633643E+02  0.10566000000E+00 0.  1.
         22    1    1    0    0    0 -0.18565482012E+02 -0.25139450067E+01  0.29334234129E+02  0.34806527172E+02  0.00000000000E+00 0. -1.
</event>
<event>
 5    1  0.1261138E-009  0.9118800E+02  0.7561462E-02  0.1125453E+00
         25   -1    0    0    0    0  0.00000000000E+00  0.00000000000E+00  0.99999998245E-14  0.12509000000E+03  0.12509000000E+03 0.  0.
        -13    1    3    3    0    0 -0.58457513834E+02 -0.87059169003E+01 -0.58642645075E+01  0.59392547301E+02  0.10566000000E+00 0. -1.
         23    2    1    0    0    0 -0.23862949751E+02 -0.15192053149E+02  0.52816253578E+01  0.96312675313E+02  0.91912986079E+02 0.  0.
         13    1    3    3    0    0  0.34594564083E+02 -0.64861362484E+01  0.11145889865E+02  0.36920128012E+02  0.10566000000E+00 0.  1.
         22    1    1    0    0    0  0.23862949751E+02  0.15192053149E+02 -0.52816253578E+01  0.28777324687E+02  0.00000000000E+00 0.  1.
</event>
<event>
 5    1  0.1261138E-009  0.9118800E+02  0.7561462E-02  0.1125453E+00
         25   -1    0    0    0    0  0.00000000000E+00  0.00000000000E+00  0.99999998245E-14  0.12509000000E+03  0.12509000000E+03 0.  0.
        -13    1    3    3    0    0  0.28712031798E+02  0.10803233658E+02 -0.24898382281E+02  0.39509887771E+02  0.10566000000E+00 0. -1.
         23    2    1    0    0    0 -0.22815584923E+02  0.17591440590E+02 -0.22838191054E+01  0.96189731365E+02  0.91745511569E+02 0.  0.
         13    1    3    3    0    0 -0.51527616721E+02  0.67882069321E+01  0.22614563175E+02  0.56679843595E+02  0.10566000000E+00 0.  1.
         22    1    1    0    0    0  0.22815584923E+02 -0.17591440590E+02  0.22838191054E+01  0.28900268635E+02  0.00000000000E+00 0.  1.
</event>
<event>
 5    1  0.1261138E-009  0.9118800E+02  0.7561462E-02  0.1125453E+00
         25   -1    0    0    0    0  0.00000000000E+00  0.00000000000E+00  0.99999998245E-14  0.12509000000E+03  0.12509000000E+03 0.  0.
        -13    1    3    3    0    0 -0.35374156390E+02  0.22440804825E+02  0.11853074770E+02  0.43536504304E+02  0.10566000000E+00 0.  1.
         23    2    1    0    0    0  0.59259688055E+01 -0.60860735022E+01  0.27655122589E+02  0.96159683680E+02  0.91704534037E+02 0.  0.
         13    1    3    3    0    0  0.41300125195E+02 -0.28526878328E+02  0.15802047819E+02  0.52623179375E+02  0.10566000000E+00 0. -1.
         22    1    1    0    0    0 -0.59259688055E+01  0.60860735022E+01 -0.27655122589E+02  0.28930316320E+02  0.00000000000E+00 0. -1.
</event>
<event>
 5    1  0.1261138E-009  0.9118800E+02  0.7561462E-02  0.1125453E+00
         25   -1    0    0    0    0  0.00000000000E+00  0.00000000000E+00  0.99999998245E-14  0.12509000000E+03  0.12509000000E+03 0.  0.
        -13    1    3    3    0    0  0.99335494342E+01  0.51907901339E+02 -0.30519280563E+02  0.61029036334E+02  0.10566000000E+00 0.  1.
         23    2    1    0    0    0  0.10156301839E+02  0.29476291655E+02 -0.78106690382E+01  0.92949545933E+02  0.87215877577E+02 0.  0.
         13    1    3    3    0    0  0.22275240522E+00 -0.22431609684E+02  0.22708611524E+02  0.31920509599E+02  0.10566000000E+00 0. -1.
         22    1    1    0    0    0 -0.10156301839E+02 -0.29476291655E+02  0.78106690382E+01  0.32140454067E+02  0.00000000000E+00 0.  1.
</event>
<event>
 5    1  0.1261138E-009  0.9118800E+02  0.7561462E-02  0.1125453E+00
         25   -1    0    0    0    0  0.00000000000E+00  0.00000000000E+00  0.99999998245E-14  0.12509000000E+03  0.12509000000E+03 0.  0.
        -13    1    3    3    0    0  0.10774759863E+02 -0.75634841701E+01  0.30852083646E+02  0.33543463927E+02  0.10566000000E+00 0.  1.
         23    2    1    0    0    0 -0.24023401661E+01  0.14375934810E+02 -0.25659361706E+02  0.95579974872E+02  0.90910340520E+02 0.  0.
         13    1    3    3    0    0 -0.13177100029E+02  0.21939418980E+02 -0.56511445352E+02  0.62036510944E+02  0.10566000000E+00 0. -1.
         22    1    1    0    0    0  0.24023401661E+01 -0.14375934810E+02  0.25659361706E+02  0.29510025128E+02  0.00000000000E+00 0. -1.
</event>
<event>
 5    1  0.1261138E-009  0.9118800E+02  0.7561462E-02  0.1125453E+00
         25   -1    0    0    0    0  0.00000000000E+00  0.00000000000E+00  0.99999998245E-14  0.12509000000E+03  0.12509000000E+03 0.  0.
        -13    1    3    3    0    0  0.19265287349E+02  0.64685496980E+01 -0.42041968244E+02  0.46696163544E+02  0.10566000000E+00 0. -1.
         23    2    1    0    0    0  0.28049108550E+02 -0.95302853436E+01  0.30183820832E+01  0.95312668696E+02  0.90541787891E+02 0.  0.
         13    1    3    3    0    0  0.87838212004E+01 -0.15998835042E+02  0.45060350327E+02  0.48616505152E+02  0.10566000000E+00 0.  1.
         22    1    1    0    0    0 -0.28049108550E+02  0.95302853436E+01 -0.30183820832E+01  0.29777331304E+02  0.00000000000E+00 0.  1.
</event>
<event>
 5    1  0.1261138E-009  0.9118800E+02  0.7561462E-02  0.1125453E+00
         25   -1    0    0    0    0  0.00000000000E+00  0.00000000000E+00  0.99999998245E-14  0.12509000000E+03  0.12509000000E+03 0.  0.
        -13    1    3    3    0    0 -0.71094965911E+01  0.34063436274E+01 -0.31255663134E+02  0.32234698086E+02  0.10566000000E+00 0. -1.
         23    2    1    0    0    0  0.10085166923E+02 -0.53198662434E+01  0.28164344602E+02  0.94705104483E+02  0.89698466763E+02 0.  0.
         13    1    3    3    0    0  0.17194663514E+02 -0.87262098709E+01  0.59420007736E+02  0.62470406397E+02  0.10566000000E+00 0.  1.
         22    1    1    0    0    0 -0.10085166923E+02  0.53198662434E+01 -0.28164344602E+02  0.30384895517E+02  0.00000000000E+00 0.  1.
</event>
<event>
 5    1  0.1261138E-009  0.9118800E+02  0.7561462E-02  0.1125453E+00
         25   -1    0    0    0    0  0.00000000000E+00  0.00000000000E+00  0.99999998245E-14  0.12509000000E+03  0.12509000000E+03 0.  0.
        -13    1    3    3    0    0 -0.20914300126E+02  0.22818613479E+02 -0.38261675961E+02  0.49214470253E+02  0.10566000000E+00 0. -1.
         23    2    1    0    0    0  0.61216362565E+01  0.27511124699E+02  0.73322476997E+00  0.96896489554E+02  0.92704129664E+02 0.  0.
         13    1    3    3    0    0  0.27035936383E+02  0.46925112205E+01  0.38994900731E+02  0.47682019302E+02  0.10566000000E+00 0.  1.
         22    1    1    0    0    0 -0.61216362565E+01 -0.27511124699E+02 -0.73322476997E+00  0.28193510446E+02  0.00000000000E+00 0. -1.
</event>
<event>
 5    1  0.1261138E-009  0.9118800E+02  0.7561462E-02  0.1125453E+00
         25   -1    0    0    0    0  0.00000000000E+00  0.00000000000E+00  0.99999998245E-14  0.12509000000E+03  0.12509000000E+03 0.  0.
        -13    1    3    3    0    0 -0.13835057200E+02  0.24124034250E+02  0.21554416555E+02  0.35184966581E+02  0.10566000000E+00 0.  1.
         23    2    1    0    0    0 -0.68784676890E+01 -0.12504568505E+02 -0.25890654022E+02  0.95526449521E+02  0.90836661328E+02 0.  0.
         13    1    3    3    0    0  0.69565895107E+01 -0.36628602755E+02 -0.47445070577E+02  0.60341482941E+02  0.10566000000E+00 0. -1.
         22    1    1    0    0    0  0.68784676890E+01  0.12504568505E+02  0.25890654022E+02  0.29563550479E+02  0.00000000000E+00 0. -1.
</event>
<event>
 5    1  0.1261138E-009  0.9118800E+02  0.7561462E-02  0.1125453E+00
         25   -1    0    0    0    0  0.00000000000E+00  0.00000000000E+00  0.99999998245E-14  0.12509000000E+03  0.12509000000E+03 0.  0.
        -13    1    3    3    0    0  0.12857269341E+02  0.59963111516E+02  0.41262764406E+01  0.61464798372E+02  0.10566000000E+00 0.  1.
         23    2    1    0    0    0 -0.22375983014E+01  0.28568919230E+02  0.18143152391E+01  0.96376210074E+02  0.91999413782E+02 0.  0.
         13    1    3    3    0    0 -0.15094867642E+02 -0.31394192286E+02 -0.23119612015E+01  0.34911411702E+02  0.10566000000E+00 0. -1.
         22    1    1    0    0    0  0.22375983014E+01 -0.28568919230E+02 -0.18143152391E+01  0.28713789926E+02  0.00000000000E+00 0.  1.
</event>
<event>
 5    1  0.1261138E-009  0.9118800E+02  0.7561462E-02  0.1125453E+00
         25   -1    0    0    0    0  0.00000000000E+00  0.00000000000E+00  0.99999998245E-14  0.12509000000E+03  0.12509000000E+03 0.  0.
        -13    1    3    3    0    0 -0.10139511624E+02  0.37735435920E+02 -0.43643881361E+02  0.58579624140E+02  0.10566000000E+00 0. -1.
         23    2    1    0    0    0  0.36652960358E+01  0.25958062603E+02 -0.95736967221E+01  0.97181021551E+02  0.93087270192E+02 0.  0.
         13    1    3    3    0    0  0.13804807660E+02 -0.11777373318E+02  0.34070184639E+02  0.38601397412E+02  0.10566000000E+00 0.  1.
         22    1    1    0    0    0 -0.36652960358E+01 -0.25958062603E+02  0.95736967221E+01  0.27908978449E+02  0.00000000000E+00 0. -1.
</event>
<event>
 5    1  0.1261138E-009  0.9118800E+02  0.7561462E-02  0.1125453E+00
         25   -1    0    0    0    0  0.00000000000E+00  0.00000000000E+00  0.99999998245E-14  0.12509000000E+03  0.12509000000E+03 0.  0.
        -13    1    3    3    0    0  0.38333903481E+02 -0.40816724627E+02  0.17714369134E+02  0.58730768794E+02  0.10566000000E+00 0. -1.
         23    2    1    0    0    0  0.14401080735E+02 -0.12640784260E+02  0.21963254623E+02  0.95942699839E+02  0.91408077026E+02 0.  0.
         13    1    3    3    0    0 -0.23932822746E+02  0.28175940366E+02  0.42488854892E+01  0.37211931044E+02  0.10566000000E+00 0.  1.
         22    1    1    0    0    0 -0.14401080735E+02  0.12640784260E+02 -0.21963254623E+02  0.29147300161E+02  0.00000000000E+00 0. -1.
</event>
<event>
 5    1  0.1261138E-009  0.9118800E+02  0.7561462E-02  0.1125453E+00
         25   -1    0    0    0    0  0.00000000000E+00  0.00000000000E+00  0.99999998245E-14  0.12509000000E+03  0.12509000000E+03 0.  0.
        -13    1    3    3    0    0  0.10318486481E+02 -0.38082945421E+02 -0.10760079789E+02  0.40897094961E+02  0.10566000000E+00 0. -1.
         23    2    1    0    0    0  0.25512826762E+02  0.13977182251E+02 -0.63950956373E+01  0.95304715021E+02  0.90530798648E+02 0.  0.
         13    1    3    3    0    0  0.15194340281E+02  0.52060127672E+02  0.43649841514E+01  0.54407620059E+02  0.10566000000E+00 0.  1.
         22    1    1    0    0    0 -0.25512826762E+02 -0.13977182251E+02  0.63950956373E+01  0.29785284979E+02  0.00000000000E+00 0.  1.
</event>
<event>
 5    1  0.1261138E-009  0.9118800E+02  0.7561462E-02  0.1125453E+00
         25   -1    0    0    0    0  0.00000000000E+00  0.00000000000E+00  0.99999998245E-14  0.12509000000E+03  0.12509000000E+03 0.  0.
        -13    1    3    3    0    0 -0.11682315930E+02  0.45697873376E+02 -0.68288541437E+01  0.47659380499E+02  0.10566000000E+00 0.  1.
         23    2    1    0    0    0  0.11677560285E+01  0.72955175071E+01 -0.29917000471E+02  0.94274173758E+02  0.89095480753E+02 0.  0.
         13    1    3    3    0    0  0.12850071959E+02 -0.38402355869E+02 -0.23088146327E+02  0.46614793258E+02  0.10566000000E+00 0. -1.
         22    1    1    0    0    0 -0.11677560285E+01 -0.72955175071E+01  0.29917000471E+02  0.30815826242E+02  0.00000000000E+00 0. -1.
</event>
<event>
 5    1  0.1261138E-009  0.9118800E+02  0.7561462E-02  0.1125453E+00
         25   -1    0    0    0    0  0.00000000000E+00  0.00000000000E+00  0.99999998245E-14  0.12509000000E+03  0.12509000000E+03 0.  0.
        -13    1    3    3    0    0  0.23498378804E+02  0.29966504050E+02 -0.86835489802E+01  0.39058678399E+02  0.10566000000E+00 0.  1.
         23    2    1    0    0    0 -0.17499410647E+02 -0.12695120388E+02 -0.15313099694E+02  0.98596859815E+02  0.94970807559E+02 0.  0.
         13    1    3    3    0    0 -0.40997789451E+02 -0.42661624438E+02 -0.66295507133E+01  0.59538181415E+02  0.10566000000E+00 0. -1.
         22    1    1    0    0    0  0.17499410647E+02  0.12695120388E+02  0.15313099694E+02  0.26493140185E+02  0.00000000000E+00 0. -1.
</event>
<event>
 5    1  0.1261138E-009  0.9118800E+02  0.7561462E-02  0.1125453E+00
         25   -1    0    0    0    0  0.00000000000E+00  0.00000000000E+00  0.99999998245E-14  0.12509000000E+03  0.12509000000E+03 0.  0.
        -13    1    3    3    0    0  0.84861317514E+01 -0.43507488603E+02 -0.33260774304E+02  0.55418465045E+02  0.10566000000E+00 0.  1.
         23    2    1    0    0    0  0.94546282447E+01 -0.12174960394E+01 -0.24750420117E+02  0.98567262814E+02  0.94931816115E+02 0.  0.
         13    1    3    3    0    0  0.96849649330E+00  0.42289992564E+02  0.85103541863E+01  0.43148797769E+02  0.10566000000E+00 0. -1.
         22    1    1    0    0    0 -0.94546282447E+01  0.12174960394E+01  0.24750420117E+02  0.26522737186E+02  0.00000000000E+00 0. -1.
</event>
<event>
 5    1  0.1261138E-009  0.9118800E+02  0.7561462E-02  0.1125453E+00
         25   -1    0    0    0    0  0.00000000000E+00  0.00000000000E+00  0.99999998245E-14  0.12509000000E+03  0.12509000000E+03 0.  0.
        -13    1    3    3    0    0 -0.34207421778E+02  0.31425868952E+02 -0.25393117267E+02  0.52939158594E+02  0.10566000000E+00 0.  1.
         23    2    1    0    0    0 -0.18869737816E+02 -0.84976566395E+01 -0.20455640770E+02  0.95991711168E+02  0.91475123395E+02 0.  0.
         13    1    3    3    0    0  0.15337683961E+02 -0.39923525592E+02  0.49374764964E+01  0.43052552574E+02  0.10566000000E+00 0. -1.
         22    1    1    0    0    0  0.18869737816E+02  0.84976566395E+01  0.20455640770E+02  0.29098288832E+02  0.00000000000E+00 0.  1.
</event>
<event>
 5    1  0.1261138E-009  0.9118800E+02  0.7561462E-02  0.1125453E+00
         25   -1    0    0    0    0  0.00000000000E+00  0.00000000000E+00  0.99999998245E-14  0.12509000000E+03  0.12509000000E+03 0.  0.
        -13    1    3    3    0    0 -0.33220980838E+01  0.38077285503E+02  0.39146082584E+02  0.54711451751E+02  0.10566000000E+00 0. -1.
         23    2    1    0    0    0 -0.52557742001E+01  0.75828763761E-01  0.31029735066E+02  0.93618213100E+02  0.88169702582E+02 0.  0.
         13    1    3    3    0    0 -0.19336761163E+01 -0.38001456739E+02 -0.81163475183E+01  0.38906761349E+02  0.10566000000E+00 0.  1.
         22    1    1    0    0    0  0.52557742001E+01 -0.75828763761E-01 -0.31029735066E+02  0.31471786900E+02  0.00000000000E+00 0. -1.
</event>
<event>
 5    1  0.1261138E-009  0.9118800E+02  0.7561462E-02  0.1125453E+00
         25   -1    0    0    0    0  0.00000000000E+00  0.00000000000E+00  0.99999998245E-14  0.12509000000E+03  0.12509000000E+03 0.  0.
        -13    1    3    3    0    0 -0.72079648917E+01  0.10610215944E+02  0.54429151557E+02  0.55920257005E+02  0.10566000000E+00 0.  1.
         23    2    1    0    0    0  0.84679901540E+00 -0.14838055143E+02  0.27463230129E+02  0.93863185271E+02  0.88516572409E+02 0.  0.
         13    1    3    3    0    0  0.80547639071E+01 -0.25448271087E+02 -0.26965921428E+02  0.37942928266E+02  0.10566000000E+00 0. -1.
         22    1    1    0    0    0 -0.84679901540E+00  0.14838055143E+02 -0.27463230129E+02  0.31226814729E+02  0.00000000000E+00 0.  1.
</event>
<event>
 5    1  0.1261138E-009  0.9118800E+02  0.7561462E-02  0.1125453E+00
         25   -1    0    0    0    0  0.00000000000E+00  0.00000000000E+00  0.99999998245E-14  0.12509000000E+03  0.12509000000E+03 0.  0.
        -13    1    3    3    0    0 -0.55481565186E+02  0.22268797391E+02  0.33744969967E+01  0.59879059835E+02  0.10566000000E+00 0. -1.
         23    2    1    0    0    0 -0.20213469161E+02  0.20459041700E+02 -0.42777395962E+01  0.96013277715E+02  0.91504610368E+02 0.  0.
         13    1    3    3    0    0  0.35268096025E+02 -0.18097556909E+01 -0.76522365929E+01  0.36134217880E+02  0.10566000000E+00 0.  1.
         22    1    1    0    0    0  0.20213469161E+02 -0.20459041700E+02  0.42777395962E+01  0.29076722285E+02  0.00000000000E+00 0. -1.
</event>
<event>
 5    1  0.1261138E-009  0.9118800E+02  0.7561462E-02  0.1125453E+00
         25   -1    0    0    0    0  0.00000000000E+00  0.00000000000E+00  0.99999998245E-14  0.12509000000E+03  0.12509000000E+03 0.  0.
        -13    1    3    3    0    0 -0.31522993767E+02 -0.49266645885E+02  0.83854084071E+00  0.58494579643E+02  0.10566000000E+00 0.  1.
         23    2    1    0    0    0 -0.25994540269E+02 -0.18500774828E+02 -0.10118176656E+02  0.91618037227E+02  0.85284772694E+02 0.  0.
         13    1    3    3    0    0  0.55284534982E+01  0.30765871057E+02 -0.10956717497E+02  0.33123457584E+02  0.10566000000E+00 0. -1.
         22    1    1    0    0    0  0.25994540269E+02  0.18500774828E+02  0.10118176656E+02  0.33471962773E+02  0.00000000000E+00 0.  1.
</event>
<event>
 5    1  0.1261138E-009  0.9118800E+02  0.7561462E-02  0.1125453E+00
         25   -1    0    0    0    0  0.00000000000E+00  0.00000000000E+00  0.99999998245E-14  0.12509000000E+03  0.12509000000E+03 0.  0.
        -13    1    3    3    0    0 -0.25246132946E+02 -0.10180956205E+01 -0.56402451544E+02  0.61803328807E+02  0.10566000000E+00 0. -1.
         23    2    1    0    0    0 -0.59483350408E+01  0.22112903457E+00 -0.29856166284E+02  0.94646244434E+02  0.89616345231E+02 0.  0.
         13    1    3    3    0    0  0.19297797905E+02  0.12392246550E+01  0.26546285260E+02  0.32842915627E+02  0.10566000000E+00 0.  1.
         22    1    1    0    0    0  0.59483350408E+01 -0.22112903457E+00  0.29856166284E+02  0.30443755566E+02  0.00000000000E+00 0. -1.
</event>
<event>
 5    1  0.1261138E-009  0.9118800E+02  0.7561462E-02  0.1125453E+00
         25   -1    0    0    0    0  0.00000000000E+00  0.00000000000E+00  0.99999998245E-14  0.12509000000E+03  0.12509000000E+03 0.  0.
        -13    1    3    3    0    0  0.32162807446E+02 -0.43612648291E+02 -0.10894604921E+02  0.55273979902E+02  0.10566000000E+00 0.  1.
         23    2    1    0    0    0  0.28640598308E+02 -0.52680852547E+01 -0.11488489862E+02  0.93784697047E+02  0.88405584706E+02 0.  0.
         13    1    3    3    0    0 -0.35222091382E+01  0.38344563037E+02 -0.59388494009E+00  0.38510717145E+02  0.10566000000E+00 0. -1.
         22    1    1    0    0    0 -0.28640598308E+02  0.52680852547E+01  0.11488489862E+02  0.31305302953E+02  0.00000000000E+00 0.  1.
</event>
<event>
 5    1  0.1261138E-009  0.9118800E+02  0.7561462E-02  0.1125453E+00
         25   -1    0    0    0    0  0.00000000000E+00  0.00000000000E+00  0.99999998245E-14  0.12509000000E+03  0.12509000000E+03 0.  0.
        -13    1    3    3    0    0 -0.30070965003E+02 -0.11824513222E+02 -0.46973423951E+02  0.57013996272E+02  0.10566000000E+00 0.  1.
         23    2    1    0    0    0  0.72818279442E+01 -0.87908401930E+01 -0.14751384387E+02  0.10643772853E+03  0.10479066192E+03 0.  0.
         13    1    3    3    0    0  0.37352792947E+02  0.30336730292E+01  0.32222039564E+02  0.49423732262E+02  0.10566000000E+00 0. -1.
         22    1    1    0    0    0 -0.72818279442E+01  0.87908401930E+01  0.14751384387E+02  0.18652271466E+02  0.00000000000E+00 0.  1.
</event>
<event>
 5    1  0.1261138E-009  0.9118800E+02  0.7561462E-02  0.1125453E+00
         25   -1    0    0    0    0  0.00000000000E+00  0.00000000000E+00  0.99999998245E-14  0.12509000000E+03  0.12509000000E+03 0.  0.
        -13    1    3    3    0    0  0.41449861695E+02 -0.21778970577E+01  0.31502525617E+02  0.52108104499E+02  0.10566000000E+00 0.  1.
         23    2    1    0    0    0  0.13116760294E+02  0.23815016417E+02  0.10304122189E+02  0.96014592150E+02  0.91506407229E+02 0.  0.
         13    1    3    3    0    0 -0.28333101401E+02  0.25992913475E+02 -0.21198403428E+02  0.43906487651E+02  0.10566000000E+00 0. -1.
         22    1    1    0    0    0 -0.13116760294E+02 -0.23815016417E+02 -0.10304122189E+02  0.29075407850E+02  0.00000000000E+00 0.  1.
</event>
<event>
 5    1  0.1261138E-009  0.9118800E+02  0.7561462E-02  0.1125453E+00
         25   -1    0    0    0    0  0.00000000000E+00  0.00000000000E+00  0.99999998245E-14  0.12509000000E+03  0.12509000000E+03 0.  0.
        -13    1    3    3    0    0  0.13894423463E+02 -0.97236473823E+01 -0.56747713790E+02  0.59227683614E+02  0.10566000000E+00 0. -1.
         23    2    1    0    0    0  0.52677105908E+01  0.97755897734E+01 -0.27582576707E+02  0.95356021658E+02  0.90601663331E+02 0.  0.
         13    1    3    3    0    0 -0.86267128727E+01  0.19499237156E+02  0.29165137084E+02  0.36128338044E+02  0.10566000000E+00 0.  1.
         22    1    1    0    0    0 -0.52677105908E+01 -0.97755897734E+01  0.27582576707E+02  0.29733978342E+02  0.00000000000E+00 0. -1.
</event>
<event>
 5    1  0.1261138E-009  0.9118800E+02  0.7561462E-02  0.1125453E+00
         25   -1    0    0    0    0  0.00000000000E+00  0.00000000000E+00  0.99999998245E-14  0.12509000000E+03  0.12509000000E+03 0.  0.
        -13    1    3    3    0    0  0.26031787792E+02 -0.39948407191E+02 -0.17636560189E+02  0.50838849634E+02  0.10566000000E+00 0.  1.
         23    2    1    0    0    0  0.26468504637E+02  0.36032272133E+01 -0.14956699952E+02  0.94475169320E+02  0.89377232898E+02 0.  0.
         13    1    3    3    0    0  0.43671684534E+00  0.43551634404E+02  0.26798602370E+01  0.43636319687E+02  0.10566000000E+00 0. -1.
         22    1    1    0    0    0 -0.26468504637E+02 -0.36032272133E+01  0.14956699952E+02  0.30614830680E+02  0.00000000000E+00 0. -1.
</event>
<event>
 5    1  0.1261138E-009  0.9118800E+02  0.7561462E-02  0.1125453E+00
         25   -1    0    0    0    0  0.00000000000E+00  0.00000000000E+00  0.99999998245E-14  0.12509000000E+03  0.12509000000E+03 0.  0.
        -13    1    3    3    0    0  0.43872313652E+02  0.10433631043E+02  0.39134342532E+02  0.59708864428E+02  0.10566000000E+00 0. -1.
         23    2    1    0    0    0  0.16895226218E+02  0.17145939937E+02  0.13673499567E+02  0.97406132574E+02  0.93389282829E+02 0.  0.
         13    1    3    3    0    0 -0.26977087433E+02  0.67123088939E+01 -0.25460842965E+02  0.37697268145E+02  0.10566000000E+00 0.  1.
         22    1    1    0    0    0 -0.16895226218E+02 -0.17145939937E+02 -0.13673499567E+02  0.27683867426E+02  0.00000000000E+00 0. -1.
</event>
<event>
 5    1  0.1261138E-009  0.9118800E+02  0.7561462E-02  0.1125453E+00
         25   -1    0    0    0    0  0.00000000000E+00  0.00000000000E+00  0.99999998245E-14  0.12509000000E+03  0.12509000000E+03 0.  0.
        -13    1    3    3    0    0  0.29827269713E+01 -0.17787739915E+02  0.32483731116E+02  0.37155138309E+02  0.10566000000E+00 0.  1.
         23    2    1    0    0    0  0.21776969111E+02  0.19395679701E+02 -0.75829949630E+01  0.94958113445E+02  0.90050612001E+02 0.  0.
         13    1    3    3    0    0  0.18794242140E+02  0.37183419616E+02 -0.40066726079E+02  0.57802975137E+02  0.10566000000E+00 0. -1.
         22    1    1    0    0    0 -0.21776969111E+02 -0.19395679701E+02  0.75829949630E+01  0.30131886555E+02  0.00000000000E+00 0. -1.
</event>
<event>
 5    1  0.1261138E-009  0.9118800E+02  0.7561462E-02  0.1125453E+00
         25   -1    0    0    0    0  0.00000000000E+00  0.00000000000E+00  0.99999998245E-14  0.12509000000E+03  0.12509000000E+03 0.  0.
        -13    1    3    3    0    0  0.16352136922E+02  0.22393724215E+02  0.35789912716E+02  0.45274720125E+02  0.10566000000E+00 0.  1.
         23    2    1    0    0    0 -0.22058816566E+02  0.22683290124E+02  0.87108575074E+01  0.92272290183E+02  0.86239048336E+02 0.  0.
         13    1    3    3    0    0 -0.38410953488E+02  0.28956590914E+00 -0.27079055209E+02  0.46997570057E+02  0.10566000000E+00 0. -1.
         22    1    1    0    0    0  0.22058816566E+02 -0.22683290124E+02 -0.87108575074E+01  0.32817709817E+02  0.00000000000E+00 0. -1.
</event>
<event>
 5    1  0.1261138E-009  0.9118800E+02  0.7561462E-02  0.1125453E+00
         25   -1    0    0    0    0  0.00000000000E+00  0.00000000000E+00  0.99999998245E-14  0.12509000000E+03  0.12509000000E+03 0.  0.
        -13    1    3    3    0    0 -0.11400642385E+02 -0.33959896568E+02 -0.71223534623E+01  0.36523804629E+02  0.10566000000E+00 0. -1.
         23    2    1    0    0    0  0.49140961250E+00  0.17882077791E+02  0.21657815902E+02  0.96999589195E+02  0.92843142584E+02 0.  0.
         13    1    3    3    0    0  0.11892051998E+02  0.51841974360E+02  0.28780169364E+02  0.60475784566E+02  0.10566000000E+00 0.  1.
         22    1    1    0    0    0 -0.49140961250E+00 -0.17882077791E+02 -0.21657815902E+02  0.28090410805E+02  0.00000000000E+00 0.  1.
</event>
<event>
 5    1  0.1261138E-009  0.9118800E+02  0.7561462E-02  0.1125453E+00
         25   -1    0    0    0    0  0.00000000000E+00  0.00000000000E+00  0.99999998245E-14  0.12509000000E+03  0.12509000000E+03 0.  0.
        -13    1    3    3    0    0 -0.12417564117E+02  0.55354707252E+02  0.14594444225E+01  0.56749278900E+02  0.10566000000E+00 0. -1.
         23    2    1    0    0    0  0.19528415985E+01  0.23688135885E+02  0.18016835656E+02  0.95264713094E+02  0.90475509514E+02 0.  0.
         13    1    3    3    0    0  0.14370405716E+02 -0.31666571368E+02  0.16557391234E+02  0.38515434194E+02  0.10566000000E+00 0.  1.
         22    1    1    0    0    0 -0.19528415985E+01 -0.23688135885E+02 -0.18016835656E+02  0.29825286906E+02  0.00000000000E+00 0. -1.
</event>
<event>
 5    1  0.1261138E-009  0.9118800E+02  0.7561462E-02  0.1125453E+00
         25   -1    0    0    0    0  0.00000000000E+00  0.00000000000E+00  0.99999998245E-14  0.12509000000E+03  0.12509000000E+03 0.  0.
        -13    1    3    3    0    0 -0.25443360185E+02  0.88201545443E+01 -0.54899483222E+02  0.61148377948E+02  0.10566000000E+00 0.  1.
         23    2    1    0    0    0 -0.37861870126E+01  0.12690677012E+01 -0.29297193562E+02  0.95521921004E+02  0.90830424951E+02 0.  0.
         13    1    3    3    0    0  0.21657173172E+02 -0.75510868430E+01  0.25602289660E+02  0.34373543056E+02  0.10566000000E+00 0. -1.
         22    1    1    0    0    0  0.37861870126E+01 -0.12690677012E+01  0.29297193562E+02  0.29568078996E+02  0.00000000000E+00 0.  1.
</event>
<event>
 5    1  0.1261138E-009  0.9118800E+02  0.7561462E-02  0.1125453E+00
         25   -1    0    0    0    0  0.00000000000E+00  0.00000000000E+00  0.99999998245E-14  0.12509000000E+03  0.12509000000E+03 0.  0.
        -13    1    3    3    0    0 -0.15844531440E+02 -0.88498798605E+01 -0.26634176724E+02  0.32229801177E+02  0.10566000000E+00 0.  1.
         23    2    1    0    0    0  0.16494980267E+02  0.19658342949E+02  0.17580618373E+02  0.93983522155E+02  0.88686467247E+02 0.  0.
         13    1    3    3    0    0  0.32339511707E+02  0.28508222810E+02  0.44214795097E+02  0.61753720979E+02  0.10566000000E+00 0. -1.
         22    1    1    0    0    0 -0.16494980267E+02 -0.19658342949E+02 -0.17580618373E+02  0.31106477845E+02  0.00000000000E+00 0. -1.
</event>
<event>
 5    1  0.1261138E-009  0.9118800E+02  0.7561462E-02  0.1125453E+00
         25   -1    0    0    0    0  0.00000000000E+00  0.00000000000E+00  0.99999998245E-14  0.12509000000E+03  0.12509000000E+03 0.  0.
        -13    1    3    3    0    0  0.28124506886E+02  0.23340814098E+02 -0.32202035576E+02  0.48711022876E+02  0.10566000000E+00 0.  1.
         23    2    1    0    0    0  0.16277473308E+02 -0.19086257572E+02 -0.95039498438E+01  0.98265264623E+02  0.94533040802E+02 0.  0.
         13    1    3    3    0    0 -0.11847033578E+02 -0.42427071670E+02  0.22698085732E+02  0.49554241747E+02  0.10566000000E+00 0. -1.
         22    1    1    0    0    0 -0.16277473308E+02  0.19086257572E+02  0.95039498438E+01  0.26824735377E+02  0.00000000000E+00 0.  1.
</event>
<event>
 5    1  0.1261138E-009  0.9118800E+02  0.7561462E-02  0.1125453E+00
         25   -1    0    0    0    0  0.00000000000E+00  0.00000000000E+00  0.99999998245E-14  0.12509000000E+03  0.12509000000E+03 0.  0.
        -13    1    3    3    0    0  0.29071169869E+02 -0.80445156532E+01 -0.19636852789E+02  0.35992558969E+02  0.10566000000E+00 0.  1.
         23    2    1    0    0    0 -0.43017009199E+01  0.18538844653E+02  0.22268949850E+02  0.95796664251E+02  0.91208011504E+02 0.  0.
         13    1    3    3    0    0 -0.33372870789E+02  0.26583360306E+02  0.41905802639E+02  0.59804105283E+02  0.10566000000E+00 0. -1.
         22    1    1    0    0    0  0.43017009199E+01 -0.18538844653E+02 -0.22268949850E+02  0.29293335749E+02  0.00000000000E+00 0. -1.
</event>
<event>
 5    1  0.1261138E-009  0.9118800E+02  0.7561462E-02  0.1125453E+00
         25   -1    0    0    0    0  0.00000000000E+00  0.00000000000E+00  0.99999998245E-14  0.12509000000E+03  0.12509000000E+03 0.  0.
        -13    1    3    3    0    0  0.35921680283E+02  0.30348712703E+02 -0.27338601092E+02  0.54395052632E+02  0.10566000000E+00 0.  1.
         23    2    1    0    0    0 -0.27198685472E+01  0.18184684175E+02 -0.23735164928E+02  0.95066034945E+02  0.90200402008E+02 0.  0.
         13    1    3    3    0    0 -0.38641548831E+02 -0.12164028528E+02  0.36034361640E+01  0.40670982313E+02  0.10566000000E+00 0. -1.
         22    1    1    0    0    0  0.27198685472E+01 -0.18184684175E+02  0.23735164928E+02  0.30023965055E+02  0.00000000000E+00 0.  1.
</event>
<event>
 5    1  0.1261138E-009  0.9118800E+02  0.7561462E-02  0.1125453E+00
         25   -1    0    0    0    0  0.00000000000E+00  0.00000000000E+00  0.99999998245E-14  0.12509000000E+03  0.12509000000E+03 0.  0.
        -13    1    3    3    0    0  0.22673410284E+02  0.15777747474E+02  0.41466440931E+02  0.49824669961E+02  0.10566000000E+00 0.  1.
         23    2    1    0    0    0  0.17751050916E+02  0.22753441370E+02 -0.38834068136E+01  0.95971281771E+02  0.91447182426E+02 0.  0.
         13    1    3    3    0    0 -0.49223593682E+01  0.69756938957E+01 -0.45349847744E+02  0.46146611810E+02  0.10566000000E+00 0. -1.
         22    1    1    0    0    0 -0.17751050916E+02 -0.22753441370E+02  0.38834068136E+01  0.29118718229E+02  0.00000000000E+00 0. -1.
</event>
<event>
 5    1  0.1261138E-009  0.9118800E+02  0.7561462E-02  0.1125453E+00
         25   -1    0    0    0    0  0.00000000000E+00  0.00000000000E+00  0.99999998245E-14  0.12509000000E+03  0.12509000000E+03 0.  0.
        -13    1    3    3    0    0  0.25800702571E+02  0.39428166848E+02 -0.37538786629E+02  0.60244736366E+02  0.10566000000E+00 0. -1.
         23    2    1    0    0    0  0.19697096316E+02  0.21569431010E+02 -0.88793709826E+01  0.94560355613E+02  0.89496377956E+02 0.  0.
         13    1    3    3    0    0 -0.61036062554E+01 -0.17858735839E+02  0.28659415646E+02  0.34315619247E+02  0.10566000000E+00 0.  1.
         22    1    1    0    0    0 -0.19697096316E+02 -0.21569431010E+02  0.88793709826E+01  0.30529644387E+02  0.00000000000E+00 0. -1.
</event>
<event>
 5    1  0.1261138E-009  0.9118800E+02  0.7561462E-02  0.1125453E+00
         25   -1    0    0    0    0  0.00000000000E+00  0.00000000000E+00  0.99999998245E-14  0.12509000000E+03  0.12509000000E+03 0.  0.
        -13    1    3    3    0    0 -0.53899315206E+02 -0.12894827869E+02  0.10695572808E+02  0.56443061639E+02  0.10566000000E+00 0.  1.
         23    2    1    0    0    0 -0.18955354235E+02 -0.20365227869E+02  0.16645891257E+02  0.92668808534E+02  0.86812294170E+02 0.  0.
         13    1    3    3    0    0  0.34943960970E+02 -0.74703999997E+01  0.59503184485E+01  0.36225746895E+02  0.10566000000E+00 0. -1.
         22    1    1    0    0    0  0.18955354235E+02  0.20365227869E+02 -0.16645891257E+02  0.32421191466E+02  0.00000000000E+00 0.  1.
</event>
<event>
 5    1  0.1261138E-009  0.9118800E+02  0.7561462E-02  0.1125453E+00
         25   -1    0    0    0    0  0.00000000000E+00  0.00000000000E+00  0.99999998245E-14  0.12509000000E+03  0.12509000000E+03 0.  0.
        -13    1    3    3    0    0 -0.39331188750E+02 -0.83270976040E+01  0.30260920420E+02  0.50319155713E+02  0.10566000000E+00 0.  1.
         23    2    1    0    0    0  0.44617474231E+01 -0.20562414059E+02  0.17966361964E+02  0.97422144568E+02  0.93410727586E+02 0.  0.
         13    1    3    3    0    0  0.43792936173E+02 -0.12235316455E+02 -0.12294558456E+02  0.47102988855E+02  0.10566000000E+00 0. -1.
         22    1    1    0    0    0 -0.44617474231E+01  0.20562414059E+02 -0.17966361964E+02  0.27667855432E+02  0.00000000000E+00 0. -1.
</event>
<event>
 5    1  0.1261138E-009  0.9118800E+02  0.7561462E-02  0.1125453E+00
         25   -1    0    0    0    0  0.00000000000E+00  0.00000000000E+00  0.99999998245E-14  0.12509000000E+03  0.12509000000E+03 0.  0.
        -13    1    3    3    0    0  0.43471846058E+01  0.33876470089E+02 -0.18777358367E+02  0.38975807766E+02  0.10566000000E+00 0. -1.
         23    2    1    0    0    0  0.93142541300E+00  0.25269652207E+01  0.28859580709E+02  0.96105029666E+02  0.91629952646E+02 0.  0.
         13    1    3    3    0    0 -0.34157591928E+01 -0.31349504869E+02  0.47636939076E+02  0.57129221901E+02  0.10566000000E+00 0.  1.
         22    1    1    0    0    0 -0.93142541300E+00 -0.25269652207E+01 -0.28859580709E+02  0.28984970334E+02  0.00000000000E+00 0. -1.
</event>
<event>
 5    1  0.1261138E-009  0.9118800E+02  0.7561462E-02  0.1125453E+00
         25   -1    0    0    0    0  0.00000000000E+00  0.00000000000E+00  0.99999998245E-14  0.12509000000E+03  0.12509000000E+03 0.  0.
        -13    1    3    3    0    0 -0.24508190304E+02  0.44929909632E+02  0.87227008064E+01  0.51917673724E+02  0.10566000000E+00 0. -1.
         23    2    1    0    0    0 -0.26988855563E+02  0.13929882360E+01  0.11730877420E+02  0.95628971066E+02  0.90977732887E+02 0.  0.
         13    1    3    3    0    0 -0.24806652584E+01 -0.43536921396E+02  0.30081766137E+01  0.43711297342E+02  0.10566000000E+00 0.  1.
         22    1    1    0    0    0  0.26988855563E+02 -0.13929882360E+01 -0.11730877420E+02  0.29461028934E+02  0.00000000000E+00 0. -1.
</event>
<event>
 5    1  0.1261138E-009  0.9118800E+02  0.7561462E-02  0.1125453E+00
         25   -1    0    0    0    0  0.00000000000E+00  0.00000000000E+00  0.99999998245E-14  0.12509000000E+03  0.12509000000E+03 0.  0.
        -13    1    3    3    0    0 -0.21209166841E+01 -0.48180580949E+02  0.22204987156E+02  0.53093684058E+02  0.10566000000E+00 0.  1.
         23    2    1    0    0    0  0.20861069982E+02 -0.20632136558E+02 -0.84650390401E+00  0.95737217022E+02  0.91126444320E+02 0.  0.
         13    1    3    3    0    0  0.22981986666E+02  0.27548444392E+02 -0.23051491060E+02  0.42643532964E+02  0.10566000000E+00 0. -1.
         22    1    1    0    0    0 -0.20861069982E+02  0.20632136558E+02  0.84650390401E+00  0.29352782978E+02  0.00000000000E+00 0.  1.
</event>
<event>
 5    1  0.1261138E-009  0.9118800E+02  0.7561462E-02  0.1125453E+00
         25   -1    0    0    0    0  0.00000000000E+00  0.00000000000E+00  0.99999998245E-14  0.12509000000E+03  0.12509000000E+03 0.  0.
        -13    1    3    3    0    0  0.17563508807E+02  0.27430513344E+02 -0.13064023855E+02  0.35094013553E+02  0.10566000000E+00 0.  1.
         23    2    1    0    0    0 -0.21189015196E+00 -0.29010369175E+02  0.15215855682E+01  0.96038982122E+02  0.91539742447E+02 0.  0.
         13    1    3    3    0    0 -0.17775398959E+02 -0.56440882519E+02  0.14585609424E+02  0.60944968569E+02  0.10566000000E+00 0. -1.
         22    1    1    0    0    0  0.21189015196E+00  0.29010369175E+02 -0.15215855682E+01  0.29051017878E+02  0.00000000000E+00 0. -1.
</event>
<event>
 5    1  0.1261138E-009  0.9118800E+02  0.7561462E-02  0.1125453E+00
         25   -1    0    0    0    0  0.00000000000E+00  0.00000000000E+00  0.99999998245E-14  0.12509000000E+03  0.12509000000E+03 0.  0.
        -13    1    3    3    0    0 -0.13248505892E+02 -0.35510628128E+02  0.12643212282E+02  0.39954844503E+02  0.10566000000E+00 0. -1.
         23    2    1    0    0    0 -0.75167884002E+00  0.13581679350E+02  0.28892875737E+02  0.93155296253E+02  0.87510478896E+02 0.  0.
         13    1    3    3    0    0  0.12496827052E+02  0.49092307478E+02  0.16249663455E+02  0.53200451750E+02  0.10566000000E+00 0.  1.
         22    1    1    0    0    0  0.75167884002E+00 -0.13581679350E+02 -0.28892875737E+02  0.31934703747E+02  0.00000000000E+00 0. -1.
</event>
<event>
 5    1  0.1261138E-009  0.9118800E+02  0.7561462E-02  0.1125453E+00
         25   -1    0    0    0    0  0.00000000000E+00  0.00000000000E+00  0.99999998245E-14  0.12509000000E+03  0.12509000000E+03 0.  0.
        -13    1    3    3    0    0  0.19361136566E+02 -0.92629665075E+01 -0.40475931042E+02  0.45814498965E+02  0.10566000000E+00 0.  1.
         23    2    1    0    0    0 -0.15683085715E+02 -0.23357346776E+02 -0.74565958553E+01  0.95984577005E+02  0.91465367081E+02 0.  0.
         13    1    3    3    0    0 -0.35044222281E+02 -0.14094380268E+02  0.33019335187E+02  0.50170078041E+02  0.10566000000E+00 0. -1.
         22    1    1    0    0    0  0.15683085715E+02  0.23357346776E+02  0.74565958553E+01  0.29105422995E+02  0.00000000000E+00 0. -1.
</event>
<event>
 5    1  0.1261138E-009  0.9118800E+02  0.7561462E-02  0.1125453E+00
         25   -1    0    0    0    0  0.00000000000E+00  0.00000000000E+00  0.99999998245E-14  0.12509000000E+03  0.12509000000E+03 0.  0.
        -13    1    3    3    0    0  0.74953848496E+01 -0.59878723227E+02 -0.11582688035E+02  0.61447637184E+02  0.10566000000E+00 0.  1.
         23    2    1    0    0    0 -0.37361696179E+01 -0.26637567860E+02 -0.93758078578E+01  0.96604481611E+02  0.92309268817E+02 0.  0.
         13    1    3    3    0    0 -0.11231554468E+02  0.33241155367E+02  0.22068801773E+01  0.35156844427E+02  0.10566000000E+00 0. -1.
         22    1    1    0    0    0  0.37361696179E+01  0.26637567860E+02  0.93758078578E+01  0.28485518389E+02  0.00000000000E+00 0.  1.
</event>
<event>
 5    1  0.1261138E-009  0.9118800E+02  0.7561462E-02  0.1125453E+00
         25   -1    0    0    0    0  0.00000000000E+00  0.00000000000E+00  0.99999998245E-14  0.12509000000E+03  0.12509000000E+03 0.  0.
        -13    1    3    3    0    0 -0.29201386665E+02  0.30852199097E+02  0.30125939753E+02  0.52078427226E+02  0.10566000000E+00 0. -1.
         23    2    1    0    0    0  0.11626898659E+02  0.19513984806E+02  0.17868132350E+02  0.96189298812E+02  0.91744921804E+02 0.  0.
         13    1    3    3    0    0  0.40828285324E+02 -0.11338214290E+02 -0.12257807402E+02  0.44110871587E+02  0.10566000000E+00 0.  1.
         22    1    1    0    0    0 -0.11626898659E+02 -0.19513984806E+02 -0.17868132350E+02  0.28900701188E+02  0.00000000000E+00 0. -1.
</event>
<event>
 5    1  0.1261138E-009  0.9118800E+02  0.7561462E-02  0.1125453E+00
         25   -1    0    0    0    0  0.00000000000E+00  0.00000000000E+00  0.99999998245E-14  0.12509000000E+03  0.12509000000E+03 0.  0.
        -13    1    3    3    0    0  0.19205940519E+01 -0.40784901070E+02 -0.86901415187E-01  0.40830326385E+02  0.10566000000E+00 0. -1.
         23    2    1    0    0    0  0.29374503878E+02  0.59859154521E+01 -0.13961230146E+01  0.95079304884E+02  0.90218802895E+02 0.  0.
         13    1    3    3    0    0  0.27453909826E+02  0.46770816522E+02 -0.13092215994E+01  0.54248978499E+02  0.10566000000E+00 0.  1.
         22    1    1    0    0    0 -0.29374503878E+02 -0.59859154521E+01  0.13961230146E+01  0.30010695116E+02  0.00000000000E+00 0.  1.
</event>
<event>
 5    1  0.1261138E-009  0.9118800E+02  0.7561462E-02  0.1125453E+00
         25   -1    0    0    0    0  0.00000000000E+00  0.00000000000E+00  0.99999998245E-14  0.12509000000E+03  0.12509000000E+03 0.  0.
        -13    1    3    3    0    0 -0.28074342442E+02  0.12248969525E+01  0.23323339934E+02  0.36519288408E+02  0.10566000000E+00 0.  1.
         23    2    1    0    0    0  0.29785885665E+01 -0.16971162976E+02 -0.23732868454E+02  0.95761832521E+02  0.91160227952E+02 0.  0.
         13    1    3    3    0    0  0.31052931009E+02 -0.18196059928E+02 -0.47056208388E+02  0.59242544114E+02  0.10566000000E+00 0. -1.
         22    1    1    0    0    0 -0.29785885665E+01  0.16971162976E+02  0.23732868454E+02  0.29328167479E+02  0.00000000000E+00 0. -1.
</event>
<event>
 5    1  0.1261138E-009  0.9118800E+02  0.7561462E-02  0.1125453E+00
         25   -1    0    0    0    0  0.00000000000E+00  0.00000000000E+00  0.99999998245E-14  0.12509000000E+03  0.12509000000E+03 0.  0.
        -13    1    3    3    0    0 -0.67462443416E+01 -0.15471407443E+02 -0.28630955135E+02  0.33235809257E+02  0.10566000000E+00 0. -1.
         23    2    1    0    0    0  0.12685794122E+01  0.12779675460E+02  0.26467422018E+02  0.95671403384E+02  0.91036056585E+02 0.  0.
         13    1    3    3    0    0  0.80148237538E+01  0.28251082904E+02  0.55098377153E+02  0.62435594127E+02  0.10566000000E+00 0.  1.
         22    1    1    0    0    0 -0.12685794122E+01 -0.12779675460E+02 -0.26467422018E+02  0.29418596616E+02  0.00000000000E+00 0.  1.
</event>
<event>
 5    1  0.1261138E-009  0.9118800E+02  0.7561462E-02  0.1125453E+00
         25   -1    0    0    0    0  0.00000000000E+00  0.00000000000E+00  0.99999998245E-14  0.12509000000E+03  0.12509000000E+03 0.  0.
        -13    1    3    3    0    0 -0.10127365488E+02 -0.24262644225E+02  0.35962777810E+02  0.44548535199E+02  0.10566000000E+00 0. -1.
         23    2    1    0    0    0  0.27752656932E+02 -0.13276725535E+01  0.13852347287E+02  0.94043901911E+02  0.88771590502E+02 0.  0.
         13    1    3    3    0    0  0.37880022419E+02  0.22934971671E+02 -0.22110430524E+02  0.49495366713E+02  0.10566000000E+00 0.  1.
         22    1    1    0    0    0 -0.27752656932E+02  0.13276725535E+01 -0.13852347287E+02  0.31046098089E+02  0.00000000000E+00 0. -1.
</event>
<event>
 5    1  0.1261138E-009  0.9118800E+02  0.7561462E-02  0.1125453E+00
         25   -1    0    0    0    0  0.00000000000E+00  0.00000000000E+00  0.99999998245E-14  0.12509000000E+03  0.12509000000E+03 0.  0.
        -13    1    3    3    0    0  0.52117914307E+02  0.29810021528E+02  0.36525130967E+01  0.60152027324E+02  0.10566000000E+00 0.  1.
         23    2    1    0    0    0  0.19511636203E+02  0.20199807936E+02 -0.76626443150E+01  0.95978965909E+02  0.91457692902E+02 0.  0.
         13    1    3    3    0    0 -0.32606278104E+02 -0.96102135918E+01 -0.11315157412E+02  0.35826938585E+02  0.10566000000E+00 0. -1.
         22    1    1    0    0    0 -0.19511636203E+02 -0.20199807936E+02  0.76626443150E+01  0.29111034091E+02  0.00000000000E+00 0.  1.
</event>
<event>
 5    1  0.1261138E-009  0.9118800E+02  0.7561462E-02  0.1125453E+00
         25   -1    0    0    0    0  0.00000000000E+00  0.00000000000E+00  0.99999998245E-14  0.12509000000E+03  0.12509000000E+03 0.  0.
        -13    1    3    3    0    0  0.32198385941E+02 -0.98138857928E+00  0.33709073672E+02  0.46626301511E+02  0.10566000000E+00 0.  1.
         23    2    1    0    0    0  0.76409996195E+01  0.27297628325E+02  0.41320516476E+00  0.96740112419E+02  0.92492882023E+02 0.  0.
         13    1    3    3    0    0 -0.24557386321E+02  0.28279016905E+02 -0.33295868507E+02  0.50113810908E+02  0.10566000000E+00 0. -1.
         22    1    1    0    0    0 -0.76409996195E+01 -0.27297628325E+02 -0.41320516476E+00  0.28349887581E+02  0.00000000000E+00 0. -1.
</event>
<event>
 5    1  0.1261138E-009  0.9118800E+02  0.7561462E-02  0.1125453E+00
         25   -1    0    0    0    0  0.00000000000E+00  0.00000000000E+00  0.99999998245E-14  0.12509000000E+03  0.12509000000E+03 0.  0.
        -13    1    3    3    0    0  0.29013485463E+02 -0.42118075837E+02  0.35964904542E+02  0.62523596935E+02  0.10566000000E+00 0. -1.
         23    2    1    0    0    0  0.13228992688E+02 -0.18891701980E+02  0.17610298963E+02  0.96072328129E+02  0.91585298773E+02 0.  0.
         13    1    3    3    0    0 -0.15784492775E+02  0.23226373857E+02 -0.18354605579E+02  0.33548731194E+02  0.10566000000E+00 0.  1.
         22    1    1    0    0    0 -0.13228992688E+02  0.18891701980E+02 -0.17610298963E+02  0.29017671871E+02  0.00000000000E+00 0. -1.
</event>
<event>
 5    1  0.1261138E-009  0.9118800E+02  0.7561462E-02  0.1125453E+00
         25   -1    0    0    0    0  0.00000000000E+00  0.00000000000E+00  0.99999998245E-14  0.12509000000E+03  0.12509000000E+03 0.  0.
        -13    1    3    3    0    0 -0.10972429729E+02 -0.23487793092E+02  0.39155737410E+02  0.46960127498E+02  0.10566000000E+00 0.  1.
         23    2    1    0    0    0  0.17878174888E+02 -0.23373041351E+02 -0.82129798743E-01  0.95663227418E+02  0.91024821534E+02 0.  0.
         13    1    3    3    0    0  0.28850604616E+02  0.11475174044E+00 -0.39237867209E+02  0.48703099920E+02  0.10566000000E+00 0. -1.
         22    1    1    0    0    0 -0.17878174888E+02  0.23373041351E+02  0.82129798743E-01  0.29426772582E+02  0.00000000000E+00 0. -1.
</event>
<event>
 5    1  0.1261138E-009  0.9118800E+02  0.7561462E-02  0.1125453E+00
         25   -1    0    0    0    0  0.00000000000E+00  0.00000000000E+00  0.99999998245E-14  0.12509000000E+03  0.12509000000E+03 0.  0.
        -13    1    3    3    0    0  0.53742991874E+02 -0.10279481388E+02  0.25959979620E+02  0.60563261298E+02  0.10566000000E+00 0. -1.
         23    2    1    0    0    0  0.26494425004E+02  0.61464502178E+01  0.10522361611E+02  0.95927464095E+02  0.91387224858E+02 0.  0.
         13    1    3    3    0    0 -0.27248566870E+02  0.16425931606E+02 -0.15437618008E+02  0.35364202796E+02  0.10566000000E+00 0.  1.
         22    1    1    0    0    0 -0.26494425004E+02 -0.61464502178E+01 -0.10522361611E+02  0.29162535905E+02  0.00000000000E+00 0. -1.
</event>
<event>
 5    1  0.1261138E-009  0.9118800E+02  0.7561462E-02  0.1125453E+00
         25   -1    0    0    0    0  0.00000000000E+00  0.00000000000E+00  0.99999998245E-14  0.12509000000E+03  0.12509000000E+03 0.  0.
        -13    1    3    3    0    0 -0.89425902021E+01  0.45567239563E+02  0.38789443644E+02  0.60505994274E+02  0.10566000000E+00 0. -1.
         23    2    1    0    0    0 -0.34355862943E+01  0.17789146651E+02  0.29794739090E+02  0.90219045479E+02  0.83207527892E+02 0.  0.
         13    1    3    3    0    0  0.55070039078E+01 -0.27778092912E+02 -0.89947045533E+01  0.29713051205E+02  0.10566000000E+00 0.  1.
         22    1    1    0    0    0  0.34355862943E+01 -0.17789146651E+02 -0.29794739090E+02  0.34870954521E+02  0.00000000000E+00 0. -1.
</event>
<event>
 5    1  0.1261138E-009  0.9118800E+02  0.7561462E-02  0.1125453E+00
         25   -1    0    0    0    0  0.00000000000E+00  0.00000000000E+00  0.99999998245E-14  0.12509000000E+03  0.12509000000E+03 0.  0.
        -13    1    3    3    0    0 -0.32882432892E+02 -0.61427882220E+01  0.10470828927E+02  0.35051928085E+02  0.10566000000E+00 0. -1.
         23    2    1    0    0    0  0.25270061520E+02 -0.16128789862E+02 -0.69731302256E+00  0.95103334345E+02  0.90252114028E+02 0.  0.
         13    1    3    3    0    0  0.58152494412E+02 -0.99860016402E+01 -0.11168141950E+02  0.60051406260E+02  0.10566000000E+00 0.  1.
         22    1    1    0    0    0 -0.25270061520E+02  0.16128789862E+02  0.69731302256E+00  0.29986665655E+02  0.00000000000E+00 0.  1.
</event>
<event>
 5    1  0.1261138E-009  0.9118800E+02  0.7561462E-02  0.1125453E+00
         25   -1    0    0    0    0  0.00000000000E+00  0.00000000000E+00  0.99999998245E-14  0.12509000000E+03  0.12509000000E+03 0.  0.
        -13    1    3    3    0    0 -0.31278019683E+02  0.30310671838E+02 -0.29131596949E+02  0.52399546252E+02  0.10566000000E+00 0. -1.
         23    2    1    0    0    0 -0.12795085632E+02  0.25256625200E+02  0.92550066835E+01  0.95302981325E+02  0.90528403100E+02 0.  0.
         13    1    3    3    0    0  0.18482934051E+02 -0.50540466376E+01  0.38386603633E+02  0.42903435073E+02  0.10566000000E+00 0.  1.
         22    1    1    0    0    0  0.12795085632E+02 -0.25256625200E+02 -0.92550066835E+01  0.29787018675E+02  0.00000000000E+00 0.  1.
</event>
<event>
 5    1  0.1261138E-009  0.9118800E+02  0.7561462E-02  0.1125453E+00
         25   -1    0    0    0    0  0.00000000000E+00  0.00000000000E+00  0.99999998245E-14  0.12509000000E+03  0.12509000000E+03 0.  0.
        -13    1    3    3    0    0  0.34923001324E+02 -0.19159626942E+02  0.25745317338E+02  0.47429314299E+02  0.10566000000E+00 0.  1.
         23    2    1    0    0    0  0.27208647236E+02 -0.62634242404E+01 -0.16768678139E+02  0.92521157003E+02  0.86599278052E+02 0.  0.
         13    1    3    3    0    0 -0.77143540878E+01  0.12896202701E+02 -0.42513995476E+02  0.45091842705E+02  0.10566000000E+00 0. -1.
         22    1    1    0    0    0 -0.27208647236E+02  0.62634242404E+01  0.16768678139E+02  0.32568842997E+02  0.00000000000E+00 0.  1.
</event>
<event>
 5    1  0.1261138E-009  0.9118800E+02  0.7561462E-02  0.1125453E+00
         25   -1    0    0    0    0  0.00000000000E+00  0.00000000000E+00  0.99999998245E-14  0.12509000000E+03  0.12509000000E+03 0.  0.
        -13    1    3    3    0    0 -0.73325480885E+01 -0.94173837300E+01 -0.53878378669E+02  0.55184637626E+02  0.10566000000E+00 0.  1.
         23    2    1    0    0    0  0.51227011004E+01  0.15502759658E+02 -0.24267296776E+02  0.95841421977E+02  0.91269375204E+02 0.  0.
         13    1    3    3    0    0  0.12455249189E+02  0.24920143388E+02  0.29611081893E+02  0.40656784351E+02  0.10566000000E+00 0. -1.
         22    1    1    0    0    0 -0.51227011004E+01 -0.15502759658E+02  0.24267296776E+02  0.29248578023E+02  0.00000000000E+00 0.  1.
</event>
<event>
 5    1  0.1261138E-009  0.9118800E+02  0.7561462E-02  0.1125453E+00
         25   -1    0    0    0    0  0.00000000000E+00  0.00000000000E+00  0.99999998245E-14  0.12509000000E+03  0.12509000000E+03 0.  0.
        -13    1    3    3    0    0  0.13298205044E+02 -0.12757623204E+02 -0.42213555282E+02  0.46060770953E+02  0.10566000000E+00 0. -1.
         23    2    1    0    0    0 -0.18733257734E+02  0.15314698447E+02 -0.16267966606E+02  0.95933153955E+02  0.91395012754E+02 0.  0.
         13    1    3    3    0    0 -0.32031462778E+02  0.28072321651E+02  0.25945588676E+02  0.49872383002E+02  0.10566000000E+00 0.  1.
         22    1    1    0    0    0  0.18733257734E+02 -0.15314698447E+02  0.16267966606E+02  0.29156846045E+02  0.00000000000E+00 0.  1.
</event>
<event>
 5    1  0.1261138E-009  0.9118800E+02  0.7561462E-02  0.1125453E+00
         25   -1    0    0    0    0  0.00000000000E+00  0.00000000000E+00  0.99999998245E-14  0.12509000000E+03  0.12509000000E+03 0.  0.
        -13    1    3    3    0    0 -0.41924938528E+02 -0.30292791447E+02 -0.27150587428E+02  0.58416771957E+02  0.10566000000E+00 0. -1.
         23    2    1    0    0    0 -0.17782542656E+02  0.46117505780E+01 -0.66145539755E+01  0.10556464748E+03  0.10374321861E+03 0.  0.
         13    1    3    3    0    0  0.24142395872E+02  0.34904542025E+02  0.20536033452E+02  0.47147875523E+02  0.10566000000E+00 0.  1.
         22    1    1    0    0    0  0.17782542656E+02 -0.46117505780E+01  0.66145539755E+01  0.19525352519E+02  0.00000000000E+00 0. -1.
</event>
<event>
 5    1  0.1261138E-009  0.9118800E+02  0.7561462E-02  0.1125453E+00
         25   -1    0    0    0    0  0.00000000000E+00  0.00000000000E+00  0.99999998245E-14  0.12509000000E+03  0.12509000000E+03 0.  0.
        -13    1    3    3    0    0  0.40275370839E+02  0.20830656648E+02  0.38617712232E+02  0.59559723091E+02  0.10566000000E+00 0.  1.
         23    2    1    0    0    0  0.16013945907E+02 -0.17929701416E+01  0.24841948761E+02  0.95479467690E+02  0.90771940194E+02 0.  0.
         13    1    3    3    0    0 -0.24261424931E+02 -0.22623626790E+02 -0.13775763471E+02  0.35919744599E+02  0.10566000000E+00 0. -1.
         22    1    1    0    0    0 -0.16013945907E+02  0.17929701416E+01 -0.24841948761E+02  0.29610532310E+02  0.00000000000E+00 0.  1.
</event>
<event>
 5    1  0.1261138E-009  0.9118800E+02  0.7561462E-02  0.1125453E+00
         25   -1    0    0    0    0  0.00000000000E+00  0.00000000000E+00  0.99999998245E-14  0.12509000000E+03  0.12509000000E+03 0.  0.
        -13    1    3    3    0    0 -0.41227881093E+02 -0.11746635024E+02 -0.40879008441E+02  0.59235345099E+02  0.10566000000E+00 0.  1.
         23    2    1    0    0    0 -0.80979913181E+01 -0.19928111789E+01 -0.27635543147E+02  0.96223548801E+02  0.91791608217E+02 0.  0.
         13    1    3    3    0    0  0.33129889775E+02  0.97538238453E+01  0.13243465294E+02  0.36988203702E+02  0.10566000000E+00 0. -1.
         22    1    1    0    0    0  0.80979913181E+01  0.19928111789E+01  0.27635543147E+02  0.28866451199E+02  0.00000000000E+00 0.  1.
</event>
<event>
 5    1  0.1261138E-009  0.9118800E+02  0.7561462E-02  0.1125453E+00
         25   -1    0    0    0    0  0.00000000000E+00  0.00000000000E+00  0.99999998245E-14  0.12509000000E+03  0.12509000000E+03 0.  0.
        -13    1    3    3    0    0  0.38270883066E+02  0.13877109342E+02 -0.46165499514E+02  0.61550785241E+02  0.10566000000E+00 0.  1.
         23    2    1    0    0    0  0.24191279622E+02  0.62072226651E+01 -0.16856291096E+02  0.94958916839E+02  0.90051727994E+02 0.  0.
         13    1    3    3    0    0 -0.14079603444E+02 -0.76698866773E+01  0.29309208418E+02  0.33408131599E+02  0.10566000000E+00 0. -1.
         22    1    1    0    0    0 -0.24191279622E+02 -0.62072226651E+01  0.16856291096E+02  0.30131083161E+02  0.00000000000E+00 0.  1.
</event>
<event>
 5    1  0.1261138E-009  0.9118800E+02  0.7561462E-02  0.1125453E+00
         25   -1    0    0    0    0  0.00000000000E+00  0.00000000000E+00  0.99999998245E-14  0.12509000000E+03  0.12509000000E+03 0.  0.
        -13    1    3    3    0    0  0.10736081013E+02  0.32698996264E+02  0.92395466597E+01  0.35635209817E+02  0.10566000000E+00 0. -1.
         23    2    1    0    0    0 -0.23166308190E+01 -0.24420843757E+02  0.17707218168E+02  0.94836240508E+02  0.89881157927E+02 0.  0.
         13    1    3    3    0    0 -0.13052711832E+02 -0.57119840020E+02  0.84676715087E+01  0.59201030691E+02  0.10566000000E+00 0.  1.
         22    1    1    0    0    0  0.23166308190E+01  0.24420843757E+02 -0.17707218168E+02  0.30253759492E+02  0.00000000000E+00 0.  1.
</event>
<event>
 5    1  0.1261138E-009  0.9118800E+02  0.7561462E-02  0.1125453E+00
         25   -1    0    0    0    0  0.00000000000E+00  0.00000000000E+00  0.99999998245E-14  0.12509000000E+03  0.12509000000E+03 0.  0.
        -13    1    3    3    0    0 -0.35635393745E+02  0.40139491615E+02 -0.29751013768E+02  0.61369325064E+02  0.10566000000E+00 0. -1.
         23    2    1    0    0    0 -0.10268404924E+02  0.21754531368E+02 -0.18806856642E+02  0.94554813224E+02  0.89488630967E+02 0.  0.
         13    1    3    3    0    0  0.25366988821E+02 -0.18384960248E+02  0.10944157125E+02  0.33185488160E+02  0.10566000000E+00 0.  1.
         22    1    1    0    0    0  0.10268404924E+02 -0.21754531368E+02  0.18806856642E+02  0.30535186776E+02  0.00000000000E+00 0. -1.
</event>
<event>
 5    1  0.1261138E-009  0.9118800E+02  0.7561462E-02  0.1125453E+00
         25   -1    0    0    0    0  0.00000000000E+00  0.00000000000E+00  0.99999998245E-14  0.12509000000E+03  0.12509000000E+03 0.  0.
        -13    1    3    3    0    0  0.26871006632E+02 -0.18189640238E+02  0.30823563688E+02  0.44755080738E+02  0.10566000000E+00 0. -1.
         23    2    1    0    0    0  0.16274810641E+02  0.22975972535E+02  0.57251670989E+00  0.96928101082E+02  0.92746774761E+02 0.  0.
         13    1    3    3    0    0 -0.10596195991E+02  0.41165612773E+02 -0.30251046978E+02  0.52173020344E+02  0.10566000000E+00 0.  1.
         22    1    1    0    0    0 -0.16274810641E+02 -0.22975972535E+02 -0.57251670989E+00  0.28161898918E+02  0.00000000000E+00 0. -1.
</event>
<event>
 5    1  0.1261138E-009  0.9118800E+02  0.7561462E-02  0.1125453E+00
         25   -1    0    0    0    0  0.00000000000E+00  0.00000000000E+00  0.99999998245E-14  0.12509000000E+03  0.12509000000E+03 0.  0.
        -13    1    3    3    0    0  0.10471804296E+02  0.38071800149E+02  0.39204725930E+02  0.55642990134E+02  0.10566000000E+00 0.  1.
         23    2    1    0    0    0  0.27877473755E+01  0.31019380279E+02  0.24496111359E+01  0.93849416090E+02  0.88497111916E+02 0.  0.
         13    1    3    3    0    0 -0.76840569207E+01 -0.70524198699E+01 -0.36755114794E+02  0.38206425956E+02  0.10566000000E+00 0. -1.
         22    1    1    0    0    0 -0.27877473755E+01 -0.31019380279E+02 -0.24496111359E+01  0.31240583910E+02  0.00000000000E+00 0.  1.
</event>
<event>
 5    1  0.1261138E-009  0.9118800E+02  0.7561462E-02  0.1125453E+00
         25   -1    0    0    0    0  0.00000000000E+00  0.00000000000E+00  0.99999998245E-14  0.12509000000E+03  0.12509000000E+03 0.  0.
        -13    1    3    3    0    0  0.10875117085E+02 -0.86860858998E+01  0.37995904403E+02  0.40464999386E+02  0.10566000000E+00 0.  1.
         23    2    1    0    0    0  0.97441986969E+01  0.28922864316E+02 -0.86638955318E+00  0.94557523531E+02  0.89492419438E+02 0.  0.
         13    1    3    3    0    0 -0.11309183881E+01  0.37608950216E+02 -0.38862293957E+02  0.54092524145E+02  0.10566000000E+00 0. -1.
         22    1    1    0    0    0 -0.97441986969E+01 -0.28922864316E+02  0.86638955318E+00  0.30532476469E+02  0.00000000000E+00 0. -1.
</event>
<event>
 5    1  0.1261138E-009  0.9118800E+02  0.7561462E-02  0.1125453E+00
         25   -1    0    0    0    0  0.00000000000E+00  0.00000000000E+00  0.99999998245E-14  0.12509000000E+03  0.12509000000E+03 0.  0.
        -13    1    3    3    0    0 -0.29377723370E+02  0.42357643322E+01 -0.40187228009E+02  0.49960152011E+02  0.10566000000E+00 0. -1.
         23    2    1    0    0    0 -0.20620924382E+02 -0.21868377611E+02 -0.50323202495E+01  0.94614227511E+02  0.89571643608E+02 0.  0.
         13    1    3    3    0    0  0.87567989874E+01 -0.26104141943E+02  0.35154907760E+02  0.44654075500E+02  0.10566000000E+00 0.  1.
         22    1    1    0    0    0  0.20620924382E+02  0.21868377611E+02  0.50323202495E+01  0.30475772489E+02  0.00000000000E+00 0. -1.
</event>
<event>
 5    1  0.1261138E-009  0.9118800E+02  0.7561462E-02  0.1125453E+00
         25   -1    0    0    0    0  0.00000000000E+00  0.00000000000E+00  0.99999998245E-14  0.12509000000E+03  0.12509000000E+03 0.  0.
        -13    1    3    3    0    0 -0.32373616832E+02 -0.20469358565E+02 -0.11636287492E+02  0.40030738907E+02  0.10566000000E+00 0.  1.
         23    2    1    0    0    0  0.20629963554E+02 -0.22161021682E+02  0.18726312405E+01  0.94754986797E+02  0.89768003749E+02 0.  0.
         13    1    3    3    0    0  0.53003580386E+02 -0.16916631175E+01  0.13508918732E+02  0.54724247890E+02  0.10566000000E+00 0. -1.
         22    1    1    0    0    0 -0.20629963554E+02  0.22161021682E+02 -0.18726312405E+01  0.30335013203E+02  0.00000000000E+00 0. -1.
</event>
<event>
 5    1  0.1261138E-009  0.9118800E+02  0.7561462E-02  0.1125453E+00
         25   -1    0    0    0    0  0.00000000000E+00  0.00000000000E+00  0.99999998245E-14  0.12509000000E+03  0.12509000000E+03 0.  0.
        -13    1    3    3    0    0 -0.19376143712E+01  0.36758783311E+02  0.45159086878E+01  0.37085942017E+02  0.10566000000E+00 0.  1.
         23    2    1    0    0    0 -0.75571809229E+00 -0.22548822220E+02 -0.13144778230E+02  0.98978590845E+02  0.95472277430E+02 0.  0.
         13    1    3    3    0    0  0.11818962789E+01 -0.59307605531E+02 -0.17660686917E+02  0.61892648829E+02  0.10566000000E+00 0. -1.
         22    1    1    0    0    0  0.75571809229E+00  0.22548822220E+02  0.13144778230E+02  0.26111409155E+02  0.00000000000E+00 0. -1.
</event>
<event>
 5    1  0.1261138E-009  0.9118800E+02  0.7561462E-02  0.1125453E+00
         25   -1    0    0    0    0  0.00000000000E+00  0.00000000000E+00  0.99999998245E-14  0.12509000000E+03  0.12509000000E+03 0.  0.
        -13    1    3    3    0    0 -0.39265037635E+02  0.16007171203E+01 -0.11662205899E+02  0.40991751441E+02  0.10566000000E+00 0.  1.
         23    2    1    0    0    0 -0.16165267101E+01 -0.57530672670E+01  0.28170734219E+02  0.96292409684E+02  0.91885401206E+02 0.  0.
         13    1    3    3    0    0  0.37648510925E+02 -0.73537843873E+01  0.39832940118E+02  0.55300658243E+02  0.10566000000E+00 0. -1.
         22    1    1    0    0    0  0.16165267101E+01  0.57530672670E+01 -0.28170734219E+02  0.28797590316E+02  0.00000000000E+00 0. -1.
</event>
<event>
 5    1  0.1261138E-009  0.9118800E+02  0.7561462E-02  0.1125453E+00
         25   -1    0    0    0    0  0.00000000000E+00  0.00000000000E+00  0.99999998245E-14  0.12509000000E+03  0.12509000000E+03 0.  0.
        -13    1    3    3    0    0 -0.16846206807E+01  0.25611466744E+02  0.27626629254E+02  0.37709773051E+02  0.10566000000E+00 0. -1.
         23    2    1    0    0    0 -0.12631634955E+02 -0.19770175341E+02 -0.11812834336E+02  0.98822889583E+02  0.95268055589E+02 0.  0.
         13    1    3    3    0    0 -0.10947014274E+02 -0.45381642085E+02 -0.39439463590E+02  0.61113116531E+02  0.10566000000E+00 0.  1.
         22    1    1    0    0    0  0.12631634955E+02  0.19770175341E+02  0.11812834336E+02  0.26267110417E+02  0.00000000000E+00 0.  1.
</event>
<event>
 5    1  0.1261138E-009  0.9118800E+02  0.7561462E-02  0.1125453E+00
         25   -1    0    0    0    0  0.00000000000E+00  0.00000000000E+00  0.99999998245E-14  0.12509000000E+03  0.12509000000E+03 0.  0.
        -13    1    3    3    0    0 -0.13931251687E+01 -0.30086614265E+02  0.20774827941E+02  0.36588929961E+02  0.10566000000E+00 0. -1.
         23    2    1    0    0    0  0.43968098691E+01  0.27393711067E+02  0.11303297604E+02  0.95131497371E+02  0.90291139722E+02 0.  0.
         13    1    3    3    0    0  0.57899350378E+01  0.57480325332E+02 -0.94715303369E+01  0.58542567410E+02  0.10566000000E+00 0.  1.
         22    1    1    0    0    0 -0.43968098691E+01 -0.27393711067E+02 -0.11303297604E+02  0.29958502629E+02  0.00000000000E+00 0.  1.
</event>
<event>
 5    1  0.1261138E-009  0.9118800E+02  0.7561462E-02  0.1125453E+00
         25   -1    0    0    0    0  0.00000000000E+00  0.00000000000E+00  0.99999998245E-14  0.12509000000E+03  0.12509000000E+03 0.  0.
        -13    1    3    3    0    0  0.51135207747E+02 -0.15494998132E+02  0.14584389774E+02  0.55386099588E+02  0.10566000000E+00 0. -1.
         23    2    1    0    0    0  0.22481061809E+02 -0.20163665804E+02 -0.98427931450E+01  0.93327567228E+02  0.87756382497E+02 0.  0.
         13    1    3    3    0    0 -0.28654145938E+02 -0.46686676715E+01 -0.24427182919E+02  0.37941467640E+02  0.10566000000E+00 0.  1.
         22    1    1    0    0    0 -0.22481061809E+02  0.20163665804E+02  0.98427931450E+01  0.31762432772E+02  0.00000000000E+00 0. -1.
</event>
<event>
 5    1  0.1261138E-009  0.9118800E+02  0.7561462E-02  0.1125453E+00
         25   -1    0    0    0    0  0.00000000000E+00  0.00000000000E+00  0.99999998245E-14  0.12509000000E+03  0.12509000000E+03 0.  0.
        -13    1    3    3    0    0  0.33516197634E+02 -0.29635472870E+01 -0.10888389955E+02  0.35365043704E+02  0.10566000000E+00 0. -1.
         23    2    1    0    0    0 -0.23517400404E+02  0.16556633029E+02 -0.43901490240E+01  0.95995952027E+02  0.91480922481E+02 0.  0.
         13    1    3    3    0    0 -0.57033598038E+02  0.19520180316E+02  0.64982409310E+01  0.60630908322E+02  0.10566000000E+00 0.  1.
         22    1    1    0    0    0  0.23517400404E+02 -0.16556633029E+02  0.43901490240E+01  0.29094047973E+02  0.00000000000E+00 0.  1.
</event>
<event>
 5    1  0.1261138E-009  0.9118800E+02  0.7561462E-02  0.1125453E+00
         25   -1    0    0    0    0  0.00000000000E+00  0.00000000000E+00  0.99999998245E-14  0.12509000000E+03  0.12509000000E+03 0.  0.
        -13    1    3    3    0    0  0.33912862600E+01  0.54147834528E+02  0.16978301789E+02  0.56848594549E+02  0.10566000000E+00 0. -1.
         23    2    1    0    0    0  0.12472379740E+02  0.16559738076E+02  0.20820174896E+02  0.95708630662E+02  0.91087195142E+02 0.  0.
         13    1    3    3    0    0  0.90810934798E+01 -0.37588096452E+02  0.38418731068E+01  0.38860036112E+02  0.10566000000E+00 0.  1.
         22    1    1    0    0    0 -0.12472379740E+02 -0.16559738076E+02 -0.20820174896E+02  0.29381369338E+02  0.00000000000E+00 0. -1.
</event>
<event>
 5    1  0.1261138E-009  0.9118800E+02  0.7561462E-02  0.1125453E+00
         25   -1    0    0    0    0  0.00000000000E+00  0.00000000000E+00  0.99999998245E-14  0.12509000000E+03  0.12509000000E+03 0.  0.
        -13    1    3    3    0    0 -0.10071675185E+02  0.46082842265E+02 -0.99222223315E+01  0.48202994225E+02  0.10566000000E+00 0.  1.
         23    2    1    0    0    0 -0.47180634035E+01  0.17787639814E+02  0.25366884572E+02  0.93750901651E+02  0.88357752773E+02 0.  0.
         13    1    3    3    0    0  0.53536117812E+01 -0.28295202450E+02  0.35289106904E+02  0.45547907426E+02  0.10566000000E+00 0. -1.
         22    1    1    0    0    0  0.47180634035E+01 -0.17787639814E+02 -0.25366884572E+02  0.31339098349E+02  0.00000000000E+00 0.  1.
</event>
<event>
 5    1  0.1261138E-009  0.9118800E+02  0.7561462E-02  0.1125453E+00
         25   -1    0    0    0    0  0.00000000000E+00  0.00000000000E+00  0.99999998245E-14  0.12509000000E+03  0.12509000000E+03 0.  0.
        -13    1    3    3    0    0 -0.16597926464E+02  0.21080250392E+02 -0.27514709264E+02  0.38430957695E+02  0.10566000000E+00 0. -1.
         23    2    1    0    0    0 -0.18069720406E+02 -0.11848897202E+02  0.19590253436E+02  0.95923423407E+02  0.91381693834E+02 0.  0.
         13    1    3    3    0    0 -0.14717939413E+01 -0.32929147594E+02  0.47104962700E+02  0.57492465712E+02  0.10566000000E+00 0.  1.
         22    1    1    0    0    0  0.18069720406E+02  0.11848897202E+02 -0.19590253436E+02  0.29166576593E+02  0.00000000000E+00 0.  1.
</event>
<event>
 5    1  0.1261138E-009  0.9118800E+02  0.7561462E-02  0.1125453E+00
         25   -1    0    0    0    0  0.00000000000E+00  0.00000000000E+00  0.99999998245E-14  0.12509000000E+03  0.12509000000E+03 0.  0.
        -13    1    3    3    0    0  0.32674157949E+02 -0.26163057507E+00  0.63273826078E+01  0.33282367448E+02  0.10566000000E+00 0. -1.
         23    2    1    0    0    0 -0.27168512072E+02 -0.10481952320E+02 -0.63119206228E+01  0.95293360683E+02  0.90515108549E+02 0.  0.
         13    1    3    3    0    0 -0.59842670021E+02 -0.10220321745E+02 -0.12639303231E+02  0.62010993235E+02  0.10566000000E+00 0.  1.
         22    1    1    0    0    0  0.27168512072E+02  0.10481952320E+02  0.63119206228E+01  0.29796639317E+02  0.00000000000E+00 0.  1.
</event>
<event>
 5    1  0.1261138E-009  0.9118800E+02  0.7561462E-02  0.1125453E+00
         25   -1    0    0    0    0  0.00000000000E+00  0.00000000000E+00  0.99999998245E-14  0.12509000000E+03  0.12509000000E+03 0.  0.
        -13    1    3    3    0    0 -0.96641321096E+01  0.32011455623E+02  0.28497133125E+02  0.43934343069E+02  0.10566000000E+00 0. -1.
         23    2    1    0    0    0  0.66070501175E+01 -0.14897555864E+02  0.26933341892E+02  0.93609923960E+02  0.88157941652E+02 0.  0.
         13    1    3    3    0    0  0.16271182227E+02 -0.46909011488E+02 -0.15637912322E+01  0.49675580891E+02  0.10566000000E+00 0.  1.
         22    1    1    0    0    0 -0.66070501175E+01  0.14897555864E+02 -0.26933341892E+02  0.31480076040E+02  0.00000000000E+00 0.  1.
</event>
<event>
 5    1  0.1261138E-009  0.9118800E+02  0.7561462E-02  0.1125453E+00
         25   -1    0    0    0    0  0.00000000000E+00  0.00000000000E+00  0.99999998245E-14  0.12509000000E+03  0.12509000000E+03 0.  0.
        -13    1    3    3    0    0 -0.20668721281E+01 -0.76885949558E+01  0.39301930653E+02  0.40100366206E+02  0.10566000000E+00 0. -1.
         23    2    1    0    0    0  0.14549166846E+02  0.29320385022E+02  0.78563189782E+01  0.91428672313E+02  0.85006571153E+02 0.  0.
         13    1    3    3    0    0  0.16616038974E+02  0.37008979978E+02 -0.31445611674E+02  0.51328306107E+02  0.10566000000E+00 0.  1.
         22    1    1    0    0    0 -0.14549166846E+02 -0.29320385022E+02 -0.78563189782E+01  0.33661327687E+02  0.00000000000E+00 0.  1.
</event>
<event>
 5    1  0.1261138E-009  0.9118800E+02  0.7561462E-02  0.1125453E+00
         25   -1    0    0    0    0  0.00000000000E+00  0.00000000000E+00  0.99999998245E-14  0.12509000000E+03  0.12509000000E+03 0.  0.
        -13    1    3    3    0    0  0.15703817449E+02  0.55949511700E+02 -0.58713825122E+01  0.58407551212E+02  0.10566000000E+00 0.  1.
         23    2    1    0    0    0  0.22920892618E+02  0.24221744518E+02 -0.72037164829E+01  0.90973233490E+02  0.84333714816E+02 0.  0.
         13    1    3    3    0    0  0.72170751697E+01 -0.31727767182E+02 -0.13323339707E+01  0.32565682278E+02  0.10566000000E+00 0. -1.
         22    1    1    0    0    0 -0.22920892618E+02 -0.24221744518E+02  0.72037164829E+01  0.34116766510E+02  0.00000000000E+00 0.  1.
</event>
<event>
 5    1  0.1261138E-009  0.9118800E+02  0.7561462E-02  0.1125453E+00
         25   -1    0    0    0    0  0.00000000000E+00  0.00000000000E+00  0.99999998245E-14  0.12509000000E+03  0.12509000000E+03 0.  0.
        -13    1    3    3    0    0  0.36450233991E+02 -0.47823700984E+02 -0.11549034836E+02  0.61230035958E+02  0.10566000000E+00 0.  1.
         23    2    1    0    0    0  0.81324780210E+01 -0.25117937108E+02 -0.67188425668E+01  0.97846820877E+02  0.93977707713E+02 0.  0.
         13    1    3    3    0    0 -0.28317755970E+02  0.22705763876E+02  0.48301922692E+01  0.36616784918E+02  0.10566000000E+00 0. -1.
         22    1    1    0    0    0 -0.81324780210E+01  0.25117937108E+02  0.67188425668E+01  0.27243179123E+02  0.00000000000E+00 0.  1.
</event>
<event>
 5    1  0.1261138E-009  0.9118800E+02  0.7561462E-02  0.1125453E+00
         25   -1    0    0    0    0  0.00000000000E+00  0.00000000000E+00  0.99999998245E-14  0.12509000000E+03  0.12509000000E+03 0.  0.
        -13    1    3    3    0    0  0.13272227089E+02  0.95894158853E+00 -0.29054476448E+02  0.31956929555E+02  0.10566000000E+00 0. -1.
         23    2    1    0    0    0 -0.10049541513E+02  0.13430353525E+02  0.26638346255E+02  0.93610337174E+02  0.88158527972E+02 0.  0.
         13    1    3    3    0    0 -0.23321768601E+02  0.12471411937E+02  0.55692822703E+02  0.61653407619E+02  0.10566000000E+00 0.  1.
         22    1    1    0    0    0  0.10049541513E+02 -0.13430353525E+02 -0.26638346255E+02  0.31479662826E+02  0.00000000000E+00 0.  1.
</event>
<event>
 5    1  0.1261138E-009  0.9118800E+02  0.7561462E-02  0.1125453E+00
         25   -1    0    0    0    0  0.00000000000E+00  0.00000000000E+00  0.99999998245E-14  0.12509000000E+03  0.12509000000E+03 0.  0.
        -13    1    3    3    0    0 -0.12782048619E+02 -0.40783306564E+02 -0.14432284873E+02  0.45110540585E+02  0.10566000000E+00 0. -1.
         23    2    1    0    0    0  0.94612490829E+01  0.54864374992E+00 -0.29259436714E+02  0.94334010649E+02  0.89179452140E+02 0.  0.
         13    1    3    3    0    0  0.22243297702E+02  0.41331950313E+02 -0.14827151841E+02  0.49223470064E+02  0.10566000000E+00 0.  1.
         22    1    1    0    0    0 -0.94612490829E+01 -0.54864374992E+00  0.29259436714E+02  0.30755989351E+02  0.00000000000E+00 0.  1.
</event>
<event>
 5    1  0.1261138E-009  0.9118800E+02  0.7561462E-02  0.1125453E+00
         25   -1    0    0    0    0  0.00000000000E+00  0.00000000000E+00  0.99999998245E-14  0.12509000000E+03  0.12509000000E+03 0.  0.
        -13    1    3    3    0    0  0.31240017662E+02 -0.34793882957E+01 -0.18450759960E+02  0.36448409479E+02  0.10566000000E+00 0.  1.
         23    2    1    0    0    0 -0.23883181822E+02 -0.14999384578E+02  0.30401143735E+01  0.96723995575E+02  0.92471082577E+02 0.  0.
         13    1    3    3    0    0 -0.55123199483E+02 -0.11519996282E+02  0.21490874333E+02  0.60275586096E+02  0.10566000000E+00 0. -1.
         22    1    1    0    0    0  0.23883181822E+02  0.14999384578E+02 -0.30401143735E+01  0.28366004425E+02  0.00000000000E+00 0. -1.
</event>
<event>
 5    1  0.1261138E-009  0.9118800E+02  0.7561462E-02  0.1125453E+00
         25   -1    0    0    0    0  0.00000000000E+00  0.00000000000E+00  0.99999998245E-14  0.12509000000E+03  0.12509000000E+03 0.  0.
        -13    1    3    3    0    0  0.95762838082E+01 -0.23983641733E+02 -0.16790304310E+02  0.30803340163E+02  0.10566000000E+00 0. -1.
         23    2    1    0    0    0  0.22441090394E+02  0.24237744909E+02  0.13746466442E+02  0.89312407069E+02  0.81833183370E+02 0.  0.
         13    1    3    3    0    0  0.12864806585E+02  0.48221386642E+02  0.30536770752E+02  0.58509066905E+02  0.10566000000E+00 0.  1.
         22    1    1    0    0    0 -0.22441090394E+02 -0.24237744909E+02 -0.13746466442E+02  0.35777592931E+02  0.00000000000E+00 0.  1.
</event>
<event>
 5    1  0.1261138E-009  0.9118800E+02  0.7561462E-02  0.1125453E+00
         25   -1    0    0    0    0  0.00000000000E+00  0.00000000000E+00  0.99999998245E-14  0.12509000000E+03  0.12509000000E+03 0.  0.
        -13    1    3    3    0    0 -0.41897040970E+02 -0.31818783126E+01  0.23162571242E+02  0.47979185719E+02  0.10566000000E+00 0.  1.
         23    2    1    0    0    0 -0.29827569086E+02  0.97514275473E+01 -0.15197976192E+02  0.90222354580E+02  0.83212502480E+02 0.  0.
         13    1    3    3    0    0  0.12069471884E+02  0.12933305860E+02 -0.38360547434E+02  0.42243168862E+02  0.10566000000E+00 0. -1.
         22    1    1    0    0    0  0.29827569086E+02 -0.97514275473E+01  0.15197976192E+02  0.34867645420E+02  0.00000000000E+00 0.  1.
</event>
<event>
 5    1  0.1261138E-009  0.9118800E+02  0.7561462E-02  0.1125453E+00
         25   -1    0    0    0    0  0.00000000000E+00  0.00000000000E+00  0.99999998245E-14  0.12509000000E+03  0.12509000000E+03 0.  0.
        -13    1    3    3    0    0  0.24821531895E+02  0.13645562165E+02 -0.51344738116E+02  0.58639603585E+02  0.10566000000E+00 0.  1.
         23    2    1    0    0    0  0.95267992749E+01  0.20873463436E+02 -0.18381587633E+02  0.95690269659E+02  0.91061976495E+02 0.  0.
         13    1    3    3    0    0 -0.15294732620E+02  0.72279012713E+01  0.32963150483E+02  0.37050666074E+02  0.10566000000E+00 0. -1.
         22    1    1    0    0    0 -0.95267992749E+01 -0.20873463436E+02  0.18381587633E+02  0.29399730341E+02  0.00000000000E+00 0.  1.
</event>
<event>
 5    1  0.1261138E-009  0.9118800E+02  0.7561462E-02  0.1125453E+00
         25   -1    0    0    0    0  0.00000000000E+00  0.00000000000E+00  0.99999998245E-14  0.12509000000E+03  0.12509000000E+03 0.  0.
        -13    1    3    3    0    0  0.15116713622E+02 -0.28615977905E+02  0.53478369673E+02  0.62508690669E+02  0.10566000000E+00 0. -1.
         23    2    1    0    0    0  0.60412225064E+01 -0.14532743454E+02  0.25100627251E+02  0.95463348315E+02  0.90749723864E+02 0.  0.
         13    1    3    3    0    0 -0.90754911160E+01  0.14083234451E+02 -0.28377742422E+02  0.32954657647E+02  0.10566000000E+00 0.  1.
         22    1    1    0    0    0 -0.60412225064E+01  0.14532743454E+02 -0.25100627251E+02  0.29626651685E+02  0.00000000000E+00 0. -1.
</event>
<event>
 5    1  0.1261138E-009  0.9118800E+02  0.7561462E-02  0.1125453E+00
         25   -1    0    0    0    0  0.00000000000E+00  0.00000000000E+00  0.99999998245E-14  0.12509000000E+03  0.12509000000E+03 0.  0.
        -13    1    3    3    0    0  0.46658953120E+02 -0.15331195688E+02 -0.27781378072E+02  0.56426231480E+02  0.10566000000E+00 0.  1.
         23    2    1    0    0    0  0.10177336523E+02 -0.18837999853E+02 -0.23456825562E+02  0.93330417468E+02  0.87760445202E+02 0.  0.
         13    1    3    3    0    0 -0.36481616597E+02 -0.35068041650E+01  0.43245525098E+01  0.36904185988E+02  0.10566000000E+00 0. -1.
         22    1    1    0    0    0 -0.10177336523E+02  0.18837999853E+02  0.23456825562E+02  0.31759582532E+02  0.00000000000E+00 0.  1.
</event>
<event>
 5    1  0.1261138E-009  0.9118800E+02  0.7561462E-02  0.1125453E+00
         25   -1    0    0    0    0  0.00000000000E+00  0.00000000000E+00  0.99999998245E-14  0.12509000000E+03  0.12509000000E+03 0.  0.
        -13    1    3    3    0    0  0.14378877174E+02 -0.22634298831E+02  0.52981634967E+02  0.59381212519E+02  0.10566000000E+00 0. -1.
         23    2    1    0    0    0  0.15899515618E+02 -0.17552340740E+02  0.16549395167E+02  0.96197756357E+02  0.91756452554E+02 0.  0.
         13    1    3    3    0    0  0.15206384433E+01  0.50819580907E+01 -0.36432239800E+02  0.36816543838E+02  0.10566000000E+00 0.  1.
         22    1    1    0    0    0 -0.15899515618E+02  0.17552340740E+02 -0.16549395167E+02  0.28892243643E+02  0.00000000000E+00 0. -1.
</event>
<event>
 5    1  0.1261138E-009  0.9118800E+02  0.7561462E-02  0.1125453E+00
         25   -1    0    0    0    0  0.00000000000E+00  0.00000000000E+00  0.99999998245E-14  0.12509000000E+03  0.12509000000E+03 0.  0.
        -13    1    3    3    0    0 -0.24940914136E+00  0.27753084382E+02  0.55949328620E+02  0.62455059320E+02  0.10566000000E+00 0. -1.
         23    2    1    0    0    0  0.69928443135E+00  0.22113759417E+02  0.40311320757E+02  0.79106199206E+02  0.64368321537E+02 0.  0.
         13    1    3    3    0    0  0.94869357271E+00 -0.56393249648E+01 -0.15638007863E+02  0.16651139886E+02  0.10566000000E+00 0.  1.
         22    1    1    0    0    0 -0.69928443135E+00 -0.22113759417E+02 -0.40311320757E+02  0.45983800794E+02  0.00000000000E+00 0. -1.
</event>
<event>
 5    1  0.1261138E-009  0.9118800E+02  0.7561462E-02  0.1125453E+00
         25   -1    0    0    0    0  0.00000000000E+00  0.00000000000E+00  0.99999998245E-14  0.12509000000E+03  0.12509000000E+03 0.  0.
        -13    1    3    3    0    0 -0.57286821845E+01 -0.18504073305E+02  0.40928707305E+02  0.45281218779E+02  0.10566000000E+00 0.  1.
         23    2    1    0    0    0  0.22436400714E+02  0.13081116247E+02  0.12463451010E+02  0.96282964569E+02  0.91872542013E+02 0.  0.
         13    1    3    3    0    0  0.28165082898E+02  0.31585189551E+02 -0.28465256294E+02  0.51001745790E+02  0.10566000000E+00 0. -1.
         22    1    1    0    0    0 -0.22436400714E+02 -0.13081116247E+02 -0.12463451010E+02  0.28807035431E+02  0.00000000000E+00 0.  1.
</event>
<event>
 5    1  0.1261138E-009  0.9118800E+02  0.7561462E-02  0.1125453E+00
         25   -1    0    0    0    0  0.00000000000E+00  0.00000000000E+00  0.99999998245E-14  0.12509000000E+03  0.12509000000E+03 0.  0.
        -13    1    3    3    0    0  0.18392979369E+01  0.38353365048E+02  0.18326175610E+00  0.38398025682E+02  0.10566000000E+00 0.  1.
         23    2    1    0    0    0 -0.27962948294E+02 -0.10058248971E+02  0.22759319250E+01  0.95286062076E+02  0.90505021464E+02 0.  0.
         13    1    3    3    0    0 -0.29802246231E+02 -0.48411614018E+02  0.20926701689E+01  0.56888036394E+02  0.10566000000E+00 0. -1.
         22    1    1    0    0    0  0.27962948294E+02  0.10058248971E+02 -0.22759319250E+01  0.29803937924E+02  0.00000000000E+00 0. -1.
</event>
<event>
 5    1  0.1261138E-009  0.9118800E+02  0.7561462E-02  0.1125453E+00
         25   -1    0    0    0    0  0.00000000000E+00  0.00000000000E+00  0.99999998245E-14  0.12509000000E+03  0.12509000000E+03 0.  0.
        -13    1    3    3    0    0 -0.57310871681E+01  0.42561092419E+02  0.36394907989E+02  0.56292916424E+02  0.10566000000E+00 0. -1.
         23    2    1    0    0    0 -0.12249783520E+02  0.54014921806E+01  0.26662306093E+02  0.95255257161E+02  0.90462434948E+02 0.  0.
         13    1    3    3    0    0 -0.65186963516E+01 -0.37159600238E+02 -0.97326018959E+01  0.38962340737E+02  0.10566000000E+00 0.  1.
         22    1    1    0    0    0  0.12249783520E+02 -0.54014921806E+01 -0.26662306093E+02  0.29834742839E+02  0.00000000000E+00 0. -1.
</event>
<event>
 5    1  0.1261138E-009  0.9118800E+02  0.7561462E-02  0.1125453E+00
         25   -1    0    0    0    0  0.00000000000E+00  0.00000000000E+00  0.99999998245E-14  0.12509000000E+03  0.12509000000E+03 0.  0.
        -13    1    3    3    0    0 -0.30971398664E+02 -0.88230018142E+01  0.14034560146E+02  0.35129089637E+02  0.10566000000E+00 0. -1.
         23    2    1    0    0    0  0.26084692528E+02 -0.15633083188E+02 -0.14654992978E+01  0.94644110911E+02  0.89613367126E+02 0.  0.
         13    1    3    3    0    0  0.57056091192E+02 -0.68100813743E+01 -0.15500059444E+02  0.59515021274E+02  0.10566000000E+00 0.  1.
         22    1    1    0    0    0 -0.26084692528E+02  0.15633083188E+02  0.14654992978E+01  0.30445889089E+02  0.00000000000E+00 0.  1.
</event>
<event>
 5    1  0.1261138E-009  0.9118800E+02  0.7561462E-02  0.1125453E+00
         25   -1    0    0    0    0  0.00000000000E+00  0.00000000000E+00  0.99999998245E-14  0.12509000000E+03  0.12509000000E+03 0.  0.
        -13    1    3    3    0    0  0.30704518736E+02 -0.74650253392E+01 -0.10331897522E+02  0.33245350722E+02  0.10566000000E+00 0.  1.
         23    2    1    0    0    0 -0.28414113599E+02  0.65213347068E+01  0.40009199829E+01  0.95663871837E+02  0.91025707117E+02 0.  0.
         13    1    3    3    0    0 -0.59118632335E+02  0.13986360046E+02  0.14332817505E+02  0.62418521115E+02  0.10566000000E+00 0. -1.
         22    1    1    0    0    0  0.28414113599E+02 -0.65213347068E+01 -0.40009199829E+01  0.29426128163E+02  0.00000000000E+00 0. -1.
</event>
<event>
 5    1  0.1261138E-009  0.9118800E+02  0.7561462E-02  0.1125453E+00
         25   -1    0    0    0    0  0.00000000000E+00  0.00000000000E+00  0.99999998245E-14  0.12509000000E+03  0.12509000000E+03 0.  0.
        -13    1    3    3    0    0 -0.33072204974E+01 -0.18828566672E+02 -0.54742142087E+02  0.57984186764E+02  0.10566000000E+00 0. -1.
         23    2    1    0    0    0  0.42688708697E+01 -0.23048825020E+02 -0.18560501636E+02  0.95190772346E+02  0.90373222392E+02 0.  0.
         13    1    3    3    0    0  0.75760913672E+01 -0.42202583479E+01  0.36181640451E+02  0.37206585582E+02  0.10566000000E+00 0.  1.
         22    1    1    0    0    0 -0.42688708697E+01  0.23048825020E+02  0.18560501636E+02  0.29899227654E+02  0.00000000000E+00 0. -1.
</event>
<event>
 5    1  0.1261138E-009  0.9118800E+02  0.7561462E-02  0.1125453E+00
         25   -1    0    0    0    0  0.00000000000E+00  0.00000000000E+00  0.99999998245E-14  0.12509000000E+03  0.12509000000E+03 0.  0.
        -13    1    3    3    0    0  0.28327631450E+02  0.19847669558E+02  0.43274340510E+01  0.34858607832E+02  0.10566000000E+00 0. -1.
         23    2    1    0    0    0 -0.52420457004E+01 -0.29385914362E+02 -0.37989166623E+01  0.94999423837E+02  0.90107978312E+02 0.  0.
         13    1    3    3    0    0 -0.33569677151E+02 -0.49233583921E+02 -0.81263507133E+01  0.60140816004E+02  0.10566000000E+00 0.  1.
         22    1    1    0    0    0  0.52420457004E+01  0.29385914362E+02  0.37989166623E+01  0.30090576163E+02  0.00000000000E+00 0.  1.
</event>
<event>
 5    1  0.1261138E-009  0.9118800E+02  0.7561462E-02  0.1125453E+00
         25   -1    0    0    0    0  0.00000000000E+00  0.00000000000E+00  0.99999998245E-14  0.12509000000E+03  0.12509000000E+03 0.  0.
        -13    1    3    3    0    0  0.21299199760E+02  0.50225704304E+02 -0.24586353042E+02  0.59839595613E+02  0.10566000000E+00 0. -1.
         23    2    1    0    0    0 -0.20105944778E+01  0.28212910807E+02 -0.13355311482E+02  0.93811010708E+02  0.88442809537E+02 0.  0.
         13    1    3    3    0    0 -0.23309794238E+02 -0.22012793497E+02  0.11231041560E+02  0.33971415094E+02  0.10566000000E+00 0.  1.
         22    1    1    0    0    0  0.20105944778E+01 -0.28212910807E+02  0.13355311482E+02  0.31278989292E+02  0.00000000000E+00 0. -1.
</event>
<event>
 5    1  0.1261138E-009  0.9118800E+02  0.7561462E-02  0.1125453E+00
         25   -1    0    0    0    0  0.00000000000E+00  0.00000000000E+00  0.99999998245E-14  0.12509000000E+03  0.12509000000E+03 0.  0.
        -13    1    3    3    0    0 -0.12812579761E+02 -0.39392948677E+01  0.39431669388E+02  0.41647904617E+02  0.10566000000E+00 0. -1.
         23    2    1    0    0    0 -0.18412439919E+02  0.24054807155E+02 -0.49266701347E+01  0.94399223378E+02  0.89270877697E+02 0.  0.
         13    1    3    3    0    0 -0.55998601570E+01  0.27994102023E+02 -0.44358339523E+02  0.52751318762E+02  0.10566000000E+00 0.  1.
         22    1    1    0    0    0  0.18412439919E+02 -0.24054807155E+02  0.49266701347E+01  0.30690776622E+02  0.00000000000E+00 0. -1.
</event>
<event>
 5    1  0.1261138E-009  0.9118800E+02  0.7561462E-02  0.1125453E+00
         25   -1    0    0    0    0  0.00000000000E+00  0.00000000000E+00  0.99999998245E-14  0.12509000000E+03  0.12509000000E+03 0.  0.
        -13    1    3    3    0    0  0.24657609512E+02  0.18248989767E+02 -0.62410222925E+01  0.31304709832E+02  0.10566000000E+00 0.  1.
         23    2    1    0    0    0  0.10106777914E+02 -0.35264507964E+02 -0.10522912122E+02  0.86926350262E+02  0.78100743970E+02 0.  0.
         13    1    3    3    0    0 -0.14550831598E+02 -0.53513497731E+02 -0.42818898292E+01  0.55621640430E+02  0.10566000000E+00 0. -1.
         22    1    1    0    0    0 -0.10106777914E+02  0.35264507964E+02  0.10522912122E+02  0.38163649738E+02  0.00000000000E+00 0. -1.
</event>
<event>
 5    1  0.1261138E-009  0.9118800E+02  0.7561462E-02  0.1125453E+00
         25   -1    0    0    0    0  0.00000000000E+00  0.00000000000E+00  0.99999998245E-14  0.12509000000E+03  0.12509000000E+03 0.  0.
        -13    1    3    3    0    0 -0.71414769694E+01 -0.27515513206E+02  0.17893389837E+02  0.33590009291E+02  0.10566000000E+00 0.  1.
         23    2    1    0    0    0  0.80116753952E+01  0.27826224849E+02 -0.56081084103E+01  0.95595312140E+02  0.90931441709E+02 0.  0.
         13    1    3    3    0    0  0.15153152365E+02  0.55341738055E+02 -0.23501498247E+02  0.62005302849E+02  0.10566000000E+00 0. -1.
         22    1    1    0    0    0 -0.80116753952E+01 -0.27826224849E+02  0.56081084103E+01  0.29494687860E+02  0.00000000000E+00 0. -1.
</event>
<event>
 5    1  0.1261138E-009  0.9118800E+02  0.7561462E-02  0.1125453E+00
         25   -1    0    0    0    0  0.00000000000E+00  0.00000000000E+00  0.99999998245E-14  0.12509000000E+03  0.12509000000E+03 0.  0.
        -13    1    3    3    0    0 -0.82516316436E+01  0.17266329490E+02  0.31803522353E+02  0.37117256862E+02  0.10566000000E+00 0.  1.
         23    2    1    0    0    0  0.97602965087E+01  0.15831659985E+02 -0.23397887584E+02  0.95200771351E+02  0.90387061445E+02 0.  0.
         13    1    3    3    0    0  0.18011928152E+02 -0.14346695057E+01 -0.55201409937E+02  0.58083514490E+02  0.10566000000E+00 0. -1.
         22    1    1    0    0    0 -0.97602965087E+01 -0.15831659985E+02  0.23397887584E+02  0.29889228649E+02  0.00000000000E+00 0. -1.
</event>
<event>
 4    1  0.1261138E-009  0.9118800E+02  0.7561462E-02  0.1125453E+00
         25   -1    0    0    0    0  0.00000000000E+00  0.00000000000E+00  0.99999998245E-14  0.12509000000E+03  0.12509000000E+03 0.  0.
        -13    1    1    0    0    0 -0.10373817765E+01  0.10682277863E+01 -0.19634468509E+02  0.19691134787E+02  0.10566000000E+00 0.  1.
         13    1    1    0    0    0 -0.46090936998E+02 -0.23047424719E+02  0.10811061569E+02  0.52654045199E+02  0.10566000000E+00 0. -1.
         22    1    1    0    0    0  0.47128318774E+02  0.21979196932E+02  0.88234069404E+01  0.52744820014E+02  0.00000000000E+00 0. -1.
</event>
<event>
 5    1  0.1261138E-009  0.9118800E+02  0.7561462E-02  0.1125453E+00
         25   -1    0    0    0    0  0.00000000000E+00  0.00000000000E+00  0.99999998245E-14  0.12509000000E+03  0.12509000000E+03 0.  0.
        -13    1    3    3    0    0 -0.27016399132E+00 -0.61495829501E+02  0.10496765394E+02  0.62385922149E+02  0.10566000000E+00 0.  1.
         23    2    1    0    0    0  0.29206373288E+01 -0.28335163868E+02  0.40442334998E+01  0.96319051833E+02  0.91921663865E+02 0.  0.
         13    1    3    3    0    0  0.31908013202E+01  0.33160665633E+02 -0.64525318947E+01  0.33933129685E+02  0.10566000000E+00 0. -1.
         22    1    1    0    0    0 -0.29206373288E+01  0.28335163868E+02 -0.40442334998E+01  0.28770948167E+02  0.00000000000E+00 0.  1.
</event>
<event>
 5    1  0.1261138E-009  0.9118800E+02  0.7561462E-02  0.1125453E+00
         25   -1    0    0    0    0  0.00000000000E+00  0.00000000000E+00  0.99999998245E-14  0.12509000000E+03  0.12509000000E+03 0.  0.
        -13    1    3    3    0    0 -0.12098764670E+02  0.22300713296E+02 -0.42390171224E+02  0.49402830895E+02  0.10566000000E+00 0. -1.
         23    2    1    0    0    0 -0.24764213287E+02  0.16483100995E+02  0.13510862643E+01  0.95311076040E+02  0.90539587494E+02 0.  0.
         13    1    3    3    0    0 -0.12665448617E+02 -0.58176123006E+01  0.43741257488E+02  0.45908245144E+02  0.10566000000E+00 0.  1.
         22    1    1    0    0    0  0.24764213287E+02 -0.16483100995E+02 -0.13510862643E+01  0.29778923960E+02  0.00000000000E+00 0.  1.
</event>
<event>
 5    1  0.1261138E-009  0.9118800E+02  0.7561462E-02  0.1125453E+00
         25   -1    0    0    0    0  0.00000000000E+00  0.00000000000E+00  0.99999998245E-14  0.12509000000E+03  0.12509000000E+03 0.  0.
        -13    1    3    3    0    0  0.44141990017E+02  0.30295499057E+02  0.29873157006E+02  0.61308639027E+02  0.10566000000E+00 0. -1.
         23    2    1    0    0    0  0.18431712054E+02  0.21604907700E+02  0.98646023917E+01  0.95026559972E+02  0.90145641458E+02 0.  0.
         13    1    3    3    0    0 -0.25710277963E+02 -0.86905913578E+01 -0.20008554614E+02  0.33717920945E+02  0.10566000000E+00 0.  1.
         22    1    1    0    0    0 -0.18431712054E+02 -0.21604907700E+02 -0.98646023917E+01  0.30063440028E+02  0.00000000000E+00 0. -1.
</event>
<event>
 5    1  0.1261138E-009  0.9118800E+02  0.7561462E-02  0.1125453E+00
         25   -1    0    0    0    0  0.00000000000E+00  0.00000000000E+00  0.99999998245E-14  0.12509000000E+03  0.12509000000E+03 0.  0.
        -13    1    3    3    0    0  0.20249574121E+02  0.38744654237E+02  0.42352353269E+02  0.60868107211E+02  0.10566000000E+00 0. -1.
         23    2    1    0    0    0  0.12936042036E+02  0.23818389587E+02  0.12055166155E+02  0.95425477467E+02  0.90697507423E+02 0.  0.
         13    1    3    3    0    0 -0.73135320851E+01 -0.14926264649E+02 -0.30297187114E+02  0.34557370256E+02  0.10566000000E+00 0.  1.
         22    1    1    0    0    0 -0.12936042036E+02 -0.23818389587E+02 -0.12055166155E+02  0.29664522533E+02  0.00000000000E+00 0. -1.
</event>
<event>
 5    1  0.1261138E-009  0.9118800E+02  0.7561462E-02  0.1125453E+00
         25   -1    0    0    0    0  0.00000000000E+00  0.00000000000E+00  0.99999998245E-14  0.12509000000E+03  0.12509000000E+03 0.  0.
        -13    1    3    3    0    0  0.29983928178E+02 -0.49647371023E+02 -0.11043146049E+01  0.58009723954E+02  0.10566000000E+00 0. -1.
         23    2    1    0    0    0  0.26968999073E+02 -0.12683212219E+02  0.19595008266E+01  0.95223121577E+02  0.90417987460E+02 0.  0.
         13    1    3    3    0    0 -0.30149291042E+01  0.36964158804E+02  0.30638154315E+01  0.37213397623E+02  0.10566000000E+00 0.  1.
         22    1    1    0    0    0 -0.26968999073E+02  0.12683212219E+02 -0.19595008266E+01  0.29866878423E+02  0.00000000000E+00 0. -1.
</event>
<event>
 5    1  0.1261138E-009  0.9118800E+02  0.7561462E-02  0.1125453E+00
         25   -1    0    0    0    0  0.00000000000E+00  0.00000000000E+00  0.99999998245E-14  0.12509000000E+03  0.12509000000E+03 0.  0.
        -13    1    3    3    0    0  0.45316098393E+01 -0.32420233778E+02 -0.59180035377E+01  0.33266213729E+02  0.10566000000E+00 0.  1.
         23    2    1    0    0    0 -0.54762123874E-01  0.28904253657E+02  0.50940569826E+01  0.95740241996E+02  0.91130596632E+02 0.  0.
         13    1    3    3    0    0 -0.45863719631E+01  0.61324487435E+02  0.11012060520E+02  0.62474028267E+02  0.10566000000E+00 0. -1.
         22    1    1    0    0    0  0.54762123874E-01 -0.28904253657E+02 -0.50940569826E+01  0.29349758004E+02  0.00000000000E+00 0. -1.
</event>
<event>
 5    1  0.1261138E-009  0.9118800E+02  0.7561462E-02  0.1125453E+00
         25   -1    0    0    0    0  0.00000000000E+00  0.00000000000E+00  0.99999998245E-14  0.12509000000E+03  0.12509000000E+03 0.  0.
        -13    1    3    3    0    0  0.38673795401E+02  0.30310221368E+02  0.10951975214E+02  0.50342118502E+02  0.10566000000E+00 0.  1.
         23    2    1    0    0    0  0.25109285672E+02 -0.30179045845E+01 -0.15879875148E+02  0.95227742722E+02  0.90424380419E+02 0.  0.
         13    1    3    3    0    0 -0.13564509729E+02 -0.33328125952E+02 -0.26831850362E+02  0.44885624220E+02  0.10566000000E+00 0. -1.
         22    1    1    0    0    0 -0.25109285672E+02  0.30179045845E+01  0.15879875148E+02  0.29862257278E+02  0.00000000000E+00 0.  1.
</event>
<event>
 5    1  0.1261138E-009  0.9118800E+02  0.7561462E-02  0.1125453E+00
         25   -1    0    0    0    0  0.00000000000E+00  0.00000000000E+00  0.99999998245E-14  0.12509000000E+03  0.12509000000E+03 0.  0.
        -13    1    3    3    0    0  0.22464940768E+02  0.24231095627E+02  0.87059688326E+00  0.33054328945E+02  0.10566000000E+00 0. -1.
         23    2    1    0    0    0 -0.17165865532E+02 -0.21007201964E+02  0.13923327454E+02  0.94596910271E+02  0.89547456199E+02 0.  0.
         13    1    3    3    0    0 -0.39630806300E+02 -0.45238297591E+02  0.13052730571E+02  0.61542581327E+02  0.10566000000E+00 0.  1.
         22    1    1    0    0    0  0.17165865532E+02  0.21007201964E+02 -0.13923327454E+02  0.30493089729E+02  0.00000000000E+00 0.  1.
</event>
<event>
 5    1  0.1261138E-009  0.9118800E+02  0.7561462E-02  0.1125453E+00
         25   -1    0    0    0    0  0.00000000000E+00  0.00000000000E+00  0.99999998245E-14  0.12509000000E+03  0.12509000000E+03 0.  0.
        -13    1    3    3    0    0  0.11126469957E+02 -0.48748080460E+02 -0.30416054641E+02  0.58526243910E+02  0.10566000000E+00 0. -1.
         23    2    1    0    0    0 -0.90489975925E+01 -0.20367484031E+02 -0.20688225106E+02  0.94680767500E+02  0.89664520928E+02 0.  0.
         13    1    3    3    0    0 -0.20175467550E+02  0.28380596429E+02  0.97278295350E+01  0.36154523590E+02  0.10566000000E+00 0.  1.
         22    1    1    0    0    0  0.90489975925E+01  0.20367484031E+02  0.20688225106E+02  0.30409232500E+02  0.00000000000E+00 0. -1.
</event>
<event>
 5    1  0.1261138E-009  0.9118800E+02  0.7561462E-02  0.1125453E+00
         25   -1    0    0    0    0  0.00000000000E+00  0.00000000000E+00  0.99999998245E-14  0.12509000000E+03  0.12509000000E+03 0.  0.
        -13    1    3    3    0    0 -0.30679127144E+02 -0.30929629633E+01 -0.15400327635E+02  0.34466745096E+02  0.10566000000E+00 0.  1.
         23    2    1    0    0    0  0.16835824592E+02  0.13682262877E+02  0.19627202706E+02  0.95834634796E+02  0.91260072503E+02 0.  0.
         13    1    3    3    0    0  0.47514951736E+02  0.16775225841E+02  0.35027530341E+02  0.61367889700E+02  0.10566000000E+00 0. -1.
         22    1    1    0    0    0 -0.16835824592E+02 -0.13682262877E+02 -0.19627202706E+02  0.29255365204E+02  0.00000000000E+00 0. -1.
</event>
<event>
 5    1  0.1261138E-009  0.9118800E+02  0.7561462E-02  0.1125453E+00
         25   -1    0    0    0    0  0.00000000000E+00  0.00000000000E+00  0.99999998245E-14  0.12509000000E+03  0.12509000000E+03 0.  0.
        -13    1    3    3    0    0  0.21094135026E+02 -0.66164051542E+01  0.27728015547E+02  0.35462562793E+02  0.10566000000E+00 0. -1.
         23    2    1    0    0    0 -0.17214284347E+02  0.16065146636E+02 -0.15002369081E+02  0.97170623215E+02  0.93073295933E+02 0.  0.
         13    1    3    3    0    0 -0.38308419373E+02  0.22681551790E+02 -0.42730384628E+02  0.61708060422E+02  0.10566000000E+00 0.  1.
         22    1    1    0    0    0  0.17214284347E+02 -0.16065146636E+02  0.15002369081E+02  0.27919376785E+02  0.00000000000E+00 0.  1.
</event>
<event>
 5    1  0.1261138E-009  0.9118800E+02  0.7561462E-02  0.1125453E+00
         25   -1    0    0    0    0  0.00000000000E+00  0.00000000000E+00  0.99999998245E-14  0.12509000000E+03  0.12509000000E+03 0.  0.
        -13    1    3    3    0    0 -0.25065314983E+02  0.18053138491E+02  0.19120973004E+02  0.36329170060E+02  0.10566000000E+00 0.  1.
         23    2    1    0    0    0  0.18071499927E+01 -0.26038318534E+02 -0.11725213389E+02  0.96476358984E+02  0.92135483885E+02 0.  0.
         13    1    3    3    0    0  0.26872464976E+02 -0.44091457025E+02 -0.30846186393E+02  0.60147188924E+02  0.10566000000E+00 0. -1.
         22    1    1    0    0    0 -0.18071499927E+01  0.26038318534E+02  0.11725213389E+02  0.28613641016E+02  0.00000000000E+00 0. -1.
</event>
<event>
 5    1  0.1261138E-009  0.9118800E+02  0.7561462E-02  0.1125453E+00
         25   -1    0    0    0    0  0.00000000000E+00  0.00000000000E+00  0.99999998245E-14  0.12509000000E+03  0.12509000000E+03 0.  0.
        -13    1    3    3    0    0 -0.35474960865E+02 -0.32741857870E+01 -0.36583762209E+02  0.51064429522E+02  0.10566000000E+00 0.  1.
         23    2    1    0    0    0  0.37768693964E+01  0.14731070757E+02 -0.25087676788E+02  0.95752980473E+02  0.91148080368E+02 0.  0.
         13    1    3    3    0    0  0.39251830262E+02  0.18005256544E+02  0.11496085421E+02  0.44688550952E+02  0.10566000000E+00 0. -1.
         22    1    1    0    0    0 -0.37768693964E+01 -0.14731070757E+02  0.25087676788E+02  0.29337019527E+02  0.00000000000E+00 0. -1.
</event>
<event>
 5    1  0.1261138E-009  0.9118800E+02  0.7561462E-02  0.1125453E+00
         25   -1    0    0    0    0  0.00000000000E+00  0.00000000000E+00  0.99999998245E-14  0.12509000000E+03  0.12509000000E+03 0.  0.
        -13    1    3    3    0    0  0.46999007112E+02  0.29939715912E+02  0.34055272117E+01  0.55829222080E+02  0.10566000000E+00 0.  1.
         23    2    1    0    0    0  0.31756832844E+02 -0.28516311020E+01 -0.46268097834E+01  0.92871440116E+02  0.87103781710E+02 0.  0.
         13    1    3    3    0    0 -0.15242174268E+02 -0.32791347014E+02 -0.80323369951E+01  0.37042218036E+02  0.10566000000E+00 0. -1.
         22    1    1    0    0    0 -0.31756832844E+02  0.28516311020E+01  0.46268097834E+01  0.32218559884E+02  0.00000000000E+00 0.  1.
</event>
<event>
 5    1  0.1261138E-009  0.9118800E+02  0.7561462E-02  0.1125453E+00
         25   -1    0    0    0    0  0.00000000000E+00  0.00000000000E+00  0.99999998245E-14  0.12509000000E+03  0.12509000000E+03 0.  0.
        -13    1    3    3    0    0  0.41290295437E+02 -0.37040763703E+02 -0.25085781819E+02  0.60878684993E+02  0.10566000000E+00 0.  1.
         23    2    1    0    0    0  0.85672535227E+01 -0.20320504466E+02 -0.62693373453E+01  0.10216347987E+03  0.99557778666E+02 0.  0.
         13    1    3    3    0    0 -0.32723041914E+02  0.16720259237E+02  0.18816444473E+02  0.41284794873E+02  0.10566000000E+00 0. -1.
         22    1    1    0    0    0 -0.85672535227E+01  0.20320504466E+02  0.62693373453E+01  0.22926520134E+02  0.00000000000E+00 0.  1.
</event>
<event>
 5    1  0.1261138E-009  0.9118800E+02  0.7561462E-02  0.1125453E+00
         25   -1    0    0    0    0  0.00000000000E+00  0.00000000000E+00  0.99999998245E-14  0.12509000000E+03  0.12509000000E+03 0.  0.
        -13    1    3    3    0    0 -0.17507751198E+02  0.27378481578E+02 -0.28291539865E+02  0.43087411125E+02  0.10566000000E+00 0. -1.
         23    2    1    0    0    0 -0.11260681629E+02 -0.22968660487E+02 -0.14602118440E+02  0.95635218075E+02  0.90986321818E+02 0.  0.
         13    1    3    3    0    0  0.62470695693E+01 -0.50347142064E+02  0.13689421425E+02  0.52547806950E+02  0.10566000000E+00 0.  1.
         22    1    1    0    0    0  0.11260681629E+02  0.22968660487E+02  0.14602118440E+02  0.29454781925E+02  0.00000000000E+00 0. -1.
</event>
<event>
 5    1  0.1261138E-009  0.9118800E+02  0.7561462E-02  0.1125453E+00
         25   -1    0    0    0    0  0.00000000000E+00  0.00000000000E+00  0.99999998245E-14  0.12509000000E+03  0.12509000000E+03 0.  0.
        -13    1    3    3    0    0 -0.52970547392E+02  0.91636074238E+01 -0.63551393011E+01  0.54131779498E+02  0.10566000000E+00 0.  1.
         23    2    1    0    0    0 -0.24334715312E+02  0.43739529555E+00  0.19668225264E+02  0.93797688341E+02  0.88423964902E+02 0.  0.
         13    1    3    3    0    0  0.28635832080E+02 -0.87262121283E+01  0.26023364565E+02  0.39665908843E+02  0.10566000000E+00 0. -1.
         22    1    1    0    0    0  0.24334715312E+02 -0.43739529555E+00 -0.19668225264E+02  0.31292311659E+02  0.00000000000E+00 0.  1.
</event>
<event>
 5    1  0.1261138E-009  0.9118800E+02  0.7561462E-02  0.1125453E+00
         25   -1    0    0    0    0  0.00000000000E+00  0.00000000000E+00  0.99999998245E-14  0.12509000000E+03  0.12509000000E+03 0.  0.
        -13    1    3    3    0    0  0.17415418647E+02 -0.19155451508E+02  0.22360554532E+02  0.34208678608E+02  0.10566000000E+00 0.  1.
         23    2    1    0    0    0 -0.46930051287E+01  0.10542132251E+02 -0.26893071210E+02  0.95825719236E+02  0.91247851144E+02 0.  0.
         13    1    3    3    0    0 -0.22108423775E+02  0.29697583759E+02 -0.49253625742E+02  0.61617040628E+02  0.10566000000E+00 0. -1.
         22    1    1    0    0    0  0.46930051287E+01 -0.10542132251E+02  0.26893071210E+02  0.29264280764E+02  0.00000000000E+00 0. -1.
</event>
<event>
 5    1  0.1261138E-009  0.9118800E+02  0.7561462E-02  0.1125453E+00
         25   -1    0    0    0    0  0.00000000000E+00  0.00000000000E+00  0.99999998245E-14  0.12509000000E+03  0.12509000000E+03 0.  0.
        -13    1    3    3    0    0  0.30047995110E+02  0.17509966883E+02 -0.10091965581E+02  0.36212427200E+02  0.10566000000E+00 0.  1.
         23    2    1    0    0    0 -0.23960074407E+02  0.14650813111E+02  0.11889518855E+02  0.94592587831E+02  0.89541417922E+02 0.  0.
         13    1    3    3    0    0 -0.54008069517E+02 -0.28591537720E+01  0.21981484436E+02  0.58380160631E+02  0.10566000000E+00 0. -1.
         22    1    1    0    0    0  0.23960074407E+02 -0.14650813111E+02 -0.11889518855E+02  0.30497412169E+02  0.00000000000E+00 0. -1.
</event>
<event>
 5    1  0.1261138E-009  0.9118800E+02  0.7561462E-02  0.1125453E+00
         25   -1    0    0    0    0  0.00000000000E+00  0.00000000000E+00  0.99999998245E-14  0.12509000000E+03  0.12509000000E+03 0.  0.
        -13    1    3    3    0    0  0.29903703925E+02  0.34288763546E+02  0.20718610534E+02  0.49992227400E+02  0.10566000000E+00 0. -1.
         23    2    1    0    0    0 -0.12029563900E+02  0.25636995760E+02  0.20648695498E+01  0.96695816696E+02  0.92432955816E+02 0.  0.
         13    1    3    3    0    0 -0.41933267826E+02 -0.86517677854E+01 -0.18653740984E+02  0.46703589296E+02  0.10566000000E+00 0.  1.
         22    1    1    0    0    0  0.12029563900E+02 -0.25636995760E+02 -0.20648695498E+01  0.28394183304E+02  0.00000000000E+00 0. -1.
</event>
<event>
 5    1  0.1261138E-009  0.9118800E+02  0.7561462E-02  0.1125453E+00
         25   -1    0    0    0    0  0.00000000000E+00  0.00000000000E+00  0.99999998245E-14  0.12509000000E+03  0.12509000000E+03 0.  0.
        -13    1    3    3    0    0  0.12469970959E+02  0.13270520004E+02 -0.30205444007E+02  0.35270198307E+02  0.10566000000E+00 0.  1.
         23    2    1    0    0    0  0.28757888025E+01  0.90635873023E+01  0.28573671273E+02  0.94975660126E+02  0.90074982933E+02 0.  0.
         13    1    3    3    0    0 -0.95941821568E+01 -0.42069327014E+01  0.58779115280E+02  0.59705461820E+02  0.10566000000E+00 0. -1.
         22    1    1    0    0    0 -0.28757888025E+01 -0.90635873023E+01 -0.28573671273E+02  0.30114339874E+02  0.00000000000E+00 0. -1.
</event>
<event>
 5    1  0.1261138E-009  0.9118800E+02  0.7561462E-02  0.1125453E+00
         25   -1    0    0    0    0  0.00000000000E+00  0.00000000000E+00  0.99999998245E-14  0.12509000000E+03  0.12509000000E+03 0.  0.
        -13    1    3    3    0    0  0.40856678776E+02 -0.93414941956E+01  0.31510924221E+01  0.42029421384E+02  0.10566000000E+00 0. -1.
         23    2    1    0    0    0 -0.68545795921E+01 -0.18024819975E+01  0.27899934019E+02  0.96303883190E+02  0.91901019562E+02 0.  0.
         13    1    3    3    0    0 -0.47711258368E+02  0.75390121980E+01  0.24748841597E+02  0.54274461806E+02  0.10566000000E+00 0.  1.
         22    1    1    0    0    0  0.68545795921E+01  0.18024819975E+01 -0.27899934019E+02  0.28786116810E+02  0.00000000000E+00 0. -1.
</event>
<event>
 5    1  0.1261138E-009  0.9118800E+02  0.7561462E-02  0.1125453E+00
         25   -1    0    0    0    0  0.00000000000E+00  0.00000000000E+00  0.99999998245E-14  0.12509000000E+03  0.12509000000E+03 0.  0.
        -13    1    3    3    0    0  0.14101223427E+02 -0.26527323644E+02  0.25694915015E+02  0.39532053115E+02  0.10566000000E+00 0.  1.
         23    2    1    0    0    0  0.23265172364E+02  0.14517112464E+02 -0.11191175826E+02  0.95471471749E+02  0.90760920567E+02 0.  0.
         13    1    3    3    0    0  0.91639489371E+01  0.41044436108E+02 -0.36886090841E+02  0.55939418634E+02  0.10566000000E+00 0. -1.
         22    1    1    0    0    0 -0.23265172364E+02 -0.14517112464E+02  0.11191175826E+02  0.29618528251E+02  0.00000000000E+00 0. -1.
</event>
<event>
 5    1  0.1261138E-009  0.9118800E+02  0.7561462E-02  0.1125453E+00
         25   -1    0    0    0    0  0.00000000000E+00  0.00000000000E+00  0.99999998245E-14  0.12509000000E+03  0.12509000000E+03 0.  0.
        -13    1    3    3    0    0 -0.39131017203E+01  0.11271232856E+01 -0.52794691818E+02  0.52951613952E+02  0.10566000000E+00 0. -1.
         23    2    1    0    0    0 -0.11399722173E+02  0.21660936746E+02 -0.15688453992E+02  0.96016344657E+02  0.91508802889E+02 0.  0.
         13    1    3    3    0    0 -0.74866204530E+01  0.20533813461E+02  0.37106237826E+02  0.43064730705E+02  0.10566000000E+00 0.  1.
         22    1    1    0    0    0  0.11399722173E+02 -0.21660936746E+02  0.15688453992E+02  0.29073655343E+02  0.00000000000E+00 0. -1.
</event>
<event>
 5    1  0.1261138E-009  0.9118800E+02  0.7561462E-02  0.1125453E+00
         25   -1    0    0    0    0  0.00000000000E+00  0.00000000000E+00  0.99999998245E-14  0.12509000000E+03  0.12509000000E+03 0.  0.
        -13    1    3    3    0    0  0.13590324514E+02  0.20187910129E+02 -0.52056680581E+02  0.57464404573E+02  0.10566000000E+00 0. -1.
         23    2    1    0    0    0  0.17949021492E+02  0.18397082854E+02 -0.13980426843E+02  0.95831285661E+02  0.91255481735E+02 0.  0.
         13    1    3    3    0    0  0.43586969776E+01 -0.17908272748E+01  0.38076253738E+02  0.38366881088E+02  0.10566000000E+00 0.  1.
         22    1    1    0    0    0 -0.17949021492E+02 -0.18397082854E+02  0.13980426843E+02  0.29258714339E+02  0.00000000000E+00 0. -1.
</event>
<event>
 5    1  0.1261138E-009  0.9118800E+02  0.7561462E-02  0.1125453E+00
         25   -1    0    0    0    0  0.00000000000E+00  0.00000000000E+00  0.99999998245E-14  0.12509000000E+03  0.12509000000E+03 0.  0.
        -13    1    3    3    0    0  0.26098019762E+02  0.17344206801E+02  0.47027718757E+02  0.56511464683E+02  0.10566000000E+00 0.  1.
         23    2    1    0    0    0 -0.38148951672E+01  0.19514593098E+02  0.20071046937E+02  0.96837217941E+02  0.92624117186E+02 0.  0.
         13    1    3    3    0    0 -0.29912914929E+02  0.21703862967E+01 -0.26956671820E+02  0.40325753258E+02  0.10566000000E+00 0. -1.
         22    1    1    0    0    0  0.38148951672E+01 -0.19514593098E+02 -0.20071046937E+02  0.28252782059E+02  0.00000000000E+00 0.  1.
</event>
<event>
 5    1  0.1261138E-009  0.9118800E+02  0.7561462E-02  0.1125453E+00
         25   -1    0    0    0    0  0.00000000000E+00  0.00000000000E+00  0.99999998245E-14  0.12509000000E+03  0.12509000000E+03 0.  0.
        -13    1    3    3    0    0  0.41723203434E+02  0.31397018853E+02  0.12908999419E+01  0.52232902316E+02  0.10566000000E+00 0.  1.
         23    2    1    0    0    0  0.24664540119E+02 -0.36127989712E+01 -0.16651666880E+02  0.95112177104E+02  0.90264369315E+02 0.  0.
         13    1    3    3    0    0 -0.17058663315E+02 -0.35009817824E+02 -0.17942566822E+02  0.42879274788E+02  0.10566000000E+00 0. -1.
         22    1    1    0    0    0 -0.24664540119E+02  0.36127989712E+01  0.16651666880E+02  0.29977822896E+02  0.00000000000E+00 0.  1.
</event>
<event>
 5    1  0.1261138E-009  0.9118800E+02  0.7561462E-02  0.1125453E+00
         25   -1    0    0    0    0  0.00000000000E+00  0.00000000000E+00  0.99999998245E-14  0.12509000000E+03  0.12509000000E+03 0.  0.
        -13    1    3    3    0    0  0.21593724052E+02  0.51580921359E+02 -0.26553614193E+02  0.61903036738E+02  0.10566000000E+00 0. -1.
         23    2    1    0    0    0  0.10344439664E+02  0.24636324371E+02 -0.57407634576E+01  0.97760304145E+02  0.93862478078E+02 0.  0.
         13    1    3    3    0    0 -0.11249284388E+02 -0.26944596988E+02  0.20812850736E+02  0.35857267407E+02  0.10566000000E+00 0.  1.
         22    1    1    0    0    0 -0.10344439664E+02 -0.24636324371E+02  0.57407634576E+01  0.27329695855E+02  0.00000000000E+00 0. -1.
</event>
<event>
 5    1  0.1261138E-009  0.9118800E+02  0.7561462E-02  0.1125453E+00
         25   -1    0    0    0    0  0.00000000000E+00  0.00000000000E+00  0.99999998245E-14  0.12509000000E+03  0.12509000000E+03 0.  0.
        -13    1    3    3    0    0  0.98024261661E+01 -0.38176459351E+02 -0.28825741003E+02  0.48830974962E+02  0.10566000000E+00 0. -1.
         23    2    1    0    0    0 -0.23071642776E+02 -0.61388814960E+01 -0.15484410912E+02  0.96633831113E+02  0.92349032306E+02 0.  0.
         13    1    3    3    0    0 -0.32874068942E+02  0.32037577855E+02  0.13341330091E+02  0.47802856152E+02  0.10566000000E+00 0.  1.
         22    1    1    0    0    0  0.23071642776E+02  0.61388814960E+01  0.15484410912E+02  0.28456168887E+02  0.00000000000E+00 0. -1.
</event>
<event>
 5    1  0.1261138E-009  0.9118800E+02  0.7561462E-02  0.1125453E+00
         25   -1    0    0    0    0  0.00000000000E+00  0.00000000000E+00  0.99999998245E-14  0.12509000000E+03  0.12509000000E+03 0.  0.
        -13    1    3    3    0    0  0.19881168604E+02 -0.11396913298E+02  0.32565576759E+02  0.39820578241E+02  0.10566000000E+00 0. -1.
         23    2    1    0    0    0  0.30532095654E+02 -0.23724526901E+02 -0.97920717294E+01  0.85203326656E+02  0.75290505130E+02 0.  0.
         13    1    3    3    0    0  0.10650927051E+02 -0.12327613603E+02 -0.42357648488E+02  0.45382748415E+02  0.10566000000E+00 0.  1.
         22    1    1    0    0    0 -0.30532095654E+02  0.23724526901E+02  0.97920717294E+01  0.39886673344E+02  0.00000000000E+00 0. -1.
</event>
<event>
 5    1  0.1261138E-009  0.9118800E+02  0.7561462E-02  0.1125453E+00
         25   -1    0    0    0    0  0.00000000000E+00  0.00000000000E+00  0.99999998245E-14  0.12509000000E+03  0.12509000000E+03 0.  0.
        -13    1    3    3    0    0 -0.27167182496E+02 -0.20192825667E+02 -0.13062157098E+02  0.36282738668E+02  0.10566000000E+00 0.  1.
         23    2    1    0    0    0  0.28169880271E+02 -0.71921355564E+01  0.42571672641E+01  0.95706459685E+02  0.91084213692E+02 0.  0.
         13    1    3    3    0    0  0.55337062767E+02  0.13000690111E+02  0.17319324362E+02  0.59423721016E+02  0.10566000000E+00 0. -1.
         22    1    1    0    0    0 -0.28169880271E+02  0.71921355564E+01 -0.42571672641E+01  0.29383540315E+02  0.00000000000E+00 0. -1.
</event>
<event>
 5    1  0.1261138E-009  0.9118800E+02  0.7561462E-02  0.1125453E+00
         25   -1    0    0    0    0  0.00000000000E+00  0.00000000000E+00  0.99999998245E-14  0.12509000000E+03  0.12509000000E+03 0.  0.
        -13    1    3    3    0    0  0.37734565847E+02 -0.35430167240E+02 -0.25966604503E+02  0.57909152332E+02  0.10566000000E+00 0. -1.
         23    2    1    0    0    0  0.66918365290E+01 -0.28063018547E+02 -0.57718916539E+01  0.95668436150E+02  0.91031979305E+02 0.  0.
         13    1    3    3    0    0 -0.31042729318E+02  0.73671486934E+01  0.20194712849E+02  0.37759283818E+02  0.10566000000E+00 0.  1.
         22    1    1    0    0    0 -0.66918365290E+01  0.28063018547E+02  0.57718916539E+01  0.29421563850E+02  0.00000000000E+00 0. -1.
</event>
<event>
 5    1  0.1261138E-009  0.9118800E+02  0.7561462E-02  0.1125453E+00
         25   -1    0    0    0    0  0.00000000000E+00  0.00000000000E+00  0.99999998245E-14  0.12509000000E+03  0.12509000000E+03 0.  0.
        -13    1    3    3    0    0  0.22857988470E+02 -0.17756492010E+01  0.24684164780E+02  0.33689163271E+02  0.10566000000E+00 0.  1.
         23    2    1    0    0    0 -0.27532803708E+02  0.45573175905E+01 -0.10281273737E+02  0.95348967515E+02  0.90591923441E+02 0.  0.
         13    1    3    3    0    0 -0.50390792178E+02  0.63329667914E+01 -0.34965438516E+02  0.61659804244E+02  0.10566000000E+00 0. -1.
         22    1    1    0    0    0  0.27532803708E+02 -0.45573175905E+01  0.10281273737E+02  0.29741032485E+02  0.00000000000E+00 0. -1.
</event>
<event>
 5    1  0.1261138E-009  0.9118800E+02  0.7561462E-02  0.1125453E+00
         25   -1    0    0    0    0  0.00000000000E+00  0.00000000000E+00  0.99999998245E-14  0.12509000000E+03  0.12509000000E+03 0.  0.
        -13    1    3    3    0    0  0.11288823232E+02 -0.14163933208E+02 -0.31824775162E+02  0.36618055820E+02  0.10566000000E+00 0. -1.
         23    2    1    0    0    0 -0.23564220028E+02 -0.59519435026E+01  0.15724768062E+02  0.96142350223E+02  0.91680887206E+02 0.  0.
         13    1    3    3    0    0 -0.34853043260E+02  0.82119897059E+01  0.47549543224E+02  0.59524294403E+02  0.10566000000E+00 0.  1.
         22    1    1    0    0    0  0.23564220028E+02  0.59519435026E+01 -0.15724768062E+02  0.28947649777E+02  0.00000000000E+00 0.  1.
</event>
<event>
 5    1  0.1261138E-009  0.9118800E+02  0.7561462E-02  0.1125453E+00
         25   -1    0    0    0    0  0.00000000000E+00  0.00000000000E+00  0.99999998245E-14  0.12509000000E+03  0.12509000000E+03 0.  0.
        -13    1    3    3    0    0 -0.46567702404E+01  0.46192540475E+02  0.33151837469E+02  0.57048153311E+02  0.10566000000E+00 0.  1.
         23    2    1    0    0    0  0.17705728982E+01  0.28353549201E+02 -0.15996186117E+01  0.96636222388E+02  0.92352271315E+02 0.  0.
         13    1    3    3    0    0  0.64273431386E+01 -0.17838991273E+02 -0.34751456081E+02  0.39588069077E+02  0.10566000000E+00 0. -1.
         22    1    1    0    0    0 -0.17705728982E+01 -0.28353549201E+02  0.15996186117E+01  0.28453777612E+02  0.00000000000E+00 0.  1.
</event>
<event>
 5    1  0.1261138E-009  0.9118800E+02  0.7561462E-02  0.1125453E+00
         25   -1    0    0    0    0  0.00000000000E+00  0.00000000000E+00  0.99999998245E-14  0.12509000000E+03  0.12509000000E+03 0.  0.
        -13    1    3    3    0    0 -0.26393353078E+02  0.27288467990E+02  0.69106241666E+01  0.38588048180E+02  0.10566000000E+00 0. -1.
         23    2    1    0    0    0  0.27053768371E+02  0.70092374217E+01 -0.42183522762E+01  0.96826414094E+02  0.92609525310E+02 0.  0.
         13    1    3    3    0    0  0.53447121449E+02 -0.20279230568E+02 -0.11128976443E+02  0.58238365914E+02  0.10566000000E+00 0.  1.
         22    1    1    0    0    0 -0.27053768371E+02 -0.70092374217E+01  0.42183522762E+01  0.28263585906E+02  0.00000000000E+00 0.  1.
</event>
<event>
 5    1  0.1261138E-009  0.9118800E+02  0.7561462E-02  0.1125453E+00
         25   -1    0    0    0    0  0.00000000000E+00  0.00000000000E+00  0.99999998245E-14  0.12509000000E+03  0.12509000000E+03 0.  0.
        -13    1    3    3    0    0 -0.50448219517E+02 -0.10029459028E+02 -0.30048967936E+02  0.59569829099E+02  0.10566000000E+00 0.  1.
         23    2    1    0    0    0 -0.28995469756E+02  0.47694298149E+01 -0.58624224959E+01  0.95125809294E+02  0.90283259075E+02 0.  0.
         13    1    3    3    0    0  0.21452749761E+02  0.14798888843E+02  0.24186545440E+02  0.35555980195E+02  0.10566000000E+00 0. -1.
         22    1    1    0    0    0  0.28995469756E+02 -0.47694298149E+01  0.58624224959E+01  0.29964190706E+02  0.00000000000E+00 0.  1.
</event>
<event>
 5    1  0.1261138E-009  0.9118800E+02  0.7561462E-02  0.1125453E+00
         25   -1    0    0    0    0  0.00000000000E+00  0.00000000000E+00  0.99999998245E-14  0.12509000000E+03  0.12509000000E+03 0.  0.
        -13    1    3    3    0    0  0.94246445923E+01 -0.21298377621E+02 -0.23565110852E+02  0.33132618799E+02  0.10566000000E+00 0. -1.
         23    2    1    0    0    0 -0.37637950684E+01  0.23528300387E+02  0.17648966666E+02  0.95438135020E+02  0.90714963040E+02 0.  0.
         13    1    3    3    0    0 -0.13188439661E+02  0.44826678008E+02  0.41214077517E+02  0.62305516221E+02  0.10566000000E+00 0.  1.
         22    1    1    0    0    0  0.37637950684E+01 -0.23528300387E+02 -0.17648966666E+02  0.29651864980E+02  0.00000000000E+00 0.  1.
</event>
<event>
 5    1  0.1261138E-009  0.9118800E+02  0.7561462E-02  0.1125453E+00
         25   -1    0    0    0    0  0.00000000000E+00  0.00000000000E+00  0.99999998245E-14  0.12509000000E+03  0.12509000000E+03 0.  0.
        -13    1    3    3    0    0  0.42133694063E+02 -0.15026666521E+02  0.15348167952E+02  0.47292983683E+02  0.10566000000E+00 0.  1.
         23    2    1    0    0    0  0.18181837917E+02  0.23608783237E+02  0.12299837902E+02  0.92852756191E+02  0.87076945536E+02 0.  0.
         13    1    3    3    0    0 -0.23951856146E+02  0.38635449758E+02 -0.30483300498E+01  0.45559772508E+02  0.10566000000E+00 0. -1.
         22    1    1    0    0    0 -0.18181837917E+02 -0.23608783237E+02 -0.12299837902E+02  0.32237243809E+02  0.00000000000E+00 0. -1.
</event>
<event>
 5    1  0.1261138E-009  0.9118800E+02  0.7561462E-02  0.1125453E+00
         25   -1    0    0    0    0  0.00000000000E+00  0.00000000000E+00  0.99999998245E-14  0.12509000000E+03  0.12509000000E+03 0.  0.
        -13    1    3    3    0    0  0.54852191766E+02  0.99753545963E+01 -0.95826865695E+01  0.56569511990E+02  0.10566000000E+00 0.  1.
         23    2    1    0    0    0  0.22428576682E+02  0.15615511073E+02  0.11267674823E+02  0.95529118180E+02  0.90840336229E+02 0.  0.
         13    1    3    3    0    0 -0.32423615084E+02  0.56401564769E+01  0.20850361393E+02  0.38959606190E+02  0.10566000000E+00 0. -1.
         22    1    1    0    0    0 -0.22428576682E+02 -0.15615511073E+02 -0.11267674823E+02  0.29560881820E+02  0.00000000000E+00 0.  1.
</event>
<event>
 5    1  0.1261138E-009  0.9118800E+02  0.7561462E-02  0.1125453E+00
         25   -1    0    0    0    0  0.00000000000E+00  0.00000000000E+00  0.99999998245E-14  0.12509000000E+03  0.12509000000E+03 0.  0.
        -13    1    3    3    0    0  0.19254895195E+02 -0.24861900327E+02  0.25624764006E+02  0.40564821844E+02  0.10566000000E+00 0. -1.
         23    2    1    0    0    0  0.19952531834E+02 -0.73973965811E+01 -0.23903537163E+02  0.93086811227E+02  0.87412529609E+02 0.  0.
         13    1    3    3    0    0  0.69763663908E+00  0.17464503746E+02 -0.49528301169E+02  0.52521989383E+02  0.10566000000E+00 0.  1.
         22    1    1    0    0    0 -0.19952531834E+02  0.73973965811E+01  0.23903537163E+02  0.32003188773E+02  0.00000000000E+00 0.  1.
</event>
<event>
 5    1  0.1261138E-009  0.9118800E+02  0.7561462E-02  0.1125453E+00
         25   -1    0    0    0    0  0.00000000000E+00  0.00000000000E+00  0.99999998245E-14  0.12509000000E+03  0.12509000000E+03 0.  0.
        -13    1    3    3    0    0  0.27053182648E+02 -0.14350102420E+02  0.30991567726E+02  0.43569353506E+02  0.10566000000E+00 0. -1.
         23    2    1    0    0    0  0.12957120433E+02 -0.23850295554E+02 -0.16028598306E+02  0.93567951659E+02  0.88098365740E+02 0.  0.
         13    1    3    3    0    0 -0.14096062215E+02 -0.95001931347E+01 -0.47020166032E+02  0.49998598153E+02  0.10566000000E+00 0.  1.
         22    1    1    0    0    0 -0.12957120433E+02  0.23850295554E+02  0.16028598306E+02  0.31522048341E+02  0.00000000000E+00 0. -1.
</event>
<event>
 5    1  0.1261138E-009  0.9118800E+02  0.7561462E-02  0.1125453E+00
         25   -1    0    0    0    0  0.00000000000E+00  0.00000000000E+00  0.99999998245E-14  0.12509000000E+03  0.12509000000E+03 0.  0.
        -13    1    3    3    0    0 -0.17843504684E+02  0.41016611835E+02 -0.64483556156E+01  0.45192317489E+02  0.10566000000E+00 0.  1.
         23    2    1    0    0    0 -0.26008150522E+02 -0.51716936911E+01  0.12493177619E+02  0.95777037062E+02  0.91181089225E+02 0.  0.
         13    1    3    3    0    0 -0.81646458372E+01 -0.46188305526E+02  0.18941533234E+02  0.50584719573E+02  0.10566000000E+00 0. -1.
         22    1    1    0    0    0  0.26008150522E+02  0.51716936911E+01 -0.12493177619E+02  0.29312962938E+02  0.00000000000E+00 0. -1.
</event>
<event>
 5    1  0.1261138E-009  0.9118800E+02  0.7561462E-02  0.1125453E+00
         25   -1    0    0    0    0  0.00000000000E+00  0.00000000000E+00  0.99999998245E-14  0.12509000000E+03  0.12509000000E+03 0.  0.
        -13    1    3    3    0    0  0.38914791391E+02  0.71092572985E+01 -0.11479033999E+02  0.41190798899E+02  0.10566000000E+00 0. -1.
         23    2    1    0    0    0 -0.12135569750E+01  0.10676955169E+02  0.26460965330E+02  0.96530364526E+02  0.92208776682E+02 0.  0.
         13    1    3    3    0    0 -0.40128348366E+02  0.35676978703E+01  0.37939999329E+02  0.55339565627E+02  0.10566000000E+00 0.  1.
         22    1    1    0    0    0  0.12135569750E+01 -0.10676955169E+02 -0.26460965330E+02  0.28559635474E+02  0.00000000000E+00 0.  1.
</event>
<event>
 5    1  0.1261138E-009  0.9118800E+02  0.7561462E-02  0.1125453E+00
         25   -1    0    0    0    0  0.00000000000E+00  0.00000000000E+00  0.99999998245E-14  0.12509000000E+03  0.12509000000E+03 0.  0.
        -13    1    3    3    0    0  0.47610369165E+02  0.28797903315E+02  0.75053784033E+01  0.56146312046E+02  0.10566000000E+00 0. -1.
         23    2    1    0    0    0  0.17486704805E+02  0.67746363828E+01  0.22003118693E+02  0.96179486769E+02  0.91731542558E+02 0.  0.
         13    1    3    3    0    0 -0.30123664361E+02 -0.22023266932E+02  0.14497740290E+02  0.40033174723E+02  0.10566000000E+00 0.  1.
         22    1    1    0    0    0 -0.17486704805E+02 -0.67746363828E+01 -0.22003118693E+02  0.28910513231E+02  0.00000000000E+00 0. -1.
</event>
<event>
 5    1  0.1261138E-009  0.9118800E+02  0.7561462E-02  0.1125453E+00
         25   -1    0    0    0    0  0.00000000000E+00  0.00000000000E+00  0.99999998245E-14  0.12509000000E+03  0.12509000000E+03 0.  0.
        -13    1    3    3    0    0  0.26030120086E+02 -0.32587193716E+02  0.42369787538E+02  0.59453363286E+02  0.10566000000E+00 0.  1.
         23    2    1    0    0    0  0.89335413334E+01 -0.43063477921E+01  0.27808047119E+02  0.95566445393E+02  0.90891722442E+02 0.  0.
         13    1    3    3    0    0 -0.17096578753E+02  0.28280845924E+02 -0.14561740419E+02  0.36113082107E+02  0.10566000000E+00 0. -1.
         22    1    1    0    0    0 -0.89335413334E+01  0.43063477921E+01 -0.27808047119E+02  0.29523554607E+02  0.00000000000E+00 0.  1.
</event>
<event>
 5    1  0.1261138E-009  0.9118800E+02  0.7561462E-02  0.1125453E+00
         25   -1    0    0    0    0  0.00000000000E+00  0.00000000000E+00  0.99999998245E-14  0.12509000000E+03  0.12509000000E+03 0.  0.
        -13    1    3    3    0    0 -0.16214631526E+02 -0.30891714122E+02  0.13125097398E+00  0.34888976307E+02  0.10566000000E+00 0.  1.
         23    2    1    0    0    0  0.26035493574E+02  0.11591443537E+02 -0.83276777645E+01  0.95398945693E+02  0.90660907416E+02 0.  0.
         13    1    3    3    0    0  0.42250125100E+02  0.42483157659E+02 -0.84589287385E+01  0.60509969386E+02  0.10566000000E+00 0. -1.
         22    1    1    0    0    0 -0.26035493574E+02 -0.11591443537E+02  0.83276777645E+01  0.29691054307E+02  0.00000000000E+00 0. -1.
</event>
<event>
 5    1  0.1261138E-009  0.9118800E+02  0.7561462E-02  0.1125453E+00
         25   -1    0    0    0    0  0.00000000000E+00  0.00000000000E+00  0.99999998245E-14  0.12509000000E+03  0.12509000000E+03 0.  0.
        -13    1    3    3    0    0  0.49694976974E+02 -0.54233073772E+01 -0.15560977339E+02  0.52356071082E+02  0.10566000000E+00 0.  1.
         23    2    1    0    0    0  0.70903386142E+01 -0.98611951602E+01 -0.25954491213E+02  0.96434255623E+02  0.92078303480E+02 0.  0.
         13    1    3    3    0    0 -0.42604638360E+02 -0.44378877829E+01 -0.10393513874E+02  0.44078184541E+02  0.10566000000E+00 0. -1.
         22    1    1    0    0    0 -0.70903386142E+01  0.98611951602E+01  0.25954491213E+02  0.28655744377E+02  0.00000000000E+00 0. -1.
</event>
<event>
 5    1  0.1261138E-009  0.9118800E+02  0.7561462E-02  0.1125453E+00
         25   -1    0    0    0    0  0.00000000000E+00  0.00000000000E+00  0.99999998245E-14  0.12509000000E+03  0.12509000000E+03 0.  0.
        -13    1    3    3    0    0  0.47184411873E+02 -0.30426164755E+02 -0.18532962513E+02  0.59123617016E+02  0.10566000000E+00 0.  1.
         23    2    1    0    0    0  0.20806328394E+02 -0.26450401397E+01 -0.18022897198E+02  0.97436349934E+02  0.93429748616E+02 0.  0.
         13    1    3    3    0    0 -0.26378083479E+02  0.27781124616E+02  0.51006531467E+00  0.38312732917E+02  0.10566000000E+00 0. -1.
         22    1    1    0    0    0 -0.20806328394E+02  0.26450401397E+01  0.18022897198E+02  0.27653650066E+02  0.00000000000E+00 0.  1.
</event>
<event>
 5    1  0.1261138E-009  0.9118800E+02  0.7561462E-02  0.1125453E+00
         25   -1    0    0    0    0  0.00000000000E+00  0.00000000000E+00  0.99999998245E-14  0.12509000000E+03  0.12509000000E+03 0.  0.
        -13    1    3    3    0    0 -0.52196798661E+02 -0.20804618191E+01  0.24141629477E+02  0.57547055091E+02  0.10566000000E+00 0.  1.
         23    2    1    0    0    0 -0.27357968857E+02 -0.12324086225E+02 -0.19782596182E+01  0.95019165752E+02  0.90135380333E+02 0.  0.
         13    1    3    3    0    0  0.24838829804E+02 -0.10243624406E+02 -0.26119889096E+02  0.37472110661E+02  0.10566000000E+00 0. -1.
         22    1    1    0    0    0  0.27357968857E+02  0.12324086225E+02  0.19782596182E+01  0.30070834248E+02  0.00000000000E+00 0.  1.
</event>
<event>
 5    1  0.1261138E-009  0.9118800E+02  0.7561462E-02  0.1125453E+00
         25   -1    0    0    0    0  0.00000000000E+00  0.00000000000E+00  0.99999998245E-14  0.12509000000E+03  0.12509000000E+03 0.  0.
        -13    1    3    3    0    0 -0.33600060608E+01 -0.54612126765E+02  0.28550712071E+02  0.61716516058E+02  0.10566000000E+00 0. -1.
         23    2    1    0    0    0 -0.37632977637E+01 -0.28623173315E+02  0.72443822268E+01  0.95325431558E+02  0.90559418987E+02 0.  0.
         13    1    3    3    0    0 -0.40329170297E+00  0.25988953450E+02 -0.21306329844E+02  0.33608915500E+02  0.10566000000E+00 0.  1.
         22    1    1    0    0    0  0.37632977637E+01  0.28623173315E+02 -0.72443822268E+01  0.29764568442E+02  0.00000000000E+00 0. -1.
</event>
<event>
 5    1  0.1261138E-009  0.9118800E+02  0.7561462E-02  0.1125453E+00
         25   -1    0    0    0    0  0.00000000000E+00  0.00000000000E+00  0.99999998245E-14  0.12509000000E+03  0.12509000000E+03 0.  0.
        -13    1    3    3    0    0  0.10147538710E+02  0.92618600444E+01 -0.37351786627E+02  0.39798514063E+02  0.10566000000E+00 0.  1.
         23    2    1    0    0    0  0.23064731977E+02  0.44338572764E+01  0.17143641831E+02  0.96011736524E+02  0.91502503483E+02 0.  0.
         13    1    3    3    0    0  0.12917193267E+02 -0.48280027680E+01  0.54495428458E+02  0.56213222461E+02  0.10566000000E+00 0. -1.
         22    1    1    0    0    0 -0.23064731977E+02 -0.44338572764E+01 -0.17143641831E+02  0.29078263476E+02  0.00000000000E+00 0. -1.
</event>
<event>
 5    1  0.1261138E-009  0.9118800E+02  0.7561462E-02  0.1125453E+00
         25   -1    0    0    0    0  0.00000000000E+00  0.00000000000E+00  0.99999998245E-14  0.12509000000E+03  0.12509000000E+03 0.  0.
        -13    1    3    3    0    0 -0.50158525165E+02  0.35413667998E+02 -0.65046125546E+01  0.61744041626E+02  0.10566000000E+00 0. -1.
         23    2    1    0    0    0 -0.26500943761E+02  0.11685745376E+02 -0.71515835318E+01  0.95257101847E+02  0.90464985713E+02 0.  0.
         13    1    3    3    0    0  0.23657581405E+02 -0.23727922622E+02 -0.64697097722E+00  0.33513060221E+02  0.10566000000E+00 0.  1.
         22    1    1    0    0    0  0.26500943761E+02 -0.11685745376E+02  0.71515835318E+01  0.29832898153E+02  0.00000000000E+00 0. -1.
</event>
<event>
 5    1  0.1261138E-009  0.9118800E+02  0.7561462E-02  0.1125453E+00
         25   -1    0    0    0    0  0.00000000000E+00  0.00000000000E+00  0.99999998245E-14  0.12509000000E+03  0.12509000000E+03 0.  0.
        -13    1    3    3    0    0 -0.10391753735E+00 -0.43824709059E+02  0.21126387718E+02  0.48651324185E+02  0.10566000000E+00 0.  1.
         23    2    1    0    0    0 -0.17223799681E+02 -0.95698149532E+01 -0.14240211053E+02  0.10077900980E+03  0.97802784069E+02 0.  0.
         13    1    3    3    0    0 -0.17119882144E+02  0.34254894106E+02 -0.35366598771E+02  0.52127685614E+02  0.10566000000E+00 0. -1.
         22    1    1    0    0    0  0.17223799681E+02  0.95698149532E+01  0.14240211053E+02  0.24310990201E+02  0.00000000000E+00 0. -1.
</event>
<event>
 5    1  0.1261138E-009  0.9118800E+02  0.7561462E-02  0.1125453E+00
         25   -1    0    0    0    0  0.00000000000E+00  0.00000000000E+00  0.99999998245E-14  0.12509000000E+03  0.12509000000E+03 0.  0.
        -13    1    3    3    0    0 -0.75051792286E+01  0.49824254021E+02  0.62320968720E+01  0.50770406730E+02  0.10566000000E+00 0.  1.
         23    2    1    0    0    0 -0.98018634405E+01  0.90606698686E+01  0.25796805957E+02  0.96044389954E+02  0.91547132007E+02 0.  0.
         13    1    3    3    0    0 -0.22966842119E+01 -0.40763584153E+02  0.19564709085E+02  0.45273983224E+02  0.10566000000E+00 0. -1.
         22    1    1    0    0    0  0.98018634405E+01 -0.90606698686E+01 -0.25796805957E+02  0.29045610046E+02  0.00000000000E+00 0.  1.
</event>
<event>
 5    1  0.1261138E-009  0.9118800E+02  0.7561462E-02  0.1125453E+00
         25   -1    0    0    0    0  0.00000000000E+00  0.00000000000E+00  0.99999998245E-14  0.12509000000E+03  0.12509000000E+03 0.  0.
        -13    1    3    3    0    0  0.49402901180E+02  0.24596243298E+02  0.23036447667E+02  0.59802265129E+02  0.10566000000E+00 0.  1.
         23    2    1    0    0    0  0.27969146015E+02  0.11081520888E+02 -0.13572798465E+01  0.94974963182E+02  0.90074015059E+02 0.  0.
         13    1    3    3    0    0 -0.21433755165E+02 -0.13514722411E+02 -0.24393727514E+02  0.35172698053E+02  0.10566000000E+00 0. -1.
         22    1    1    0    0    0 -0.27969146015E+02 -0.11081520888E+02  0.13572798465E+01  0.30115036818E+02  0.00000000000E+00 0.  1.
</event>
<event>
 5    1  0.1261138E-009  0.9118800E+02  0.7561462E-02  0.1125453E+00
         25   -1    0    0    0    0  0.00000000000E+00  0.00000000000E+00  0.99999998245E-14  0.12509000000E+03  0.12509000000E+03 0.  0.
        -13    1    3    3    0    0  0.86170984137E+01  0.15118537948E+02  0.40242211924E+02  0.43843715164E+02  0.10566000000E+00 0.  1.
         23    2    1    0    0    0  0.20132331968E+02  0.18759855964E+02 -0.10223233495E+02  0.95734293751E+02  0.91122431435E+02 0.  0.
         13    1    3    3    0    0  0.11515233554E+02  0.36413180166E+01 -0.50465445420E+02  0.51890578587E+02  0.10566000000E+00 0. -1.
         22    1    1    0    0    0 -0.20132331968E+02 -0.18759855964E+02  0.10223233495E+02  0.29355706249E+02  0.00000000000E+00 0. -1.
</event>
<event>
 5    1  0.1261138E-009  0.9118800E+02  0.7561462E-02  0.1125453E+00
         25   -1    0    0    0    0  0.00000000000E+00  0.00000000000E+00  0.99999998245E-14  0.12509000000E+03  0.12509000000E+03 0.  0.
        -13    1    3    3    0    0  0.44556751767E+02 -0.15877733746E+02  0.18723192022E+02  0.50872149949E+02  0.10566000000E+00 0.  1.
         23    2    1    0    0    0 -0.50917773948E+01 -0.11900029446E+02  0.20651788720E+02  0.10071720215E+03  0.97723699957E+02 0.  0.
         13    1    3    3    0    0 -0.49648529161E+02  0.39777043008E+01  0.19285966980E+01  0.49845052198E+02  0.10566000000E+00 0. -1.
         22    1    1    0    0    0  0.50917773948E+01  0.11900029446E+02 -0.20651788720E+02  0.24372797853E+02  0.00000000000E+00 0.  1.
</event>
<event>
 5    1  0.1261138E-009  0.9118800E+02  0.7561462E-02  0.1125453E+00
         25   -1    0    0    0    0  0.00000000000E+00  0.00000000000E+00  0.99999998245E-14  0.12509000000E+03  0.12509000000E+03 0.  0.
        -13    1    3    3    0    0 -0.24105570272E+02 -0.28210075108E+02 -0.25542544394E+02  0.45047969920E+02  0.10566000000E+00 0.  1.
         23    2    1    0    0    0  0.91678613390E+01  0.99002033383E+01 -0.26172956223E+02  0.95643653111E+02  0.90997917752E+02 0.  0.
         13    1    3    3    0    0  0.33273431611E+02  0.38110278446E+02 -0.63041182955E+00  0.50595683191E+02  0.10566000000E+00 0. -1.
         22    1    1    0    0    0 -0.91678613390E+01 -0.99002033383E+01  0.26172956223E+02  0.29446346889E+02  0.00000000000E+00 0. -1.
</event>
<event>
 5    1  0.1261138E-009  0.9118800E+02  0.7561462E-02  0.1125453E+00
         25   -1    0    0    0    0  0.00000000000E+00  0.00000000000E+00  0.99999998245E-14  0.12509000000E+03  0.12509000000E+03 0.  0.
        -13    1    3    3    0    0 -0.43816156717E+02  0.21146125165E+02 -0.11886446355E+02  0.50083060708E+02  0.10566000000E+00 0.  1.
         23    2    1    0    0    0 -0.20194115430E+02 -0.13393286762E+02  0.11768951483E+02  0.98151354018E+02  0.94382189254E+02 0.  0.
         13    1    3    3    0    0  0.23622041287E+02 -0.34539411927E+02  0.23655397838E+02  0.48068293310E+02  0.10566000000E+00 0. -1.
         22    1    1    0    0    0  0.20194115430E+02  0.13393286762E+02 -0.11768951483E+02  0.26938645982E+02  0.00000000000E+00 0.  1.
</event>
<event>
 5    1  0.1261138E-009  0.9118800E+02  0.7561462E-02  0.1125453E+00
         25   -1    0    0    0    0  0.00000000000E+00  0.00000000000E+00  0.99999998245E-14  0.12509000000E+03  0.12509000000E+03 0.  0.
        -13    1    3    3    0    0 -0.10665847333E+01  0.28270470698E+02 -0.39624399346E+02  0.48687383417E+02  0.10566000000E+00 0. -1.
         23    2    1    0    0    0 -0.27716234337E+02  0.43174265422E+01 -0.95802615148E+01  0.95448623033E+02  0.90729424171E+02 0.  0.
         13    1    3    3    0    0 -0.26649649604E+02 -0.23953044156E+02  0.30044137831E+02  0.46761239616E+02  0.10566000000E+00 0.  1.
         22    1    1    0    0    0  0.27716234337E+02 -0.43174265422E+01  0.95802615148E+01  0.29641376967E+02  0.00000000000E+00 0.  1.
</event>
<event>
 5    1  0.1261138E-009  0.9118800E+02  0.7561462E-02  0.1125453E+00
         25   -1    0    0    0    0  0.00000000000E+00  0.00000000000E+00  0.99999998245E-14  0.12509000000E+03  0.12509000000E+03 0.  0.
        -13    1    3    3    0    0  0.20817119735E+02  0.44746966965E+02 -0.28561493924E+02  0.57021168225E+02  0.10566000000E+00 0.  1.
         23    2    1    0    0    0 -0.34942352267E+01  0.26548523938E+02 -0.59374112905E+00  0.98305931384E+02  0.94586837423E+02 0.  0.
         13    1    3    3    0    0 -0.24311354961E+02 -0.18198443027E+02  0.27967752795E+02  0.41284763159E+02  0.10566000000E+00 0. -1.
         22    1    1    0    0    0  0.34942352267E+01 -0.26548523938E+02  0.59374112905E+00  0.26784068616E+02  0.00000000000E+00 0.  1.
</event>
<event>
 5    1  0.1261138E-009  0.9118800E+02  0.7561462E-02  0.1125453E+00
         25   -1    0    0    0    0  0.00000000000E+00  0.00000000000E+00  0.99999998245E-14  0.12509000000E+03  0.12509000000E+03 0.  0.
        -13    1    3    3    0    0 -0.14681318038E+02 -0.52443828180E+01  0.38585568461E+02  0.41616125576E+02  0.10566000000E+00 0.  1.
         23    2    1    0    0    0 -0.45042914736E+01  0.24749820658E+02 -0.86498433112E+01  0.98488081769E+02  0.94827423233E+02 0.  0.
         13    1    3    3    0    0  0.10177026565E+02  0.29994203476E+02 -0.47235411772E+02  0.56871956193E+02  0.10566000000E+00 0. -1.
         22    1    1    0    0    0  0.45042914736E+01 -0.24749820658E+02  0.86498433112E+01  0.26601918231E+02  0.00000000000E+00 0. -1.
</event>
<event>
 5    1  0.1261138E-009  0.9118800E+02  0.7561462E-02  0.1125453E+00
         25   -1    0    0    0    0  0.00000000000E+00  0.00000000000E+00  0.99999998245E-14  0.12509000000E+03  0.12509000000E+03 0.  0.
        -13    1    3    3    0    0  0.35823676588E+02 -0.26689106743E+02  0.94229862503E+01  0.45655756010E+02  0.10566000000E+00 0. -1.
         23    2    1    0    0    0 -0.14220361721E+02 -0.21339718777E+02  0.13426460096E+02  0.96143979278E+02  0.91683109871E+02 0.  0.
         13    1    3    3    0    0 -0.50044038308E+02  0.53493879655E+01  0.40034738453E+01  0.50488223267E+02  0.10566000000E+00 0.  1.
         22    1    1    0    0    0  0.14220361721E+02  0.21339718777E+02 -0.13426460096E+02  0.28946020722E+02  0.00000000000E+00 0.  1.
</event>
<event>
 5    1  0.1261138E-009  0.9118800E+02  0.7561462E-02  0.1125453E+00
         25   -1    0    0    0    0  0.00000000000E+00  0.00000000000E+00  0.99999998245E-14  0.12509000000E+03  0.12509000000E+03 0.  0.
        -13    1    3    3    0    0  0.11413162887E+02 -0.25856027148E+02 -0.23095896529E+02  0.36499671607E+02  0.10566000000E+00 0.  1.
         23    2    1    0    0    0  0.12347550710E+02  0.18787311370E+02  0.17306797910E+02  0.96718353397E+02  0.92463449822E+02 0.  0.
         13    1    3    3    0    0  0.93438782289E+00  0.44643338518E+02  0.40402694439E+02  0.60218681790E+02  0.10566000000E+00 0. -1.
         22    1    1    0    0    0 -0.12347550710E+02 -0.18787311370E+02 -0.17306797910E+02  0.28371646603E+02  0.00000000000E+00 0. -1.
</event>
<event>
 5    1  0.1261138E-009  0.9118800E+02  0.7561462E-02  0.1125453E+00
         25   -1    0    0    0    0  0.00000000000E+00  0.00000000000E+00  0.99999998245E-14  0.12509000000E+03  0.12509000000E+03 0.  0.
        -13    1    3    3    0    0  0.39682636051E+01  0.47982398476E+02 -0.26459791965E+02  0.54938050880E+02  0.10566000000E+00 0.  1.
         23    2    1    0    0    0  0.15239379517E+02  0.91388318405E+01 -0.23686687787E+02  0.95478919071E+02  0.90771184157E+02 0.  0.
         13    1    3    3    0    0  0.11271115912E+02 -0.38843566636E+02  0.27731041790E+01  0.40540868191E+02  0.10566000000E+00 0. -1.
         22    1    1    0    0    0 -0.15239379517E+02 -0.91388318405E+01  0.23686687787E+02  0.29611080929E+02  0.00000000000E+00 0.  1.
</event>
<event>
 5    1  0.1261138E-009  0.9118800E+02  0.7561462E-02  0.1125453E+00
         25   -1    0    0    0    0  0.00000000000E+00  0.00000000000E+00  0.99999998245E-14  0.12509000000E+03  0.12509000000E+03 0.  0.
        -13    1    3    3    0    0  0.32823822221E+02  0.11470449727E+02  0.38399254979E+02  0.51802398295E+02  0.10566000000E+00 0.  1.
         23    2    1    0    0    0 -0.61109088829E+01 -0.51112161348E+01  0.28816479564E+02  0.95192554754E+02  0.90375689477E+02 0.  0.
         13    1    3    3    0    0 -0.38934731104E+02 -0.16581665861E+02 -0.95827754144E+01  0.43390156459E+02  0.10566000000E+00 0. -1.
         22    1    1    0    0    0  0.61109088829E+01  0.51112161348E+01 -0.28816479564E+02  0.29897445246E+02  0.00000000000E+00 0. -1.
</event>
<event>
 5    1  0.1261138E-009  0.9118800E+02  0.7561462E-02  0.1125453E+00
         25   -1    0    0    0    0  0.00000000000E+00  0.00000000000E+00  0.99999998245E-14  0.12509000000E+03  0.12509000000E+03 0.  0.
        -13    1    3    3    0    0 -0.10683262741E+02  0.40478706566E+02  0.39113797684E+02  0.57293613269E+02  0.10566000000E+00 0. -1.
         23    2    1    0    0    0  0.11714638059E+02  0.96675327140E+01  0.20182917472E+02  0.99830465339E+02  0.96581974086E+02 0.  0.
         13    1    3    3    0    0  0.22397900800E+02 -0.30811173852E+02 -0.18930880212E+02  0.42536852070E+02  0.10566000000E+00 0.  1.
         22    1    1    0    0    0 -0.11714638059E+02 -0.96675327140E+01 -0.20182917472E+02  0.25259534661E+02  0.00000000000E+00 0. -1.
</event>
<event>
 5    1  0.1261138E-009  0.9118800E+02  0.7561462E-02  0.1125453E+00
         25   -1    0    0    0    0  0.00000000000E+00  0.00000000000E+00  0.99999998245E-14  0.12509000000E+03  0.12509000000E+03 0.  0.
        -13    1    3    3    0    0 -0.34819388437E+01  0.60381788227E+02 -0.45016945368E-01  0.60482207616E+02  0.10566000000E+00 0. -1.
         23    2    1    0    0    0  0.93306018202E+01  0.26899838905E+02 -0.30351648436E+01  0.96456563443E+02  0.92108604061E+02 0.  0.
         13    1    3    3    0    0  0.12812540664E+02 -0.33481949322E+02 -0.29901478983E+01  0.35974355826E+02  0.10566000000E+00 0.  1.
         22    1    1    0    0    0 -0.93306018202E+01 -0.26899838905E+02  0.30351648436E+01  0.28633436557E+02  0.00000000000E+00 0. -1.
</event>
<event>
 5    1  0.1261138E-009  0.9118800E+02  0.7561462E-02  0.1125453E+00
         25   -1    0    0    0    0  0.00000000000E+00  0.00000000000E+00  0.99999998245E-14  0.12509000000E+03  0.12509000000E+03 0.  0.
        -13    1    3    3    0    0 -0.20201237993E+02 -0.31808708477E+02 -0.23853218436E+02  0.44596761600E+02  0.10566000000E+00 0. -1.
         23    2    1    0    0    0  0.18450519073E+02 -0.21705014748E+02  0.77852534003E+01  0.95557992114E+02  0.90880087847E+02 0.  0.
         13    1    3    3    0    0  0.38651757066E+02  0.10103693729E+02  0.31638471837E+02  0.50961230513E+02  0.10566000000E+00 0.  1.
         22    1    1    0    0    0 -0.18450519073E+02  0.21705014748E+02 -0.77852534003E+01  0.29532007886E+02  0.00000000000E+00 0.  1.
</event>
<event>
 5    1  0.1261138E-009  0.9118800E+02  0.7561462E-02  0.1125453E+00
         25   -1    0    0    0    0  0.00000000000E+00  0.00000000000E+00  0.99999998245E-14  0.12509000000E+03  0.12509000000E+03 0.  0.
        -13    1    3    3    0    0  0.13661383341E+02 -0.29289413946E+02 -0.49774554137E+02  0.59346613785E+02  0.10566000000E+00 0. -1.
         23    2    1    0    0    0  0.19718911550E+02 -0.16202971799E+02 -0.19196758191E+02  0.93154325702E+02  0.87509091551E+02 0.  0.
         13    1    3    3    0    0  0.60575282087E+01  0.13086442147E+02  0.30577795947E+02  0.33807711917E+02  0.10566000000E+00 0.  1.
         22    1    1    0    0    0 -0.19718911550E+02  0.16202971799E+02  0.19196758191E+02  0.31935674298E+02  0.00000000000E+00 0. -1.
</event>
<event>
 5    1  0.1261138E-009  0.9118800E+02  0.7561462E-02  0.1125453E+00
         25   -1    0    0    0    0  0.00000000000E+00  0.00000000000E+00  0.99999998245E-14  0.12509000000E+03  0.12509000000E+03 0.  0.
        -13    1    3    3    0    0 -0.44736960133E+02  0.20115183018E+02 -0.35359240128E+02  0.60467373155E+02  0.10566000000E+00 0. -1.
         23    2    1    0    0    0 -0.23281668165E+02 -0.17518204424E+01 -0.17326526306E+02  0.96015725095E+02  0.91507955962E+02 0.  0.
         13    1    3    3    0    0  0.21455291968E+02 -0.21867003461E+02  0.18032713822E+02  0.35548351940E+02  0.10566000000E+00 0.  1.
         22    1    1    0    0    0  0.23281668165E+02  0.17518204424E+01  0.17326526306E+02  0.29074274905E+02  0.00000000000E+00 0. -1.
</event>
<event>
 5    1  0.1261138E-009  0.9118800E+02  0.7561462E-02  0.1125453E+00
         25   -1    0    0    0    0  0.00000000000E+00  0.00000000000E+00  0.99999998245E-14  0.12509000000E+03  0.12509000000E+03 0.  0.
        -13    1    3    3    0    0  0.52532537068E+02  0.11455505471E+02 -0.29065170145E+02  0.61120302158E+02  0.10566000000E+00 0.  1.
         23    2    1    0    0    0  0.21665236813E+02  0.12815677671E+02 -0.18779101367E+02  0.93684925116E+02  0.88264298929E+02 0.  0.
         13    1    3    3    0    0 -0.30867300255E+02  0.13601722000E+01  0.10286068777E+02  0.32564622958E+02  0.10566000000E+00 0. -1.
         22    1    1    0    0    0 -0.21665236813E+02 -0.12815677671E+02  0.18779101367E+02  0.31405074884E+02  0.00000000000E+00 0.  1.
</event>
<event>
 5    1  0.1261138E-009  0.9118800E+02  0.7561462E-02  0.1125453E+00
         25   -1    0    0    0    0  0.00000000000E+00  0.00000000000E+00  0.99999998245E-14  0.12509000000E+03  0.12509000000E+03 0.  0.
        -13    1    3    3    0    0 -0.25726081948E+02  0.17668381934E+02 -0.12121134009E+02  0.33480383305E+02  0.10566000000E+00 0. -1.
         23    2    1    0    0    0  0.22816526743E+02 -0.15847972643E+02  0.86089762504E+01  0.96006214112E+02  0.91494953667E+02 0.  0.
         13    1    3    3    0    0  0.48542608691E+02 -0.33516354577E+02  0.20730110260E+02  0.62525830807E+02  0.10566000000E+00 0.  1.
         22    1    1    0    0    0 -0.22816526743E+02  0.15847972643E+02 -0.86089762504E+01  0.29083785888E+02  0.00000000000E+00 0.  1.
</event>
<event>
 5    1  0.1261138E-009  0.9118800E+02  0.7561462E-02  0.1125453E+00
         25   -1    0    0    0    0  0.00000000000E+00  0.00000000000E+00  0.99999998245E-14  0.12509000000E+03  0.12509000000E+03 0.  0.
        -13    1    3    3    0    0 -0.25827661064E+02  0.33975698257E+02  0.12065272226E+02  0.44350852371E+02  0.10566000000E+00 0.  1.
         23    2    1    0    0    0 -0.82449447632E+01 -0.15766468587E+02  0.20681754111E+02  0.97808218552E+02  0.93926311635E+02 0.  0.
         13    1    3    3    0    0  0.17582716301E+02 -0.49742166845E+02  0.86164818850E+01  0.53457366181E+02  0.10566000000E+00 0. -1.
         22    1    1    0    0    0  0.82449447632E+01  0.15766468587E+02 -0.20681754111E+02  0.27281781448E+02  0.00000000000E+00 0. -1.
</event>
<event>
 5    1  0.1261138E-009  0.9118800E+02  0.7561462E-02  0.1125453E+00
         25   -1    0    0    0    0  0.00000000000E+00  0.00000000000E+00  0.99999998245E-14  0.12509000000E+03  0.12509000000E+03 0.  0.
        -13    1    3    3    0    0  0.21413174058E+02  0.21430109439E+02 -0.21770689760E+02  0.37306135024E+02  0.10566000000E+00 0.  1.
         23    2    1    0    0    0  0.97754727571E+01  0.40424836889E+02  0.15482446864E+02  0.80711700506E+02  0.67416208233E+02 0.  0.
         13    1    3    3    0    0 -0.11637701301E+02  0.18994727450E+02  0.37253136623E+02  0.43405565482E+02  0.10566000000E+00 0. -1.
         22    1    1    0    0    0 -0.97754727571E+01 -0.40424836889E+02 -0.15482446864E+02  0.44378299494E+02  0.00000000000E+00 0. -1.
</event>
<event>
 5    1  0.1261138E-009  0.9118800E+02  0.7561462E-02  0.1125453E+00
         25   -1    0    0    0    0  0.00000000000E+00  0.00000000000E+00  0.99999998245E-14  0.12509000000E+03  0.12509000000E+03 0.  0.
        -13    1    3    3    0    0 -0.29197567568E+02  0.22888824956E+02 -0.47806927200E+01  0.37406716598E+02  0.10566000000E+00 0. -1.
         23    2    1    0    0    0  0.24926485264E+01  0.46880989388E+02 -0.86856460401E+01  0.77346090338E+02  0.60851760704E+02 0.  0.
         13    1    3    3    0    0  0.31690216095E+02  0.23992164432E+02 -0.39049533201E+01  0.39939373740E+02  0.10566000000E+00 0.  1.
         22    1    1    0    0    0 -0.24926485264E+01 -0.46880989388E+02  0.86856460401E+01  0.47743909662E+02  0.00000000000E+00 0. -1.
</event>
<event>
 5    1  0.1261138E-009  0.9118800E+02  0.7561462E-02  0.1125453E+00
         25   -1    0    0    0    0  0.00000000000E+00  0.00000000000E+00  0.99999998245E-14  0.12509000000E+03  0.12509000000E+03 0.  0.
        -13    1    3    3    0    0  0.41918994302E+02  0.14734713853E+02 -0.34877150785E+02  0.56486641664E+02  0.10566000000E+00 0.  1.
         23    2    1    0    0    0  0.18030062272E+01  0.14240949595E+02 -0.22370532344E+02  0.98510003872E+02  0.94856336997E+02 0.  0.
         13    1    3    3    0    0 -0.40115988075E+02 -0.49376425760E+00  0.12506618440E+02  0.42023362207E+02  0.10566000000E+00 0. -1.
         22    1    1    0    0    0 -0.18030062272E+01 -0.14240949595E+02  0.22370532344E+02  0.26579996128E+02  0.00000000000E+00 0.  1.
</event>
<event>
 5    1  0.1261138E-009  0.9118800E+02  0.7561462E-02  0.1125453E+00
         25   -1    0    0    0    0  0.00000000000E+00  0.00000000000E+00  0.99999998245E-14  0.12509000000E+03  0.12509000000E+03 0.  0.
        -13    1    3    3    0    0  0.36401492393E+02  0.39683437039E+01  0.50758095775E+01  0.36967437118E+02  0.10566000000E+00 0. -1.
         23    2    1    0    0    0 -0.12119298324E+02 -0.17786977082E+02 -0.19955257106E+02  0.95739255005E+02  0.91129241833E+02 0.  0.
         13    1    3    3    0    0 -0.48520790717E+02 -0.21755320786E+02 -0.25031066684E+02  0.58771817887E+02  0.10566000000E+00 0.  1.
         22    1    1    0    0    0  0.12119298324E+02  0.17786977082E+02  0.19955257106E+02  0.29350744995E+02  0.00000000000E+00 0.  1.
</event>
<event>
 5    1  0.1261138E-009  0.9118800E+02  0.7561462E-02  0.1125453E+00
         25   -1    0    0    0    0  0.00000000000E+00  0.00000000000E+00  0.99999998245E-14  0.12509000000E+03  0.12509000000E+03 0.  0.
        -13    1    3    3    0    0  0.25600243102E+01  0.15485238307E+02 -0.44433015265E+02  0.47123776796E+02  0.10566000000E+00 0.  1.
         23    2    1    0    0    0  0.17393161164E+02  0.25392617897E+02 -0.75661168831E+00  0.94302347277E+02  0.89135027581E+02 0.  0.
         13    1    3    3    0    0  0.14833136854E+02  0.99073795899E+01  0.43676403577E+02  0.47178570482E+02  0.10566000000E+00 0. -1.
         22    1    1    0    0    0 -0.17393161164E+02 -0.25392617897E+02  0.75661168831E+00  0.30787652723E+02  0.00000000000E+00 0. -1.
</event>
<event>
 5    1  0.1261138E-009  0.9118800E+02  0.7561462E-02  0.1125453E+00
         25   -1    0    0    0    0  0.00000000000E+00  0.00000000000E+00  0.99999998245E-14  0.12509000000E+03  0.12509000000E+03 0.  0.
        -13    1    3    3    0    0 -0.15299746875E+02 -0.55113720625E+02  0.54249722367E+01  0.57454729512E+02  0.10566000000E+00 0.  1.
         23    2    1    0    0    0 -0.16992756146E+02 -0.18520196456E+02  0.15641868236E+02  0.95485617214E+02  0.90780414267E+02 0.  0.
         13    1    3    3    0    0 -0.16930092716E+01  0.36593524168E+02  0.10216895999E+02  0.38030887701E+02  0.10566000000E+00 0. -1.
         22    1    1    0    0    0  0.16992756146E+02  0.18520196456E+02 -0.15641868236E+02  0.29604382786E+02  0.00000000000E+00 0.  1.
</event>
<event>
 5    1  0.1261138E-009  0.9118800E+02  0.7561462E-02  0.1125453E+00
         25   -1    0    0    0    0  0.00000000000E+00  0.00000000000E+00  0.99999998245E-14  0.12509000000E+03  0.12509000000E+03 0.  0.
        -13    1    3    3    0    0 -0.13244189290E+02  0.12549498165E+02  0.31265951186E+02  0.36200404994E+02  0.10566000000E+00 0. -1.
         23    2    1    0    0    0 -0.11682448734E+02 -0.67221177168E+01 -0.25542685583E+02  0.96209292568E+02  0.91772178325E+02 0.  0.
         13    1    3    3    0    0  0.15617405567E+01 -0.19271615882E+02 -0.56808636769E+02  0.60008887573E+02  0.10566000000E+00 0.  1.
         22    1    1    0    0    0  0.11682448734E+02  0.67221177168E+01  0.25542685583E+02  0.28880707432E+02  0.00000000000E+00 0.  1.
</event>
<event>
 5    1  0.1261138E-009  0.9118800E+02  0.7561462E-02  0.1125453E+00
         25   -1    0    0    0    0  0.00000000000E+00  0.00000000000E+00  0.99999998245E-14  0.12509000000E+03  0.12509000000E+03 0.  0.
        -13    1    3    3    0    0  0.18390044818E+02 -0.34998694124E+02 -0.43164878586E+02  0.58534778091E+02  0.10566000000E+00 0.  1.
         23    2    1    0    0    0  0.27253857950E+01 -0.27541705941E+02 -0.10561145756E+02  0.95467186266E+02  0.90755013966E+02 0.  0.
         13    1    3    3    0    0 -0.15664659023E+02  0.74569881826E+01  0.32603732831E+02  0.36932408175E+02  0.10566000000E+00 0. -1.
         22    1    1    0    0    0 -0.27253857950E+01  0.27541705941E+02  0.10561145756E+02  0.29622813734E+02  0.00000000000E+00 0.  1.
</event>
<event>
 5    1  0.1261138E-009  0.9118800E+02  0.7561462E-02  0.1125453E+00
         25   -1    0    0    0    0  0.00000000000E+00  0.00000000000E+00  0.99999998245E-14  0.12509000000E+03  0.12509000000E+03 0.  0.
        -13    1    3    3    0    0  0.43564638072E+01  0.17000064409E+02 -0.41066052900E+01  0.18023771466E+02  0.10566000000E+00 0.  1.
         23    2    1    0    0    0  0.26735736263E+01 -0.44651518332E+02  0.37727481118E+01  0.80199692431E+02  0.66459393259E+02 0.  0.
         13    1    3    3    0    0 -0.16828901809E+01 -0.61651582741E+02  0.78793534018E+01  0.62175920965E+02  0.10566000000E+00 0. -1.
         22    1    1    0    0    0 -0.26735736263E+01  0.44651518332E+02 -0.37727481118E+01  0.44890307569E+02  0.00000000000E+00 0. -1.
</event>
<event>
 5    1  0.1261138E-009  0.9118800E+02  0.7561462E-02  0.1125453E+00
         25   -1    0    0    0    0  0.00000000000E+00  0.00000000000E+00  0.99999998245E-14  0.12509000000E+03  0.12509000000E+03 0.  0.
        -13    1    3    3    0    0  0.16014764838E+02  0.29627213126E+02 -0.32911122387E+02  0.47089251335E+02  0.10566000000E+00 0.  1.
         23    2    1    0    0    0  0.29815287877E+02 -0.56001048796E+00  0.19258616567E+01  0.95207330339E+02  0.90396138215E+02 0.  0.
         13    1    3    3    0    0  0.13800523040E+02 -0.30187223614E+02  0.34836984044E+02  0.48118079004E+02  0.10566000000E+00 0. -1.
         22    1    1    0    0    0 -0.29815287877E+02  0.56001048796E+00 -0.19258616567E+01  0.29882669661E+02  0.00000000000E+00 0.  1.
</event>
<event>
 5    1  0.1261138E-009  0.9118800E+02  0.7561462E-02  0.1125453E+00
         25   -1    0    0    0    0  0.00000000000E+00  0.00000000000E+00  0.99999998245E-14  0.12509000000E+03  0.12509000000E+03 0.  0.
        -13    1    3    3    0    0 -0.44688910884E+02  0.26064552516E+02 -0.34942099830E+01  0.51852486163E+02  0.10566000000E+00 0. -1.
         23    2    1    0    0    0 -0.10941911149E+01  0.23749586672E+02 -0.14973710705E+02  0.96992809151E+02  0.92834007204E+02 0.  0.
         13    1    3    3    0    0  0.43594719769E+02 -0.23149658442E+01 -0.11479500722E+02  0.45140322988E+02  0.10566000000E+00 0.  1.
         22    1    1    0    0    0  0.10941911149E+01 -0.23749586672E+02  0.14973710705E+02  0.28097190849E+02  0.00000000000E+00 0. -1.
</event>
<event>
 5    1  0.1261138E-009  0.9118800E+02  0.7561462E-02  0.1125453E+00
         25   -1    0    0    0    0  0.00000000000E+00  0.00000000000E+00  0.99999998245E-14  0.12509000000E+03  0.12509000000E+03 0.  0.
        -13    1    3    3    0    0 -0.22779644350E+02 -0.16171103461E+02 -0.21824710289E+02  0.35450612507E+02  0.10566000000E+00 0. -1.
         23    2    1    0    0    0  0.29267955401E+02  0.60137312295E+01 -0.12074450780E+02  0.92863139490E+02  0.87091860341E+02 0.  0.
         13    1    3    3    0    0  0.52047599751E+02  0.22184834691E+02  0.97502595089E+01  0.57412526983E+02  0.10566000000E+00 0.  1.
         22    1    1    0    0    0 -0.29267955401E+02 -0.60137312295E+01  0.12074450780E+02  0.32226860510E+02  0.00000000000E+00 0.  1.
</event>
<event>
 5    1  0.1261138E-009  0.9118800E+02  0.7561462E-02  0.1125453E+00
         25   -1    0    0    0    0  0.00000000000E+00  0.00000000000E+00  0.99999998245E-14  0.12509000000E+03  0.12509000000E+03 0.  0.
        -13    1    3    3    0    0 -0.49500284806E+01 -0.32734136928E+02  0.47249884425E+02  0.57693927277E+02  0.10566000000E+00 0.  1.
         23    2    1    0    0    0  0.87723046117E+01 -0.26946256023E+02  0.15438135441E+02  0.92819424118E+02  0.87029049321E+02 0.  0.
         13    1    3    3    0    0  0.13722333092E+02  0.57878809051E+01 -0.31811748984E+02  0.35125496841E+02  0.10566000000E+00 0. -1.
         22    1    1    0    0    0 -0.87723046117E+01  0.26946256023E+02 -0.15438135441E+02  0.32270575882E+02  0.00000000000E+00 0.  1.
</event>
<event>
 5    1  0.1261138E-009  0.9118800E+02  0.7561462E-02  0.1125453E+00
         25   -1    0    0    0    0  0.00000000000E+00  0.00000000000E+00  0.99999998245E-14  0.12509000000E+03  0.12509000000E+03 0.  0.
        -13    1    3    3    0    0  0.38106464642E+02 -0.22684027891E+02 -0.50601603947E+01  0.44635010430E+02  0.10566000000E+00 0. -1.
         23    2    1    0    0    0 -0.12784842820E+02 -0.20497161457E+02 -0.15166355458E+02  0.96566252497E+02  0.92257449292E+02 0.  0.
         13    1    3    3    0    0 -0.50891307462E+02  0.21868664338E+01 -0.10106195063E+02  0.51931242067E+02  0.10566000000E+00 0.  1.
         22    1    1    0    0    0  0.12784842820E+02  0.20497161457E+02  0.15166355458E+02  0.28523747503E+02  0.00000000000E+00 0.  1.
</event>
<event>
 5    1  0.1261138E-009  0.9118800E+02  0.7561462E-02  0.1125453E+00
         25   -1    0    0    0    0  0.00000000000E+00  0.00000000000E+00  0.99999998245E-14  0.12509000000E+03  0.12509000000E+03 0.  0.
        -13    1    3    3    0    0  0.21552529479E+02 -0.48660848062E+02  0.20100370166E+02  0.56889592246E+02  0.10566000000E+00 0. -1.
         23    2    1    0    0    0  0.10929412465E+02 -0.25257650986E+02  0.29951605862E+02  0.84414458408E+02  0.73968243892E+02 0.  0.
         13    1    3    3    0    0 -0.10623117015E+02  0.23403197076E+02  0.98512356955E+01  0.27524866162E+02  0.10566000000E+00 0.  1.
         22    1    1    0    0    0 -0.10929412465E+02  0.25257650986E+02 -0.29951605862E+02  0.40675541592E+02  0.00000000000E+00 0. -1.
</event>
<event>
 5    1  0.1261138E-009  0.9118800E+02  0.7561462E-02  0.1125453E+00
         25   -1    0    0    0    0  0.00000000000E+00  0.00000000000E+00  0.99999998245E-14  0.12509000000E+03  0.12509000000E+03 0.  0.
        -13    1    3    3    0    0 -0.28286777193E+02  0.11304237466E+02 -0.50021010781E+02  0.58566545334E+02  0.10566000000E+00 0.  1.
         23    2    1    0    0    0  0.13078537104E+01 -0.34190746503E+01 -0.24475751179E+02  0.10034201122E+03  0.97242255566E+02 0.  0.
         13    1    3    3    0    0  0.29594630904E+02 -0.14723312116E+02  0.25545259603E+02  0.41775465889E+02  0.10566000000E+00 0. -1.
         22    1    1    0    0    0 -0.13078537104E+01  0.34190746503E+01  0.24475751179E+02  0.24747988778E+02  0.00000000000E+00 0.  1.
</event>
<event>
 5    1  0.1261138E-009  0.9118800E+02  0.7561462E-02  0.1125453E+00
         25   -1    0    0    0    0  0.00000000000E+00  0.00000000000E+00  0.99999998245E-14  0.12509000000E+03  0.12509000000E+03 0.  0.
        -13    1    3    3    0    0 -0.30706809341E+02  0.34266527173E+01  0.52561139019E+02  0.60969948235E+02  0.10566000000E+00 0.  1.
         23    2    1    0    0    0 -0.17080028984E+02  0.10893283243E+02  0.22470400213E+02  0.94835911092E+02  0.89880699469E+02 0.  0.
         13    1    3    3    0    0  0.13626780356E+02  0.74666305259E+01 -0.30090738806E+02  0.33865962857E+02  0.10566000000E+00 0. -1.
         22    1    1    0    0    0  0.17080028984E+02 -0.10893283243E+02 -0.22470400213E+02  0.30254088908E+02  0.00000000000E+00 0.  1.
</event>
<event>
 5    1  0.1261138E-009  0.9118800E+02  0.7561462E-02  0.1125453E+00
         25   -1    0    0    0    0  0.00000000000E+00  0.00000000000E+00  0.99999998245E-14  0.12509000000E+03  0.12509000000E+03 0.  0.
        -13    1    3    3    0    0  0.25455464561E+02  0.43883749571E+02 -0.10228769050E+02  0.51753290067E+02  0.10566000000E+00 0.  1.
         23    2    1    0    0    0 -0.31773391996E+01  0.83082033733E+01 -0.24035212955E+02  0.99461633109E+02  0.96103086690E+02 0.  0.
         13    1    3    3    0    0 -0.28632803761E+02 -0.35575546198E+02 -0.13806443905E+02  0.47708343042E+02  0.10566000000E+00 0. -1.
         22    1    1    0    0    0  0.31773391996E+01 -0.83082033733E+01  0.24035212955E+02  0.25628366891E+02  0.00000000000E+00 0.  1.
</event>
<event>
 5    1  0.1261138E-009  0.9118800E+02  0.7561462E-02  0.1125453E+00
         25   -1    0    0    0    0  0.00000000000E+00  0.00000000000E+00  0.99999998245E-14  0.12509000000E+03  0.12509000000E+03 0.  0.
        -13    1    3    3    0    0 -0.22448249961E+02 -0.28820273782E+02  0.74529732320E+01  0.37283911828E+02  0.10566000000E+00 0. -1.
         23    2    1    0    0    0  0.27750333412E+02 -0.14658549037E+02  0.15546972303E+02  0.90066259307E+02  0.82977518964E+02 0.  0.
         13    1    3    3    0    0  0.50198583373E+02  0.14161724746E+02  0.80939990711E+01  0.52782347479E+02  0.10566000000E+00 0.  1.
         22    1    1    0    0    0 -0.27750333412E+02  0.14658549037E+02 -0.15546972303E+02  0.35023740693E+02  0.00000000000E+00 0.  1.
</event>
<event>
 5    1  0.1261138E-009  0.9118800E+02  0.7561462E-02  0.1125453E+00
         25   -1    0    0    0    0  0.00000000000E+00  0.00000000000E+00  0.99999998245E-14  0.12509000000E+03  0.12509000000E+03 0.  0.
        -13    1    3    3    0    0  0.27710490266E+02 -0.21159144875E+02 -0.14424640425E+02  0.37731447071E+02  0.10566000000E+00 0.  1.
         23    2    1    0    0    0 -0.18757812539E+02  0.17283619356E+02 -0.78782104318E+01  0.98394584122E+02  0.94704007073E+02 0.  0.
         13    1    3    3    0    0 -0.46468302805E+02  0.38442764231E+02  0.65464299935E+01  0.60663137052E+02  0.10566000000E+00 0. -1.
         22    1    1    0    0    0  0.18757812539E+02 -0.17283619356E+02  0.78782104318E+01  0.26695415878E+02  0.00000000000E+00 0. -1.
</event>
<event>
 5    1  0.1261138E-009  0.9118800E+02  0.7561462E-02  0.1125453E+00
         25   -1    0    0    0    0  0.00000000000E+00  0.00000000000E+00  0.99999998245E-14  0.12509000000E+03  0.12509000000E+03 0.  0.
        -13    1    3    3    0    0  0.67246480387E+01  0.40217640538E+02 -0.30446175050E+02  0.50888704453E+02  0.10566000000E+00 0.  1.
         23    2    1    0    0    0 -0.72995638299E+01 -0.29071088993E+01 -0.27675046145E+02  0.96321213210E+02  0.91924605089E+02 0.  0.
         13    1    3    3    0    0 -0.14024211869E+02 -0.43124749437E+02  0.27711289049E+01  0.45432508757E+02  0.10566000000E+00 0. -1.
         22    1    1    0    0    0  0.72995638299E+01  0.29071088993E+01  0.27675046145E+02  0.28768786790E+02  0.00000000000E+00 0. -1.
</event>
<event>
 5    1  0.1261138E-009  0.9118800E+02  0.7561462E-02  0.1125453E+00
         25   -1    0    0    0    0  0.00000000000E+00  0.00000000000E+00  0.99999998245E-14  0.12509000000E+03  0.12509000000E+03 0.  0.
        -13    1    3    3    0    0 -0.27181193824E+02  0.23686699014E+02 -0.30187884377E+02  0.47023361588E+02  0.10566000000E+00 0.  1.
         23    2    1    0    0    0  0.16289089166E+02  0.43556399756E+01 -0.25076277801E+02  0.94872029622E+02  0.89930952796E+02 0.  0.
         13    1    3    3    0    0  0.43470282990E+02 -0.19331059038E+02  0.51116065759E+01  0.47848668034E+02  0.10566000000E+00 0. -1.
         22    1    1    0    0    0 -0.16289089166E+02 -0.43556399756E+01  0.25076277801E+02  0.30217970378E+02  0.00000000000E+00 0.  1.
</event>
<event>
 5    1  0.1261138E-009  0.9118800E+02  0.7561462E-02  0.1125453E+00
         25   -1    0    0    0    0  0.00000000000E+00  0.00000000000E+00  0.99999998245E-14  0.12509000000E+03  0.12509000000E+03 0.  0.
        -13    1    3    3    0    0 -0.44681904603E+02  0.13499996074E+02 -0.39903480031E+02  0.61408642516E+02  0.10566000000E+00 0.  1.
         23    2    1    0    0    0 -0.18127876826E+02  0.47326919654E+01 -0.27049843684E+02  0.92185405567E+02  0.86112929719E+02 0.  0.
         13    1    3    3    0    0  0.26554027778E+02 -0.87673041088E+01  0.12853636348E+02  0.30776763052E+02  0.10566000000E+00 0. -1.
         22    1    1    0    0    0  0.18127876826E+02 -0.47326919654E+01  0.27049843684E+02  0.32904594433E+02  0.00000000000E+00 0.  1.
</event>
<event>
 5    1  0.1261138E-009  0.9118800E+02  0.7561462E-02  0.1125453E+00
         25   -1    0    0    0    0  0.00000000000E+00  0.00000000000E+00  0.99999998245E-14  0.12509000000E+03  0.12509000000E+03 0.  0.
        -13    1    3    3    0    0  0.42254942462E+02 -0.10521397330E+02 -0.43058019935E+02  0.61238747611E+02  0.10566000000E+00 0.  1.
         23    2    1    0    0    0  0.30238278729E+02  0.96250361149E+00 -0.31001415367E+02  0.81772940215E+02  0.69357379441E+02 0.  0.
         13    1    3    3    0    0 -0.12016663732E+02  0.11483900942E+02  0.12056604569E+02  0.20534192603E+02  0.10566000000E+00 0. -1.
         22    1    1    0    0    0 -0.30238278729E+02 -0.96250361149E+00  0.31001415367E+02  0.43317059785E+02  0.00000000000E+00 0.  1.
</event>
<event>
 5    1  0.1261138E-009  0.9118800E+02  0.7561462E-02  0.1125453E+00
         25   -1    0    0    0    0  0.00000000000E+00  0.00000000000E+00  0.99999998245E-14  0.12509000000E+03  0.12509000000E+03 0.  0.
        -13    1    3    3    0    0 -0.35645680794E+02 -0.12813350947E+02  0.26894424023E+02  0.46455545733E+02  0.10566000000E+00 0.  1.
         23    2    1    0    0    0  0.41771182439E+01  0.17636188869E+02  0.21643660559E+02  0.96860024495E+02  0.92654912595E+02 0.  0.
         13    1    3    3    0    0  0.39822799038E+02  0.30449539816E+02 -0.52507634642E+01  0.50404478761E+02  0.10566000000E+00 0. -1.
         22    1    1    0    0    0 -0.41771182439E+01 -0.17636188869E+02 -0.21643660559E+02  0.28229975505E+02  0.00000000000E+00 0.  1.
</event>
<event>
 5    1  0.1261138E-009  0.9118800E+02  0.7561462E-02  0.1125453E+00
         25   -1    0    0    0    0  0.00000000000E+00  0.00000000000E+00  0.99999998245E-14  0.12509000000E+03  0.12509000000E+03 0.  0.
        -13    1    3    3    0    0 -0.50265636593E+01  0.21294134834E+02  0.55704484585E+02  0.59847366587E+02  0.10566000000E+00 0.  1.
         23    2    1    0    0    0 -0.14427019506E+02  0.52209287342E+01  0.25477560059E+02  0.95349403919E+02  0.90592526030E+02 0.  0.
         13    1    3    3    0    0 -0.94004558465E+01 -0.16073206100E+02 -0.30226924525E+02  0.35502037332E+02  0.10566000000E+00 0. -1.
         22    1    1    0    0    0  0.14427019506E+02 -0.52209287342E+01 -0.25477560059E+02  0.29740596081E+02  0.00000000000E+00 0.  1.
</event>
<event>
 5    1  0.1261138E-009  0.9118800E+02  0.7561462E-02  0.1125453E+00
         25   -1    0    0    0    0  0.00000000000E+00  0.00000000000E+00  0.99999998245E-14  0.12509000000E+03  0.12509000000E+03 0.  0.
        -13    1    3    3    0    0  0.28217204167E+02  0.39377174299E+02  0.27206872850E+02  0.55560755584E+02  0.10566000000E+00 0.  1.
         23    2    1    0    0    0  0.15390827060E+01  0.24432237642E+02 -0.51419574085E+01  0.10007514966E+03  0.96898363457E+02 0.  0.
         13    1    3    3    0    0 -0.26678121462E+02 -0.14944936657E+02 -0.32348830258E+02  0.44514394071E+02  0.10566000000E+00 0. -1.
         22    1    1    0    0    0 -0.15390827060E+01 -0.24432237642E+02  0.51419574085E+01  0.25014850345E+02  0.00000000000E+00 0. -1.
</event>
<event>
 5    1  0.1261138E-009  0.9118800E+02  0.7561462E-02  0.1125453E+00
         25   -1    0    0    0    0  0.00000000000E+00  0.00000000000E+00  0.99999998245E-14  0.12509000000E+03  0.12509000000E+03 0.  0.
        -13    1    3    3    0    0  0.11851520791E+02  0.50618742471E+02 -0.38846513377E+01  0.52132689500E+02  0.10566000000E+00 0. -1.
         23    2    1    0    0    0  0.10327829273E+02  0.12765443688E+02 -0.24754318123E+02  0.95384834190E+02  0.90641434884E+02 0.  0.
         13    1    3    3    0    0 -0.15236915177E+01 -0.37853298783E+02 -0.20869666785E+02  0.43252144691E+02  0.10566000000E+00 0.  1.
         22    1    1    0    0    0 -0.10327829273E+02 -0.12765443688E+02  0.24754318123E+02  0.29705165810E+02  0.00000000000E+00 0. -1.
</event>
<event>
 5    1  0.1261138E-009  0.9118800E+02  0.7561462E-02  0.1125453E+00
         25   -1    0    0    0    0  0.00000000000E+00  0.00000000000E+00  0.99999998245E-14  0.12509000000E+03  0.12509000000E+03 0.  0.
        -13    1    3    3    0    0  0.38450693236E+02  0.27219427757E+02 -0.10467490472E+02  0.48259015516E+02  0.10566000000E+00 0. -1.
         23    2    1    0    0    0 -0.54721907653E+01  0.14906526089E+02 -0.24419901686E+02  0.95961302979E+02  0.91433531482E+02 0.  0.
         13    1    3    3    0    0 -0.43922884001E+02 -0.12312901668E+02 -0.13952411214E+02  0.47702287463E+02  0.10566000000E+00 0.  1.
         22    1    1    0    0    0  0.54721907653E+01 -0.14906526089E+02  0.24419901686E+02  0.29128697021E+02  0.00000000000E+00 0.  1.
</event>
<event>
 5    1  0.1261138E-009  0.9118800E+02  0.7561462E-02  0.1125453E+00
         25   -1    0    0    0    0  0.00000000000E+00  0.00000000000E+00  0.99999998245E-14  0.12509000000E+03  0.12509000000E+03 0.  0.
        -13    1    3    3    0    0  0.12599536674E+02 -0.57938332492E+00 -0.53196027895E+02  0.54670948019E+02  0.10566000000E+00 0.  1.
         23    2    1    0    0    0  0.20280843304E+02 -0.15281381887E+02 -0.16874868778E+02  0.94600748882E+02  0.89552818243E+02 0.  0.
         13    1    3    3    0    0  0.76813066301E+01 -0.14701998562E+02  0.36321159118E+02  0.39929800863E+02  0.10566000000E+00 0. -1.
         22    1    1    0    0    0 -0.20280843304E+02  0.15281381887E+02  0.16874868778E+02  0.30489251118E+02  0.00000000000E+00 0.  1.
</event>
<event>
 5    1  0.1261138E-009  0.9118800E+02  0.7561462E-02  0.1125453E+00
         25   -1    0    0    0    0  0.00000000000E+00  0.00000000000E+00  0.99999998245E-14  0.12509000000E+03  0.12509000000E+03 0.  0.
        -13    1    3    3    0    0  0.17510616429E+02 -0.11745631723E+02  0.27414482455E+02  0.34585351879E+02  0.10566000000E+00 0. -1.
         23    2    1    0    0    0 -0.59818791341E+01 -0.15129980932E+01 -0.28414065564E+02  0.96013701008E+02  0.91505189023E+02 0.  0.
         13    1    3    3    0    0 -0.23492495563E+02  0.10232633629E+02 -0.55828548019E+02  0.61428349129E+02  0.10566000000E+00 0.  1.
         22    1    1    0    0    0  0.59818791341E+01  0.15129980932E+01  0.28414065564E+02  0.29076298992E+02  0.00000000000E+00 0.  1.
</event>
<event>
 5    1  0.1261138E-009  0.9118800E+02  0.7561462E-02  0.1125453E+00
         25   -1    0    0    0    0  0.00000000000E+00  0.00000000000E+00  0.99999998245E-14  0.12509000000E+03  0.12509000000E+03 0.  0.
        -13    1    3    3    0    0  0.33221810097E+02  0.39341762207E+02 -0.65940475332E+01  0.51912961258E+02  0.10566000000E+00 0.  1.
         23    2    1    0    0    0  0.26535590451E+02  0.12789205660E+01 -0.18917930017E+02  0.92476179701E+02  0.86534285330E+02 0.  0.
         13    1    3    3    0    0 -0.66862196458E+01 -0.38062841641E+02 -0.12323882484E+02  0.40563218443E+02  0.10566000000E+00 0. -1.
         22    1    1    0    0    0 -0.26535590451E+02 -0.12789205660E+01  0.18917930017E+02  0.32613820299E+02  0.00000000000E+00 0. -1.
</event>
<event>
 5    1  0.1261138E-009  0.9118800E+02  0.7561462E-02  0.1125453E+00
         25   -1    0    0    0    0  0.00000000000E+00  0.00000000000E+00  0.99999998245E-14  0.12509000000E+03  0.12509000000E+03 0.  0.
        -13    1    3    3    0    0  0.18432629824E+02  0.35432579946E+02  0.15227166919E+02  0.42744676163E+02  0.10566000000E+00 0. -1.
         23    2    1    0    0    0  0.26078716278E+02 -0.13445873999E+02 -0.32806306372E+01  0.95566221318E+02  0.90891414057E+02 0.  0.
         13    1    3    3    0    0  0.76460864545E+01 -0.48878453945E+02 -0.18507797556E+02  0.52821545155E+02  0.10566000000E+00 0.  1.
         22    1    1    0    0    0 -0.26078716278E+02  0.13445873999E+02  0.32806306372E+01  0.29523778682E+02  0.00000000000E+00 0. -1.
</event>
<event>
 5    1  0.1261138E-009  0.9118800E+02  0.7561462E-02  0.1125453E+00
         25   -1    0    0    0    0  0.00000000000E+00  0.00000000000E+00  0.99999998245E-14  0.12509000000E+03  0.12509000000E+03 0.  0.
        -13    1    3    3    0    0 -0.41247472033E+01  0.28677920939E+02  0.27528464038E+02  0.39965787684E+02  0.10566000000E+00 0.  1.
         23    2    1    0    0    0  0.32394543727E+02 -0.21819689828E+01  0.77330011923E+01  0.91713859430E+02  0.85425202675E+02 0.  0.
         13    1    3    3    0    0  0.36519290930E+02 -0.30859889922E+02 -0.19795462846E+02  0.51748071745E+02  0.10566000000E+00 0. -1.
         22    1    1    0    0    0 -0.32394543727E+02  0.21819689828E+01 -0.77330011923E+01  0.33376140570E+02  0.00000000000E+00 0. -1.
</event>
<event>
 5    1  0.1261138E-009  0.9118800E+02  0.7561462E-02  0.1125453E+00
         25   -1    0    0    0    0  0.00000000000E+00  0.00000000000E+00  0.99999998245E-14  0.12509000000E+03  0.12509000000E+03 0.  0.
        -13    1    3    3    0    0  0.25753081541E+02 -0.28270019969E+02  0.42300075041E+02  0.57023878773E+02  0.10566000000E+00 0. -1.
         23    2    1    0    0    0  0.79011967895E+00 -0.27622360052E+02  0.16620590586E+02  0.92843091693E+02  0.87063060937E+02 0.  0.
         13    1    3    3    0    0 -0.24962961862E+02  0.64765991727E+00 -0.25679484455E+02  0.35819212920E+02  0.10566000000E+00 0.  1.
         22    1    1    0    0    0 -0.79011967895E+00  0.27622360052E+02 -0.16620590586E+02  0.32246908307E+02  0.00000000000E+00 0. -1.
</event>
<event>
 5    1  0.1261138E-009  0.9118800E+02  0.7561462E-02  0.1125453E+00
         25   -1    0    0    0    0  0.00000000000E+00  0.00000000000E+00  0.99999998245E-14  0.12509000000E+03  0.12509000000E+03 0.  0.
        -13    1    3    3    0    0 -0.49914834801E+02  0.82889243812E+01 -0.18478318889E+02  0.53867025475E+02  0.10566000000E+00 0.  1.
         23    2    1    0    0    0 -0.25010524305E+02 -0.18579414887E+02 -0.25052400406E+01  0.93833045395E+02  0.88473969035E+02 0.  0.
         13    1    3    3    0    0  0.24904310496E+02 -0.26868339268E+02  0.15973078848E+02  0.39966019919E+02  0.10566000000E+00 0. -1.
         22    1    1    0    0    0  0.25010524305E+02  0.18579414887E+02  0.25052400406E+01  0.31256954605E+02  0.00000000000E+00 0.  1.
</event>
<event>
 5    1  0.1261138E-009  0.9118800E+02  0.7561462E-02  0.1125453E+00
         25   -1    0    0    0    0  0.00000000000E+00  0.00000000000E+00  0.99999998245E-14  0.12509000000E+03  0.12509000000E+03 0.  0.
        -13    1    3    3    0    0 -0.10355216220E+02  0.36189188352E+02 -0.30224579347E+02  0.48274467550E+02  0.10566000000E+00 0.  1.
         23    2    1    0    0    0  0.15385726738E+02 -0.38807397199E+01 -0.24019315938E+02  0.96302706516E+02  0.91899417931E+02 0.  0.
         13    1    3    3    0    0  0.25740942959E+02 -0.40069928072E+02  0.62052634089E+01  0.48028238965E+02  0.10566000000E+00 0. -1.
         22    1    1    0    0    0 -0.15385726738E+02  0.38807397199E+01  0.24019315938E+02  0.28787293484E+02  0.00000000000E+00 0. -1.
</event>
<event>
 5    1  0.1261138E-009  0.9118800E+02  0.7561462E-02  0.1125453E+00
         25   -1    0    0    0    0  0.00000000000E+00  0.00000000000E+00  0.99999998245E-14  0.12509000000E+03  0.12509000000E+03 0.  0.
        -13    1    3    3    0    0  0.28644723856E+02  0.42116308516E+02  0.23279446678E+02  0.56002209326E+02  0.10566000000E+00 0.  1.
         23    2    1    0    0    0  0.12723224840E+02  0.53715723875E+01  0.25479193459E+02  0.96108565606E+02  0.91634779659E+02 0.  0.
         13    1    3    3    0    0 -0.15921499016E+02 -0.36744736128E+02  0.21997467810E+01  0.40106356279E+02  0.10566000000E+00 0. -1.
         22    1    1    0    0    0 -0.12723224840E+02 -0.53715723875E+01 -0.25479193459E+02  0.28981434394E+02  0.00000000000E+00 0.  1.
</event>
<event>
 4    1  0.1261138E-009  0.9118800E+02  0.7561462E-02  0.1125453E+00
         25   -1    0    0    0    0  0.00000000000E+00  0.00000000000E+00  0.99999998245E-14  0.12509000000E+03  0.12509000000E+03 0.  0.
        -13    1    1    0    0    0 -0.20272488242E+02  0.13750064586E+01  0.30815084917E+02  0.36911313235E+02  0.10566000000E+00 0.  1.
         13    1    1    0    0    0 -0.44612935663E+01  0.35406026848E+02 -0.29153469304E+01  0.35805031619E+02  0.10566000000E+00 0. -1.
         22    1    1    0    0    0  0.24733781808E+02 -0.36781033307E+02 -0.27899737986E+02  0.52373655146E+02  0.00000000000E+00 0.  1.
</event>
<event>
 5    1  0.1261138E-009  0.9118800E+02  0.7561462E-02  0.1125453E+00
         25   -1    0    0    0    0  0.00000000000E+00  0.00000000000E+00  0.99999998245E-14  0.12509000000E+03  0.12509000000E+03 0.  0.
        -13    1    3    3    0    0  0.45437532213E+02 -0.10093205994E+02 -0.32600762049E+02  0.56826604606E+02  0.10566000000E+00 0. -1.
         23    2    1    0    0    0  0.28342994382E+02 -0.95509364461E+01  0.16765620850E+01  0.95134089432E+02  0.90294730710E+02 0.  0.
         13    1    3    3    0    0 -0.17094537830E+02  0.54226954817E+00  0.34277324134E+02  0.38307484826E+02  0.10566000000E+00 0.  1.
         22    1    1    0    0    0 -0.28342994382E+02  0.95509364461E+01 -0.16765620850E+01  0.29955910568E+02  0.00000000000E+00 0. -1.
</event>
<event>
 5    1  0.1261138E-009  0.9118800E+02  0.7561462E-02  0.1125453E+00
         25   -1    0    0    0    0  0.00000000000E+00  0.00000000000E+00  0.99999998245E-14  0.12509000000E+03  0.12509000000E+03 0.  0.
        -13    1    3    3    0    0  0.13293274873E+02 -0.41603278519E+01  0.21492144824E+02  0.25611382974E+02  0.10566000000E+00 0.  1.
         23    2    1    0    0    0  0.27751398033E+02  0.28559800744E+02 -0.20109787037E+02  0.80478276810E+02  0.66981692964E+02 0.  0.
         13    1    3    3    0    0  0.14458123160E+02  0.32720128596E+02 -0.41601931861E+02  0.54866893836E+02  0.10566000000E+00 0. -1.
         22    1    1    0    0    0 -0.27751398033E+02 -0.28559800744E+02  0.20109787037E+02  0.44611723190E+02  0.00000000000E+00 0. -1.
</event>
<event>
 5    1  0.1261138E-009  0.9118800E+02  0.7561462E-02  0.1125453E+00
         25   -1    0    0    0    0  0.00000000000E+00  0.00000000000E+00  0.99999998245E-14  0.12509000000E+03  0.12509000000E+03 0.  0.
        -13    1    3    3    0    0 -0.22829880951E+02 -0.21358491149E+02  0.17038630144E+02  0.35604981247E+02  0.10566000000E+00 0.  1.
         23    2    1    0    0    0  0.94182034472E+01  0.25325585769E+02 -0.69239172999E+01  0.97196838087E+02  0.93108521912E+02 0.  0.
         13    1    3    3    0    0  0.32248084398E+02  0.46684076918E+02 -0.23962547444E+02  0.61591856840E+02  0.10566000000E+00 0. -1.
         22    1    1    0    0    0 -0.94182034472E+01 -0.25325585769E+02  0.69239172999E+01  0.27893161913E+02  0.00000000000E+00 0. -1.
</event>
<event>
 5    1  0.1261138E-009  0.9118800E+02  0.7561462E-02  0.1125453E+00
         25   -1    0    0    0    0  0.00000000000E+00  0.00000000000E+00  0.99999998245E-14  0.12509000000E+03  0.12509000000E+03 0.  0.
        -13    1    3    3    0    0 -0.52852815519E+02  0.26166748313E+02  0.14709387186E+02  0.60782366366E+02  0.10566000000E+00 0.  1.
         23    2    1    0    0    0 -0.24608698392E+02  0.58413998466E+01  0.15196735005E+02  0.95583208519E+02  0.90914789816E+02 0.  0.
         13    1    3    3    0    0  0.28244117128E+02 -0.20325348467E+02  0.48734781894E+00  0.34800842153E+02  0.10566000000E+00 0. -1.
         22    1    1    0    0    0  0.24608698392E+02 -0.58413998466E+01 -0.15196735005E+02  0.29506791481E+02  0.00000000000E+00 0.  1.
</event>
<event>
 5    1  0.1261138E-009  0.9118800E+02  0.7561462E-02  0.1125453E+00
         25   -1    0    0    0    0  0.00000000000E+00  0.00000000000E+00  0.99999998245E-14  0.12509000000E+03  0.12509000000E+03 0.  0.
        -13    1    3    3    0    0  0.34982942690E+02 -0.39859631806E+01 -0.16014802246E+02  0.38680476170E+02  0.10566000000E+00 0.  1.
         23    2    1    0    0    0 -0.17530490365E+02 -0.23074858860E+02 -0.39533704988E+01  0.95842840443E+02  0.91271319274E+02 0.  0.
         13    1    3    3    0    0 -0.52513433055E+02 -0.19088895680E+02  0.12061431748E+02  0.57162364273E+02  0.10566000000E+00 0. -1.
         22    1    1    0    0    0  0.17530490365E+02  0.23074858860E+02  0.39533704988E+01  0.29247159557E+02  0.00000000000E+00 0. -1.
</event>
<event>
 5    1  0.1261138E-009  0.9118800E+02  0.7561462E-02  0.1125453E+00
         25   -1    0    0    0    0  0.00000000000E+00  0.00000000000E+00  0.99999998245E-14  0.12509000000E+03  0.12509000000E+03 0.  0.
        -13    1    3    3    0    0  0.33554837218E+02  0.37613980242E+02 -0.30235648188E+02  0.58778773343E+02  0.10566000000E+00 0.  1.
         23    2    1    0    0    0  0.15620937646E+02  0.69655546755E+01 -0.25185220740E+02  0.94646150233E+02  0.89616213742E+02 0.  0.
         13    1    3    3    0    0 -0.17933899571E+02 -0.30648425567E+02  0.50504274477E+01  0.35867376890E+02  0.10566000000E+00 0. -1.
         22    1    1    0    0    0 -0.15620937646E+02 -0.69655546755E+01  0.25185220740E+02  0.30443849767E+02  0.00000000000E+00 0.  1.
</event>
<event>
 5    1  0.1261138E-009  0.9118800E+02  0.7561462E-02  0.1125453E+00
         25   -1    0    0    0    0  0.00000000000E+00  0.00000000000E+00  0.99999998245E-14  0.12509000000E+03  0.12509000000E+03 0.  0.
        -13    1    3    3    0    0  0.45752884516E+02 -0.41570109927E+02 -0.86943110819E+01  0.62425977687E+02  0.10566000000E+00 0. -1.
         23    2    1    0    0    0  0.22682964511E+02 -0.17075299670E+02 -0.32323241595E+01  0.96514999435E+02  0.92187930113E+02 0.  0.
         13    1    3    3    0    0 -0.23069920006E+02  0.24494810256E+02  0.54619869223E+01  0.34089021748E+02  0.10566000000E+00 0.  1.
         22    1    1    0    0    0 -0.22682964511E+02  0.17075299670E+02  0.32323241595E+01  0.28575000565E+02  0.00000000000E+00 0. -1.
</event>
<event>
 5    1  0.1261138E-009  0.9118800E+02  0.7561462E-02  0.1125453E+00
         25   -1    0    0    0    0  0.00000000000E+00  0.00000000000E+00  0.99999998245E-14  0.12509000000E+03  0.12509000000E+03 0.  0.
        -13    1    3    3    0    0  0.20148218930E+02  0.27093502477E+02  0.57299780299E+01  0.34246932925E+02  0.10566000000E+00 0. -1.
         23    2    1    0    0    0 -0.26804028294E+01 -0.29502819192E+02  0.12151696054E+01  0.95440758243E+02  0.90718580220E+02 0.  0.
         13    1    3    3    0    0 -0.22828621759E+02 -0.56596321669E+02 -0.45148084246E+01  0.61193825318E+02  0.10566000000E+00 0.  1.
         22    1    1    0    0    0  0.26804028294E+01  0.29502819192E+02 -0.12151696054E+01  0.29649241757E+02  0.00000000000E+00 0.  1.
</event>
<event>
 5    1  0.1261138E-009  0.9118800E+02  0.7561462E-02  0.1125453E+00
         25   -1    0    0    0    0  0.00000000000E+00  0.00000000000E+00  0.99999998245E-14  0.12509000000E+03  0.12509000000E+03 0.  0.
        -13    1    3    3    0    0 -0.11459549131E+00  0.14726027239E+02 -0.60278448747E+02  0.62051362255E+02  0.10566000000E+00 0. -1.
         23    2    1    0    0    0 -0.56052011348E+01  0.71190290579E+01 -0.28785935171E+02  0.94911714459E+02  0.89986135729E+02 0.  0.
         13    1    3    3    0    0 -0.54906056435E+01 -0.76069981809E+01  0.31492513575E+02  0.32860352204E+02  0.10566000000E+00 0.  1.
         22    1    1    0    0    0  0.56052011348E+01 -0.71190290579E+01  0.28785935171E+02  0.30178285541E+02  0.00000000000E+00 0. -1.
</event>
<event>
 5    1  0.1261138E-009  0.9118800E+02  0.7561462E-02  0.1125453E+00
         25   -1    0    0    0    0  0.00000000000E+00  0.00000000000E+00  0.99999998245E-14  0.12509000000E+03  0.12509000000E+03 0.  0.
        -13    1    3    3    0    0 -0.62245934124E+01 -0.45596192452E+02  0.22952231697E+02  0.51425425941E+02  0.10566000000E+00 0. -1.
         23    2    1    0    0    0 -0.25792875257E+02 -0.70862001968E+01  0.73964975503E+01  0.97337615900E+02  0.93297463233E+02 0.  0.
         13    1    3    3    0    0 -0.19568281845E+02  0.38509992256E+02 -0.15555734147E+02  0.45912189958E+02  0.10566000000E+00 0.  1.
         22    1    1    0    0    0  0.25792875257E+02  0.70862001968E+01 -0.73964975503E+01  0.27752384100E+02  0.00000000000E+00 0. -1.
</event>
<event>
 5    1  0.1261138E-009  0.9118800E+02  0.7561462E-02  0.1125453E+00
         25   -1    0    0    0    0  0.00000000000E+00  0.00000000000E+00  0.99999998245E-14  0.12509000000E+03  0.12509000000E+03 0.  0.
        -13    1    3    3    0    0  0.44814337876E+02 -0.18565607269E-01  0.23891891258E+02  0.50785419717E+02  0.10566000000E+00 0.  1.
         23    2    1    0    0    0  0.26021942847E+01  0.16529219081E+02  0.23641635197E+02  0.96125997975E+02  0.91658573376E+02 0.  0.
         13    1    3    3    0    0 -0.42212143591E+02  0.16547784689E+02 -0.25025606127E+00  0.45340578258E+02  0.10566000000E+00 0. -1.
         22    1    1    0    0    0 -0.26021942847E+01 -0.16529219081E+02 -0.23641635197E+02  0.28964002025E+02  0.00000000000E+00 0.  1.
</event>
<event>
 5    1  0.1261138E-009  0.9118800E+02  0.7561462E-02  0.1125453E+00
         25   -1    0    0    0    0  0.00000000000E+00  0.00000000000E+00  0.99999998245E-14  0.12509000000E+03  0.12509000000E+03 0.  0.
        -13    1    3    3    0    0  0.19169323850E+02  0.13744714805E+02 -0.24912469709E+02  0.34307761119E+02  0.10566000000E+00 0. -1.
         23    2    1    0    0    0 -0.23080046735E+02  0.61812373772E+01  0.18132657827E+02  0.95095174902E+02  0.90240804279E+02 0.  0.
         13    1    3    3    0    0 -0.42249370585E+02 -0.75634774282E+01  0.43045127537E+02  0.60787413782E+02  0.10566000000E+00 0.  1.
         22    1    1    0    0    0  0.23080046735E+02 -0.61812373772E+01 -0.18132657827E+02  0.29994825098E+02  0.00000000000E+00 0.  1.
</event>
<event>
 5    1  0.1261138E-009  0.9118800E+02  0.7561462E-02  0.1125453E+00
         25   -1    0    0    0    0  0.00000000000E+00  0.00000000000E+00  0.99999998245E-14  0.12509000000E+03  0.12509000000E+03 0.  0.
        -13    1    3    3    0    0  0.17116375841E+02 -0.38048252087E+02 -0.22995451183E+02  0.47638658125E+02  0.10566000000E+00 0.  1.
         23    2    1    0    0    0  0.29224177524E+02  0.27851352750E+01 -0.67074645448E+00  0.95725745688E+02  0.91110696168E+02 0.  0.
         13    1    3    3    0    0  0.12107801683E+02  0.40833387362E+02  0.22324704728E+02  0.48087087563E+02  0.10566000000E+00 0. -1.
         22    1    1    0    0    0 -0.29224177524E+02 -0.27851352750E+01  0.67074645448E+00  0.29364254312E+02  0.00000000000E+00 0.  1.
</event>
<event>
 5    1  0.1261138E-009  0.9118800E+02  0.7561462E-02  0.1125453E+00
         25   -1    0    0    0    0  0.00000000000E+00  0.00000000000E+00  0.99999998245E-14  0.12509000000E+03  0.12509000000E+03 0.  0.
        -13    1    3    3    0    0 -0.33294189474E+02 -0.11112183022E+02 -0.17175147761E+02  0.39076598226E+02  0.10566000000E+00 0. -1.
         23    2    1    0    0    0  0.18734826215E+02 -0.21711728789E+02  0.37894402258E+01  0.96163321353E+02  0.91709495889E+02 0.  0.
         13    1    3    3    0    0  0.52029015689E+02 -0.10599545767E+02  0.20964587986E+02  0.57086723128E+02  0.10566000000E+00 0.  1.
         22    1    1    0    0    0 -0.18734826215E+02  0.21711728789E+02 -0.37894402258E+01  0.28926678647E+02  0.00000000000E+00 0.  1.
</event>
<event>
 5    1  0.1261138E-009  0.9118800E+02  0.7561462E-02  0.1125453E+00
         25   -1    0    0    0    0  0.00000000000E+00  0.00000000000E+00  0.99999998245E-14  0.12509000000E+03  0.12509000000E+03 0.  0.
        -13    1    3    3    0    0  0.93831396760E+01  0.23272344385E+02  0.28102694438E+02  0.37675163199E+02  0.10566000000E+00 0. -1.
         23    2    1    0    0    0  0.18393952302E+01 -0.29036974391E+02  0.41498031527E+01  0.95700373892E+02  0.91075855419E+02 0.  0.
         13    1    3    3    0    0 -0.75437444458E+01 -0.52309318775E+02 -0.23952891285E+02  0.58025210693E+02  0.10566000000E+00 0.  1.
         22    1    1    0    0    0 -0.18393952302E+01  0.29036974391E+02 -0.41498031527E+01  0.29389626108E+02  0.00000000000E+00 0.  1.
</event>
<event>
 5    1  0.1261138E-009  0.9118800E+02  0.7561462E-02  0.1125453E+00
         25   -1    0    0    0    0  0.00000000000E+00  0.00000000000E+00  0.99999998245E-14  0.12509000000E+03  0.12509000000E+03 0.  0.
        -13    1    3    3    0    0 -0.44054021205E+01 -0.11617663189E+02 -0.33373468638E+02  0.35611476223E+02  0.10566000000E+00 0. -1.
         23    2    1    0    0    0  0.10877201693E+02 -0.97719873520E+01  0.25080420355E+02  0.96058418254E+02  0.91566298270E+02 0.  0.
         13    1    3    3    0    0  0.15282603814E+02  0.18456758366E+01  0.58453888992E+02  0.60446942032E+02  0.10566000000E+00 0.  1.
         22    1    1    0    0    0 -0.10877201693E+02  0.97719873520E+01 -0.25080420355E+02  0.29031581746E+02  0.00000000000E+00 0.  1.
</event>
<event>
 5    1  0.1261138E-009  0.9118800E+02  0.7561462E-02  0.1125453E+00
         25   -1    0    0    0    0  0.00000000000E+00  0.00000000000E+00  0.99999998245E-14  0.12509000000E+03  0.12509000000E+03 0.  0.
        -13    1    3    3    0    0  0.28982881795E+02 -0.19236166805E+02 -0.43830820340E+02  0.55957032858E+02  0.10566000000E+00 0.  1.
         23    2    1    0    0    0  0.27564385965E+02 -0.19156297931E+01 -0.71461800182E+01  0.96549977225E+02  0.92235379341E+02 0.  0.
         13    1    3    3    0    0 -0.14184958294E+01  0.17320537012E+02  0.36684640322E+02  0.40592944367E+02  0.10566000000E+00 0. -1.
         22    1    1    0    0    0 -0.27564385965E+02  0.19156297931E+01  0.71461800182E+01  0.28540022775E+02  0.00000000000E+00 0.  1.
</event>
<event>
 5    1  0.1261138E-009  0.9118800E+02  0.7561462E-02  0.1125453E+00
         25   -1    0    0    0    0  0.00000000000E+00  0.00000000000E+00  0.99999998245E-14  0.12509000000E+03  0.12509000000E+03 0.  0.
        -13    1    3    3    0    0 -0.42833399521E+02  0.58296067013E+00  0.11892195728E+02  0.44457568995E+02  0.10566000000E+00 0. -1.
         23    2    1    0    0    0 -0.56926488522E+01 -0.20090101933E+02 -0.18884256483E+02  0.96936250879E+02  0.92757765955E+02 0.  0.
         13    1    3    3    0    0  0.37140750669E+02 -0.20673062604E+02 -0.30776452210E+02  0.52478681885E+02  0.10566000000E+00 0.  1.
         22    1    1    0    0    0  0.56926488522E+01  0.20090101933E+02  0.18884256483E+02  0.28153749121E+02  0.00000000000E+00 0.  1.
</event>
<event>
 5    1  0.1261138E-009  0.9118800E+02  0.7561462E-02  0.1125453E+00
         25   -1    0    0    0    0  0.00000000000E+00  0.00000000000E+00  0.99999998245E-14  0.12509000000E+03  0.12509000000E+03 0.  0.
        -13    1    3    3    0    0  0.60517024157E+02  0.31677138715E+01  0.81973035948E+00  0.60605509204E+02  0.10566000000E+00 0.  1.
         23    2    1    0    0    0  0.29518345916E+02  0.66072144635E+01  0.10188691083E+02  0.93171393286E+02  0.87533485434E+02 0.  0.
         13    1    3    3    0    0 -0.30998678240E+02  0.34395005920E+01  0.93689607236E+01  0.32565884082E+02  0.10566000000E+00 0. -1.
         22    1    1    0    0    0 -0.29518345916E+02 -0.66072144635E+01 -0.10188691083E+02  0.31918606714E+02  0.00000000000E+00 0.  1.
</event>
<event>
 5    1  0.1261138E-009  0.9118800E+02  0.7561462E-02  0.1125453E+00
         25   -1    0    0    0    0  0.00000000000E+00  0.00000000000E+00  0.99999998245E-14  0.12509000000E+03  0.12509000000E+03 0.  0.
        -13    1    3    3    0    0 -0.11826690570E+02 -0.32428032954E+02 -0.32689139100E+02  0.47539866536E+02  0.10566000000E+00 0. -1.
         23    2    1    0    0    0 -0.50890025236E+01  0.14911828785E+02 -0.24362299872E+02  0.96076516247E+02  0.91591018854E+02 0.  0.
         13    1    3    3    0    0  0.67376880462E+01  0.47339861739E+02  0.83268392281E+01  0.48536649712E+02  0.10566000000E+00 0.  1.
         22    1    1    0    0    0  0.50890025236E+01 -0.14911828785E+02  0.24362299872E+02  0.29013483753E+02  0.00000000000E+00 0.  1.
</event>
<event>
 5    1  0.1261138E-009  0.9118800E+02  0.7561462E-02  0.1125453E+00
         25   -1    0    0    0    0  0.00000000000E+00  0.00000000000E+00  0.99999998245E-14  0.12509000000E+03  0.12509000000E+03 0.  0.
        -13    1    3    3    0    0  0.14555252830E+00  0.48361241095E+02 -0.17023053904E+02  0.51270131207E+02  0.10566000000E+00 0. -1.
         23    2    1    0    0    0  0.24233070516E+02  0.15052053465E+02  0.18518272628E+01  0.96502672662E+02  0.92171202371E+02 0.  0.
         13    1    3    3    0    0  0.24087517987E+02 -0.33309187630E+02  0.18874881167E+02  0.45232541455E+02  0.10566000000E+00 0.  1.
         22    1    1    0    0    0 -0.24233070516E+02 -0.15052053465E+02 -0.18518272628E+01  0.28587327338E+02  0.00000000000E+00 0. -1.
</event>
<event>
 5    1  0.1261138E-009  0.9118800E+02  0.7561462E-02  0.1125453E+00
         25   -1    0    0    0    0  0.00000000000E+00  0.00000000000E+00  0.99999998245E-14  0.12509000000E+03  0.12509000000E+03 0.  0.
        -13    1    3    3    0    0 -0.51908622411E+02  0.18504253083E+01  0.22658394199E+02  0.56668713997E+02  0.10566000000E+00 0. -1.
         23    2    1    0    0    0 -0.30881640233E+02  0.92920904126E-02 -0.73391569483E+01  0.93348244936E+02  0.87785852038E+02 0.  0.
         13    1    3    3    0    0  0.21026982178E+02 -0.18411332179E+01 -0.29997551147E+02  0.36679530939E+02  0.10566000000E+00 0.  1.
         22    1    1    0    0    0  0.30881640233E+02 -0.92920904126E-02  0.73391569483E+01  0.31741755064E+02  0.00000000000E+00 0. -1.
</event>
<event>
 5    1  0.1261138E-009  0.9118800E+02  0.7561462E-02  0.1125453E+00
         25   -1    0    0    0    0  0.00000000000E+00  0.00000000000E+00  0.99999998245E-14  0.12509000000E+03  0.12509000000E+03 0.  0.
        -13    1    3    3    0    0  0.22656257908E+02 -0.27778258908E+02  0.14665630462E+02  0.38730215224E+02  0.10566000000E+00 0. -1.
         23    2    1    0    0    0 -0.28695264629E+02 -0.60115634002E+01  0.43404323527E+01  0.95452246042E+02  0.90734419130E+02 0.  0.
         13    1    3    3    0    0 -0.51351522537E+02  0.21766695508E+02 -0.10325198110E+02  0.56722030819E+02  0.10566000000E+00 0.  1.
         22    1    1    0    0    0  0.28695264629E+02  0.60115634002E+01 -0.43404323527E+01  0.29637753958E+02  0.00000000000E+00 0.  1.
</event>
<event>
 5    1  0.1261138E-009  0.9118800E+02  0.7561462E-02  0.1125453E+00
         25   -1    0    0    0    0  0.00000000000E+00  0.00000000000E+00  0.99999998245E-14  0.12509000000E+03  0.12509000000E+03 0.  0.
        -13    1    3    3    0    0  0.19689942391E+02 -0.78863204524E+01  0.29979891845E+02  0.36724555283E+02  0.10566000000E+00 0. -1.
         23    2    1    0    0    0  0.11462995830E+02  0.27277791481E+01 -0.27193178834E+02  0.95453704220E+02  0.90736429408E+02 0.  0.
         13    1    3    3    0    0 -0.82269465611E+01  0.10614099600E+02 -0.57173070679E+02  0.58729148937E+02  0.10566000000E+00 0.  1.
         22    1    1    0    0    0 -0.11462995830E+02 -0.27277791481E+01  0.27193178834E+02  0.29636295780E+02  0.00000000000E+00 0.  1.
</event>
<event>
 5    1  0.1261138E-009  0.9118800E+02  0.7561462E-02  0.1125453E+00
         25   -1    0    0    0    0  0.00000000000E+00  0.00000000000E+00  0.99999998245E-14  0.12509000000E+03  0.12509000000E+03 0.  0.
        -13    1    3    3    0    0  0.39823966925E+02 -0.66472162122E+01 -0.33172484133E+01  0.40511098802E+02  0.10566000000E+00 0.  1.
         23    2    1    0    0    0 -0.33713123401E+01  0.23364901054E+02 -0.18321521394E+02  0.95207521951E+02  0.90396403367E+02 0.  0.
         13    1    3    3    0    0 -0.43195279265E+02  0.30012117267E+02 -0.15004272980E+02  0.54696423149E+02  0.10566000000E+00 0. -1.
         22    1    1    0    0    0  0.33713123401E+01 -0.23364901054E+02  0.18321521394E+02  0.29882478049E+02  0.00000000000E+00 0. -1.
</event>
<event>
 5    1  0.1261138E-009  0.9118800E+02  0.7561462E-02  0.1125453E+00
         25   -1    0    0    0    0  0.00000000000E+00  0.00000000000E+00  0.99999998245E-14  0.12509000000E+03  0.12509000000E+03 0.  0.
        -13    1    3    3    0    0 -0.30768671976E+02  0.59782854066E+01 -0.24441277593E+02  0.39747179598E+02  0.10566000000E+00 0. -1.
         23    2    1    0    0    0  0.23634987625E+02 -0.56766405192E+01 -0.15918320854E+02  0.96034366700E+02  0.91533435209E+02 0.  0.
         13    1    3    3    0    0  0.54403659601E+02 -0.11654925926E+02  0.85229567388E+01  0.56287187103E+02  0.10566000000E+00 0.  1.
         22    1    1    0    0    0 -0.23634987625E+02  0.56766405192E+01  0.15918320854E+02  0.29055633300E+02  0.00000000000E+00 0.  1.
</event>
<event>
 5    1  0.1261138E-009  0.9118800E+02  0.7561462E-02  0.1125453E+00
         25   -1    0    0    0    0  0.00000000000E+00  0.00000000000E+00  0.99999998245E-14  0.12509000000E+03  0.12509000000E+03 0.  0.
        -13    1    3    3    0    0 -0.73606295672E+01 -0.24625708729E+02  0.20485340793E+02  0.32867381239E+02  0.10566000000E+00 0.  1.
         23    2    1    0    0    0 -0.13947154555E+02  0.22394912186E+02 -0.17294458789E+02  0.93543946098E+02  0.88064273884E+02 0.  0.
         13    1    3    3    0    0 -0.65865249880E+01  0.47020620915E+02 -0.37779799582E+02  0.60676564859E+02  0.10566000000E+00 0. -1.
         22    1    1    0    0    0  0.13947154555E+02 -0.22394912186E+02  0.17294458789E+02  0.31546053902E+02  0.00000000000E+00 0. -1.
</event>
<event>
 5    1  0.1261138E-009  0.9118800E+02  0.7561462E-02  0.1125453E+00
         25   -1    0    0    0    0  0.00000000000E+00  0.00000000000E+00  0.99999998245E-14  0.12509000000E+03  0.12509000000E+03 0.  0.
        -13    1    3    3    0    0  0.12745569719E+02  0.12225365727E+02 -0.46010681224E+02  0.49283902700E+02  0.10566000000E+00 0. -1.
         23    2    1    0    0    0 -0.12096272590E+02  0.10018703574E+02  0.70197736667E+01  0.10788617908E+03  0.10650566268E+03 0.  0.
         13    1    3    3    0    0 -0.24841842309E+02 -0.22066621528E+01  0.53030454891E+02  0.58602276381E+02  0.10566000000E+00 0.  1.
         22    1    1    0    0    0  0.12096272590E+02 -0.10018703574E+02 -0.70197736667E+01  0.17203820919E+02  0.00000000000E+00 0.  1.
</event>
<event>
 5    1  0.1261138E-009  0.9118800E+02  0.7561462E-02  0.1125453E+00
         25   -1    0    0    0    0  0.00000000000E+00  0.00000000000E+00  0.99999998245E-14  0.12509000000E+03  0.12509000000E+03 0.  0.
        -13    1    3    3    0    0  0.17295638893E+02 -0.37870188153E+02 -0.23518213619E+02  0.47816396887E+02  0.10566000000E+00 0. -1.
         23    2    1    0    0    0 -0.80486621393E+01  0.48929820282E+01 -0.25846779764E+02  0.97580396958E+02  0.93622409770E+02 0.  0.
         13    1    3    3    0    0 -0.25344301032E+02  0.42763170181E+02 -0.23285661450E+01  0.49764000071E+02  0.10566000000E+00 0.  1.
         22    1    1    0    0    0  0.80486621393E+01 -0.48929820282E+01  0.25846779764E+02  0.27509603042E+02  0.00000000000E+00 0.  1.
</event>
<event>
 5    1  0.1261138E-009  0.9118800E+02  0.7561462E-02  0.1125453E+00
         25   -1    0    0    0    0  0.00000000000E+00  0.00000000000E+00  0.99999998245E-14  0.12509000000E+03  0.12509000000E+03 0.  0.
        -13    1    3    3    0    0 -0.10279465429E+02  0.32630767627E+02 -0.21867274944E+01  0.34281589032E+02  0.10566000000E+00 0. -1.
         23    2    1    0    0    0 -0.13581795243E+02 -0.26478184628E+02  0.78170235016E+01  0.94322073848E+02  0.89162707089E+02 0.  0.
         13    1    3    3    0    0 -0.33023298142E+01 -0.59108952255E+02  0.10003750996E+02  0.60040484816E+02  0.10566000000E+00 0.  1.
         22    1    1    0    0    0  0.13581795243E+02  0.26478184628E+02 -0.78170235016E+01  0.30767926152E+02  0.00000000000E+00 0.  1.
</event>
<event>
 5    1  0.1261138E-009  0.9118800E+02  0.7561462E-02  0.1125453E+00
         25   -1    0    0    0    0  0.00000000000E+00  0.00000000000E+00  0.99999998245E-14  0.12509000000E+03  0.12509000000E+03 0.  0.
        -13    1    3    3    0    0  0.22230909928E+02  0.40625440019E+01  0.24030455857E+02  0.32987749131E+02  0.10566000000E+00 0. -1.
         23    2    1    0    0    0 -0.26587196533E+02 -0.64158712557E+01 -0.12662582361E+02  0.94950600280E+02  0.90040174800E+02 0.  0.
         13    1    3    3    0    0 -0.48818106461E+02 -0.10478415258E+02 -0.36693038218E+02  0.61962851149E+02  0.10566000000E+00 0.  1.
         22    1    1    0    0    0  0.26587196533E+02  0.64158712557E+01  0.12662582361E+02  0.30139399720E+02  0.00000000000E+00 0.  1.
</event>
<event>
 5    1  0.1261138E-009  0.9118800E+02  0.7561462E-02  0.1125453E+00
         25   -1    0    0    0    0  0.00000000000E+00  0.00000000000E+00  0.99999998245E-14  0.12509000000E+03  0.12509000000E+03 0.  0.
        -13    1    3    3    0    0 -0.17926411446E+02 -0.38830137939E+02  0.10941001985E+02  0.44145809860E+02  0.10566000000E+00 0.  1.
         23    2    1    0    0    0 -0.28565154411E+02  0.98954463316E+01  0.60632187528E+01  0.94257378861E+02  0.89071897608E+02 0.  0.
         13    1    3    3    0    0 -0.10638742965E+02  0.48725584271E+02 -0.48777832320E+01  0.50111569001E+02  0.10566000000E+00 0. -1.
         22    1    1    0    0    0  0.28565154411E+02 -0.98954463316E+01 -0.60632187528E+01  0.30832621139E+02  0.00000000000E+00 0. -1.
</event>
<event>
 5    1  0.1261138E-009  0.9118800E+02  0.7561462E-02  0.1125453E+00
         25   -1    0    0    0    0  0.00000000000E+00  0.00000000000E+00  0.99999998245E-14  0.12509000000E+03  0.12509000000E+03 0.  0.
        -13    1    3    3    0    0 -0.15817044503E+02  0.29689830862E+02 -0.36511411377E+02  0.49646342043E+02  0.10566000000E+00 0. -1.
         23    2    1    0    0    0  0.18614713186E+02  0.25146334806E+02 -0.17677795635E+02  0.89154639146E+02  0.81591663309E+02 0.  0.
         13    1    3    3    0    0  0.34431757690E+02 -0.45434960556E+01  0.18833615742E+02  0.39508297103E+02  0.10566000000E+00 0.  1.
         22    1    1    0    0    0 -0.18614713186E+02 -0.25146334806E+02  0.17677795635E+02  0.35935360854E+02  0.00000000000E+00 0. -1.
</event>
<event>
 5    1  0.1261138E-009  0.9118800E+02  0.7561462E-02  0.1125453E+00
         25   -1    0    0    0    0  0.00000000000E+00  0.00000000000E+00  0.99999998245E-14  0.12509000000E+03  0.12509000000E+03 0.  0.
        -13    1    3    3    0    0 -0.30447692328E+02  0.22541393852E+02  0.15570633774E+02  0.40958908739E+02  0.10566000000E+00 0.  1.
         23    2    1    0    0    0 -0.69617232261E+01 -0.26163457171E+02  0.12908665046E+02  0.95096238737E+02  0.90242278934E+02 0.  0.
         13    1    3    3    0    0  0.23485969102E+02 -0.48704851023E+02 -0.26619687279E+01  0.54137329998E+02  0.10566000000E+00 0. -1.
         22    1    1    0    0    0  0.69617232261E+01  0.26163457171E+02 -0.12908665046E+02  0.29993761263E+02  0.00000000000E+00 0.  1.
</event>
<event>
 5    1  0.1261138E-009  0.9118800E+02  0.7561462E-02  0.1125453E+00
         25   -1    0    0    0    0  0.00000000000E+00  0.00000000000E+00  0.99999998245E-14  0.12509000000E+03  0.12509000000E+03 0.  0.
        -13    1    3    3    0    0  0.55222044044E+02  0.64134029590E+01  0.24277358158E+02  0.60663062641E+02  0.10566000000E+00 0. -1.
         23    2    1    0    0    0  0.29620419810E+02 -0.64056959679E+01  0.74169080656E+01  0.93890436929E+02  0.88555075579E+02 0.  0.
         13    1    3    3    0    0 -0.25601624233E+02 -0.12819098927E+02 -0.16860450092E+02  0.33227374287E+02  0.10566000000E+00 0.  1.
         22    1    1    0    0    0 -0.29620419810E+02  0.64056959679E+01 -0.74169080656E+01  0.31199563071E+02  0.00000000000E+00 0. -1.
</event>
<event>
 5    1  0.1261138E-009  0.9118800E+02  0.7561462E-02  0.1125453E+00
         25   -1    0    0    0    0  0.00000000000E+00  0.00000000000E+00  0.99999998245E-14  0.12509000000E+03  0.12509000000E+03 0.  0.
        -13    1    3    3    0    0 -0.13756514990E+02  0.35368976742E+02 -0.51171584811E+01  0.38293637792E+02  0.10566000000E+00 0.  1.
         23    2    1    0    0    0  0.30523452074E+02  0.91917576619E+00 -0.22656291203E+01  0.94468780464E+02  0.89368290777E+02 0.  0.
         13    1    3    3    0    0  0.44279967064E+02 -0.34449800975E+02  0.28515293609E+01  0.56175142671E+02  0.10566000000E+00 0. -1.
         22    1    1    0    0    0 -0.30523452074E+02 -0.91917576619E+00  0.22656291203E+01  0.30621219536E+02  0.00000000000E+00 0. -1.
</event>
<event>
 5    1  0.1261138E-009  0.9118800E+02  0.7561462E-02  0.1125453E+00
         25   -1    0    0    0    0  0.00000000000E+00  0.00000000000E+00  0.99999998245E-14  0.12509000000E+03  0.12509000000E+03 0.  0.
        -13    1    3    3    0    0  0.69244180411E+01 -0.40518427210E+02 -0.42124711182E+02  0.58857395160E+02  0.10566000000E+00 0. -1.
         23    2    1    0    0    0  0.17278520157E+02 -0.20289319437E+02 -0.14093500151E+02  0.94943184438E+02  0.90029871613E+02 0.  0.
         13    1    3    3    0    0  0.10354102116E+02  0.20229107773E+02  0.28031211032E+02  0.36085789278E+02  0.10566000000E+00 0.  1.
         22    1    1    0    0    0 -0.17278520157E+02  0.20289319437E+02  0.14093500151E+02  0.30146815562E+02  0.00000000000E+00 0. -1.
</event>
<event>
 5    1  0.1261138E-009  0.9118800E+02  0.7561462E-02  0.1125453E+00
         25   -1    0    0    0    0  0.00000000000E+00  0.00000000000E+00  0.99999998245E-14  0.12509000000E+03  0.12509000000E+03 0.  0.
        -13    1    3    3    0    0  0.37603258062E+02  0.74183962475E+01 -0.10513299617E+02  0.39743908372E+02  0.10566000000E+00 0.  1.
         23    2    1    0    0    0 -0.39605338742E+01  0.10900064154E+02  0.26913835924E+02  0.95783826737E+02  0.91190403405E+02 0.  0.
         13    1    3    3    0    0 -0.41563791937E+02  0.34816679065E+01  0.37427135541E+02  0.56039918366E+02  0.10566000000E+00 0. -1.
         22    1    1    0    0    0  0.39605338742E+01 -0.10900064154E+02 -0.26913835924E+02  0.29306173263E+02  0.00000000000E+00 0. -1.
</event>
<event>
 5    1  0.1261138E-009  0.9118800E+02  0.7561462E-02  0.1125453E+00
         25   -1    0    0    0    0  0.00000000000E+00  0.00000000000E+00  0.99999998245E-14  0.12509000000E+03  0.12509000000E+03 0.  0.
        -13    1    3    3    0    0  0.36737649029E+02 -0.44368171423E+02  0.15408483223E+02  0.59629036642E+02  0.10566000000E+00 0.  1.
         23    2    1    0    0    0  0.26599038016E+02 -0.11343956337E+02  0.47208503133E+01  0.95790160471E+02  0.91199091260E+02 0.  0.
         13    1    3    3    0    0 -0.10138611013E+02  0.33024215086E+02 -0.10687632909E+02  0.36161123829E+02  0.10566000000E+00 0. -1.
         22    1    1    0    0    0 -0.26599038016E+02  0.11343956337E+02 -0.47208503133E+01  0.29299839529E+02  0.00000000000E+00 0.  1.
</event>
<event>
 5    1  0.1261138E-009  0.9118800E+02  0.7561462E-02  0.1125453E+00
         25   -1    0    0    0    0  0.00000000000E+00  0.00000000000E+00  0.99999998245E-14  0.12509000000E+03  0.12509000000E+03 0.  0.
        -13    1    3    3    0    0 -0.33615589690E+02  0.31586549378E+02  0.27987392212E+02  0.53953899384E+02  0.10566000000E+00 0.  1.
         23    2    1    0    0    0 -0.28860914229E+02 -0.43059279438E+01  0.11796060834E+02  0.93615558992E+02  0.88165937009E+02 0.  0.
         13    1    3    3    0    0  0.47546754611E+01 -0.35892477322E+02 -0.16191331378E+02  0.39661659608E+02  0.10566000000E+00 0. -1.
         22    1    1    0    0    0  0.28860914229E+02  0.43059279438E+01 -0.11796060834E+02  0.31474441008E+02  0.00000000000E+00 0.  1.
</event>
<event>
 5    1  0.1261138E-009  0.9118800E+02  0.7561462E-02  0.1125453E+00
         25   -1    0    0    0    0  0.00000000000E+00  0.00000000000E+00  0.99999998245E-14  0.12509000000E+03  0.12509000000E+03 0.  0.
        -13    1    3    3    0    0  0.89923568354E+01 -0.56942738815E+02 -0.22562491677E+02  0.61906503534E+02  0.10566000000E+00 0.  1.
         23    2    1    0    0    0  0.10355878439E+02 -0.25917713943E+02 -0.93506479190E+01  0.95655212235E+02  0.91013806079E+02 0.  0.
         13    1    3    3    0    0  0.13635216031E+01  0.31025024872E+02  0.13211843758E+02  0.33748708701E+02  0.10566000000E+00 0. -1.
         22    1    1    0    0    0 -0.10355878439E+02  0.25917713943E+02  0.93506479190E+01  0.29434787765E+02  0.00000000000E+00 0.  1.
</event>
<event>
 5    1  0.1261138E-009  0.9118800E+02  0.7561462E-02  0.1125453E+00
         25   -1    0    0    0    0  0.00000000000E+00  0.00000000000E+00  0.99999998245E-14  0.12509000000E+03  0.12509000000E+03 0.  0.
        -13    1    3    3    0    0 -0.29670421039E+01  0.51808689689E+02 -0.14804258528E+02  0.53964070461E+02  0.10566000000E+00 0.  1.
         23    2    1    0    0    0  0.21455326224E+02  0.18950967144E+02 -0.58491265293E+01  0.95872155107E+02  0.91311487035E+02 0.  0.
         13    1    3    3    0    0  0.24422368327E+02 -0.32857722545E+02  0.89551319984E+01  0.41908084646E+02  0.10566000000E+00 0. -1.
         22    1    1    0    0    0 -0.21455326224E+02 -0.18950967144E+02  0.58491265293E+01  0.29217844893E+02  0.00000000000E+00 0. -1.
</event>
<event>
 5    1  0.1261138E-009  0.9118800E+02  0.7561462E-02  0.1125453E+00
         25   -1    0    0    0    0  0.00000000000E+00  0.00000000000E+00  0.99999998245E-14  0.12509000000E+03  0.12509000000E+03 0.  0.
        -13    1    3    3    0    0 -0.31622696953E+02 -0.72370990437E+01 -0.42332823644E+02  0.53333382481E+02  0.10566000000E+00 0.  1.
         23    2    1    0    0    0 -0.35690240070E+01 -0.24573316461E+02 -0.15820756798E+02  0.95647137368E+02  0.91002707250E+02 0.  0.
         13    1    3    3    0    0  0.28053672947E+02 -0.17336217418E+02  0.26512066846E+02  0.42313754887E+02  0.10566000000E+00 0. -1.
         22    1    1    0    0    0  0.35690240070E+01  0.24573316461E+02  0.15820756798E+02  0.29442862632E+02  0.00000000000E+00 0. -1.
</event>
<event>
 5    1  0.1261138E-009  0.9118800E+02  0.7561462E-02  0.1125453E+00
         25   -1    0    0    0    0  0.00000000000E+00  0.00000000000E+00  0.99999998245E-14  0.12509000000E+03  0.12509000000E+03 0.  0.
        -13    1    3    3    0    0  0.36382916640E+01 -0.29837779364E+01  0.36157731934E+02  0.36462759628E+02  0.10566000000E+00 0.  1.
         23    2    1    0    0    0 -0.93978046526E+01  0.13152557273E+02 -0.21759563097E+02  0.97983043673E+02  0.94158853891E+02 0.  0.
         13    1    3    3    0    0 -0.13036096317E+02  0.16136335210E+02 -0.57917295032E+02  0.61520284045E+02  0.10566000000E+00 0. -1.
         22    1    1    0    0    0  0.93978046526E+01 -0.13152557273E+02  0.21759563097E+02  0.27106956327E+02  0.00000000000E+00 0. -1.
</event>
<event>
 5    1  0.1261138E-009  0.9118800E+02  0.7561462E-02  0.1125453E+00
         25   -1    0    0    0    0  0.00000000000E+00  0.00000000000E+00  0.99999998245E-14  0.12509000000E+03  0.12509000000E+03 0.  0.
        -13    1    3    3    0    0 -0.48460419640E+02 -0.29991298875E+02 -0.14706549138E+01  0.57009334936E+02  0.10566000000E+00 0. -1.
         23    2    1    0    0    0 -0.78156890922E+01 -0.26083845141E+02 -0.28033896406E+00  0.97858941202E+02  0.93993839212E+02 0.  0.
         13    1    3    3    0    0  0.40644730548E+02  0.39074537333E+01  0.11903159497E+01  0.40849606266E+02  0.10566000000E+00 0.  1.
         22    1    1    0    0    0  0.78156890922E+01  0.26083845141E+02  0.28033896406E+00  0.27231058798E+02  0.00000000000E+00 0. -1.
</event>
<event>
 5    1  0.1261138E-009  0.9118800E+02  0.7561462E-02  0.1125453E+00
         25   -1    0    0    0    0  0.00000000000E+00  0.00000000000E+00  0.99999998245E-14  0.12509000000E+03  0.12509000000E+03 0.  0.
        -13    1    3    3    0    0  0.41418542611E+02 -0.26650255591E+02  0.88401426060E+01  0.50038895676E+02  0.10566000000E+00 0.  1.
         23    2    1    0    0    0  0.50957704137E+01 -0.31258295117E+02 -0.10850601289E+02  0.91611896140E+02  0.85275764882E+02 0.  0.
         13    1    3    3    0    0 -0.36322772198E+02 -0.46080395266E+01 -0.19690743895E+02  0.41573000464E+02  0.10566000000E+00 0. -1.
         22    1    1    0    0    0 -0.50957704137E+01  0.31258295117E+02  0.10850601289E+02  0.33478103860E+02  0.00000000000E+00 0.  1.
</event>
<event>
 5    1  0.1261138E-009  0.9118800E+02  0.7561462E-02  0.1125453E+00
         25   -1    0    0    0    0  0.00000000000E+00  0.00000000000E+00  0.99999998245E-14  0.12509000000E+03  0.12509000000E+03 0.  0.
        -13    1    3    3    0    0 -0.14004243249E+02 -0.38025320956E+02 -0.86112390540E+01  0.41427146473E+02  0.10566000000E+00 0.  1.
         23    2    1    0    0    0 -0.20970610459E+02  0.17028149137E+02 -0.79772253594E+01  0.96923344350E+02  0.92740359011E+02 0.  0.
         13    1    3    3    0    0 -0.69663672097E+01  0.55053470093E+02  0.63401369463E+00  0.55496197877E+02  0.10566000000E+00 0. -1.
         22    1    1    0    0    0  0.20970610459E+02 -0.17028149137E+02  0.79772253594E+01  0.28166655650E+02  0.00000000000E+00 0. -1.
</event>
<event>
 5    1  0.1261138E-009  0.9118800E+02  0.7561462E-02  0.1125453E+00
         25   -1    0    0    0    0  0.00000000000E+00  0.00000000000E+00  0.99999998245E-14  0.12509000000E+03  0.12509000000E+03 0.  0.
        -13    1    3    3    0    0 -0.16696832479E+02 -0.36962328789E+02 -0.34495073556E+02  0.53243959545E+02  0.10566000000E+00 0.  1.
         23    2    1    0    0    0  0.16726987053E+02 -0.17026189207E+02 -0.16168614206E+02  0.96261068349E+02  0.91842724152E+02 0.  0.
         13    1    3    3    0    0  0.33423819532E+02  0.19936139583E+02  0.18326459350E+02  0.43017108805E+02  0.10566000000E+00 0. -1.
         22    1    1    0    0    0 -0.16726987053E+02  0.17026189207E+02  0.16168614206E+02  0.28828931651E+02  0.00000000000E+00 0.  1.
</event>
<event>
 5    1  0.1261138E-009  0.9118800E+02  0.7561462E-02  0.1125453E+00
         25   -1    0    0    0    0  0.00000000000E+00  0.00000000000E+00  0.99999998245E-14  0.12509000000E+03  0.12509000000E+03 0.  0.
        -13    1    3    3    0    0 -0.21724617369E+02  0.28013359497E+02  0.19551402697E+02  0.40484266346E+02  0.10566000000E+00 0.  1.
         23    2    1    0    0    0  0.25702079616E+02  0.16800845047E+02  0.18523594301E+02  0.89229313493E+02  0.81706068011E+02 0.  0.
         13    1    3    3    0    0  0.47426696985E+02 -0.11212514451E+02 -0.10278083958E+01  0.48745047147E+02  0.10566000000E+00 0. -1.
         22    1    1    0    0    0 -0.25702079616E+02 -0.16800845047E+02 -0.18523594301E+02  0.35860686507E+02  0.00000000000E+00 0. -1.
</event>
<event>
 5    1  0.1261138E-009  0.9118800E+02  0.7561462E-02  0.1125453E+00
         25   -1    0    0    0    0  0.00000000000E+00  0.00000000000E+00  0.99999998245E-14  0.12509000000E+03  0.12509000000E+03 0.  0.
        -13    1    3    3    0    0  0.26978844289E+02  0.17811163672E+02 -0.39707618980E+02  0.51203532687E+02  0.10566000000E+00 0. -1.
         23    2    1    0    0    0  0.27988721016E+02  0.62159254621E+01  0.37337716286E+01  0.96177247034E+02  0.91728488285E+02 0.  0.
         13    1    3    3    0    0  0.10098767270E+01 -0.11595238210E+02  0.43441390609E+02  0.44973714347E+02  0.10566000000E+00 0.  1.
         22    1    1    0    0    0 -0.27988721016E+02 -0.62159254621E+01 -0.37337716286E+01  0.28912752966E+02  0.00000000000E+00 0.  1.
</event>
<event>
 5    1  0.1261138E-009  0.9118800E+02  0.7561462E-02  0.1125453E+00
         25   -1    0    0    0    0  0.00000000000E+00  0.00000000000E+00  0.99999998245E-14  0.12509000000E+03  0.12509000000E+03 0.  0.
        -13    1    3    3    0    0  0.10102551028E+02 -0.98760162062E+01 -0.38854179679E+02  0.41343145453E+02  0.10566000000E+00 0. -1.
         23    2    1    0    0    0  0.11049645061E+02 -0.24179529300E+02  0.13252124514E+02  0.95385402758E+02  0.90642219534E+02 0.  0.
         13    1    3    3    0    0  0.94709403239E+00 -0.14303513094E+02  0.52106304193E+02  0.54042257305E+02  0.10566000000E+00 0.  1.
         22    1    1    0    0    0 -0.11049645061E+02  0.24179529300E+02 -0.13252124514E+02  0.29704597242E+02  0.00000000000E+00 0.  1.
</event>
<event>
 5    1  0.1261138E-009  0.9118800E+02  0.7561462E-02  0.1125453E+00
         25   -1    0    0    0    0  0.00000000000E+00  0.00000000000E+00  0.99999998245E-14  0.12509000000E+03  0.12509000000E+03 0.  0.
        -13    1    3    3    0    0  0.15120026584E+02  0.44709772118E+02  0.21967072029E+02  0.52059027501E+02  0.10566000000E+00 0. -1.
         23    2    1    0    0    0 -0.14063983052E+02  0.13000546514E+02  0.22991613769E+02  0.95166361640E+02  0.90339428021E+02 0.  0.
         13    1    3    3    0    0 -0.29184009636E+02 -0.31709225604E+02  0.10245417401E+01  0.43107334140E+02  0.10566000000E+00 0.  1.
         22    1    1    0    0    0  0.14063983052E+02 -0.13000546514E+02 -0.22991613769E+02  0.29923638360E+02  0.00000000000E+00 0. -1.
</event>
<event>
 5    1  0.1261138E-009  0.9118800E+02  0.7561462E-02  0.1125453E+00
         25   -1    0    0    0    0  0.00000000000E+00  0.00000000000E+00  0.99999998245E-14  0.12509000000E+03  0.12509000000E+03 0.  0.
        -13    1    3    3    0    0 -0.15878584563E+02 -0.42477027610E+02  0.10813883996E+02  0.46619508507E+02  0.10566000000E+00 0. -1.
         23    2    1    0    0    0  0.98157056070E+01 -0.48100604938E+01  0.27754152631E+02  0.95260857424E+02  0.90470178570E+02 0.  0.
         13    1    3    3    0    0  0.25694290170E+02  0.37666967116E+02  0.16940268636E+02  0.48641348918E+02  0.10566000000E+00 0.  1.
         22    1    1    0    0    0 -0.98157056070E+01  0.48100604938E+01 -0.27754152631E+02  0.29829142576E+02  0.00000000000E+00 0. -1.
</event>
<event>
 5    1  0.1261138E-009  0.9118800E+02  0.7561462E-02  0.1125453E+00
         25   -1    0    0    0    0  0.00000000000E+00  0.00000000000E+00  0.99999998245E-14  0.12509000000E+03  0.12509000000E+03 0.  0.
        -13    1    3    3    0    0 -0.79223838009E+01 -0.21235318276E+02  0.53765545134E+02  0.58347647039E+02  0.10566000000E+00 0.  1.
         23    2    1    0    0    0  0.26881165956E+01 -0.22232282886E+02  0.16055121043E+02  0.97535194886E+02  0.93561995258E+02 0.  0.
         13    1    3    3    0    0  0.10610500396E+02 -0.99696460983E+00 -0.37710424092E+02  0.39187547847E+02  0.10566000000E+00 0. -1.
         22    1    1    0    0    0 -0.26881165956E+01  0.22232282886E+02 -0.16055121043E+02  0.27554805114E+02  0.00000000000E+00 0.  1.
</event>
<event>
 5    1  0.1261138E-009  0.9118800E+02  0.7561462E-02  0.1125453E+00
         25   -1    0    0    0    0  0.00000000000E+00  0.00000000000E+00  0.99999998245E-14  0.12509000000E+03  0.12509000000E+03 0.  0.
        -13    1    3    3    0    0 -0.27683761381E+02  0.57554968363E+01  0.42345863506E+02  0.50918559564E+02  0.10566000000E+00 0.  1.
         23    2    1    0    0    0 -0.58794025289E+01  0.27607717383E+02  0.11343282081E+02  0.94669226151E+02  0.89648418271E+02 0.  0.
         13    1    3    3    0    0  0.21804358852E+02  0.21852220547E+02 -0.31002581424E+02  0.43750666587E+02  0.10566000000E+00 0. -1.
         22    1    1    0    0    0  0.58794025289E+01 -0.27607717383E+02 -0.11343282081E+02  0.30420773849E+02  0.00000000000E+00 0.  1.
</event>
<event>
 5    1  0.1261138E-009  0.9118800E+02  0.7561462E-02  0.1125453E+00
         25   -1    0    0    0    0  0.00000000000E+00  0.00000000000E+00  0.99999998245E-14  0.12509000000E+03  0.12509000000E+03 0.  0.
        -13    1    3    3    0    0 -0.26346988813E+02 -0.39968285297E+02  0.10814086524E+02  0.49077319410E+02  0.10566000000E+00 0. -1.
         23    2    1    0    0    0 -0.17847393877E+02 -0.12644361834E+02 -0.22983700705E+02  0.93362096626E+02  0.87805587715E+02 0.  0.
         13    1    3    3    0    0  0.84995949359E+01  0.27323923463E+02 -0.33797787229E+02  0.44284777216E+02  0.10566000000E+00 0.  1.
         22    1    1    0    0    0  0.17847393877E+02  0.12644361834E+02  0.22983700705E+02  0.31727903374E+02  0.00000000000E+00 0.  1.
</event>
<event>
 5    1  0.1261138E-009  0.9118800E+02  0.7561462E-02  0.1125453E+00
         25   -1    0    0    0    0  0.00000000000E+00  0.00000000000E+00  0.99999998245E-14  0.12509000000E+03  0.12509000000E+03 0.  0.
        -13    1    3    3    0    0 -0.11435379620E+01 -0.91490127777E+01  0.42878827425E+02  0.43859059717E+02  0.10566000000E+00 0.  1.
         23    2    1    0    0    0  0.27148613108E+02  0.10540169579E+02  0.42037110871E+01  0.95665290055E+02  0.91027656050E+02 0.  0.
         13    1    3    3    0    0  0.28292151070E+02  0.19689182357E+02 -0.38675116338E+02  0.51806230338E+02  0.10566000000E+00 0. -1.
         22    1    1    0    0    0 -0.27148613108E+02 -0.10540169579E+02 -0.42037110871E+01  0.29424709945E+02  0.00000000000E+00 0.  1.
</event>
<event>
 5    1  0.1261138E-009  0.9118800E+02  0.7561462E-02  0.1125453E+00
         25   -1    0    0    0    0  0.00000000000E+00  0.00000000000E+00  0.99999998245E-14  0.12509000000E+03  0.12509000000E+03 0.  0.
        -13    1    3    3    0    0  0.10563093933E+02  0.43333596380E+01  0.40739364918E+02  0.42309147677E+02  0.10566000000E+00 0.  1.
         23    2    1    0    0    0  0.11231020349E+02  0.25534802826E+02 -0.85040592018E+01  0.95926992673E+02  0.91386579578E+02 0.  0.
         13    1    3    3    0    0  0.66792641568E+00  0.21201443188E+02 -0.49243424120E+02  0.53617844996E+02  0.10566000000E+00 0. -1.
         22    1    1    0    0    0 -0.11231020349E+02 -0.25534802826E+02  0.85040592018E+01  0.29163007327E+02  0.00000000000E+00 0. -1.
</event>
<event>
 5    1  0.1261138E-009  0.9118800E+02  0.7561462E-02  0.1125453E+00
         25   -1    0    0    0    0  0.00000000000E+00  0.00000000000E+00  0.99999998245E-14  0.12509000000E+03  0.12509000000E+03 0.  0.
        -13    1    3    3    0    0  0.27734865283E+02  0.55031620562E+02  0.13357879476E+01  0.61640064142E+02  0.10566000000E+00 0.  1.
         23    2    1    0    0    0  0.20277325434E+02  0.23577572456E+02  0.12691775837E+01  0.93966332777E+02  0.88662218753E+02 0.  0.
         13    1    3    3    0    0 -0.74575398488E+01 -0.31454048107E+02 -0.66610363860E-01  0.32326268635E+02  0.10566000000E+00 0. -1.
         22    1    1    0    0    0 -0.20277325434E+02 -0.23577572456E+02 -0.12691775837E+01  0.31123667223E+02  0.00000000000E+00 0.  1.
</event>
<event>
 5    1  0.1261138E-009  0.9118800E+02  0.7561462E-02  0.1125453E+00
         25   -1    0    0    0    0  0.00000000000E+00  0.00000000000E+00  0.99999998245E-14  0.12509000000E+03  0.12509000000E+03 0.  0.
        -13    1    3    3    0    0  0.97695610146E+00  0.71049371555E+00 -0.51795968221E+02  0.51810160515E+02  0.10566000000E+00 0. -1.
         23    2    1    0    0    0  0.24140377848E+02 -0.63789246581E+01 -0.14699612638E+02  0.96115405367E+02  0.91644116094E+02 0.  0.
         13    1    3    3    0    0  0.23163421746E+02 -0.70894183737E+01  0.37096355583E+02  0.44305244852E+02  0.10566000000E+00 0.  1.
         22    1    1    0    0    0 -0.24140377848E+02  0.63789246581E+01  0.14699612638E+02  0.28974594633E+02  0.00000000000E+00 0.  1.
</event>
<event>
 5    1  0.1261138E-009  0.9118800E+02  0.7561462E-02  0.1125453E+00
         25   -1    0    0    0    0  0.00000000000E+00  0.00000000000E+00  0.99999998245E-14  0.12509000000E+03  0.12509000000E+03 0.  0.
        -13    1    3    3    0    0  0.47891917367E+01 -0.13284373657E+02 -0.44804758337E+02  0.46977531594E+02  0.10566000000E+00 0.  1.
         23    2    1    0    0    0  0.18462898738E+02 -0.26016315634E+02 -0.26608000640E+01  0.93077390516E+02  0.87399047245E+02 0.  0.
         13    1    3    3    0    0  0.13673707002E+02 -0.12731941977E+02  0.42143958273E+02  0.46099858922E+02  0.10566000000E+00 0. -1.
         22    1    1    0    0    0 -0.18462898738E+02  0.26016315634E+02  0.26608000640E+01  0.32012609484E+02  0.00000000000E+00 0. -1.
</event>
<event>
 5    1  0.1261138E-009  0.9118800E+02  0.7561462E-02  0.1125453E+00
         25   -1    0    0    0    0  0.00000000000E+00  0.00000000000E+00  0.99999998245E-14  0.12509000000E+03  0.12509000000E+03 0.  0.
        -13    1    3    3    0    0  0.12203819666E+02  0.26627672350E+02  0.47917422597E+02  0.56160989144E+02  0.10566000000E+00 0.  1.
         23    2    1    0    0    0  0.61460442268E+01 -0.46661162903E+01  0.32717994443E+02  0.91474324174E+02  0.85073722863E+02 0.  0.
         13    1    3    3    0    0 -0.60577754390E+01 -0.31293788640E+02 -0.15199428154E+02  0.35313335030E+02  0.10566000000E+00 0. -1.
         22    1    1    0    0    0 -0.61460442268E+01  0.46661162903E+01 -0.32717994443E+02  0.33615675826E+02  0.00000000000E+00 0.  1.
</event>
<event>
 5    1  0.1261138E-009  0.9118800E+02  0.7561462E-02  0.1125453E+00
         25   -1    0    0    0    0  0.00000000000E+00  0.00000000000E+00  0.99999998245E-14  0.12509000000E+03  0.12509000000E+03 0.  0.
        -13    1    3    3    0    0 -0.57714903326E+01  0.40956894408E+02 -0.46393712500E+02  0.62154364479E+02  0.10566000000E+00 0.  1.
         23    2    1    0    0    0  0.13061341852E+01  0.18296129482E+02 -0.24778884609E+02  0.94260672031E+02  0.89076522321E+02 0.  0.
         13    1    3    3    0    0  0.70776245177E+01 -0.22660764926E+02  0.21614827890E+02  0.32106307552E+02  0.10566000000E+00 0. -1.
         22    1    1    0    0    0 -0.13061341852E+01 -0.18296129482E+02  0.24778884609E+02  0.30829327969E+02  0.00000000000E+00 0.  1.
</event>
<event>
 5    1  0.1261138E-009  0.9118800E+02  0.7561462E-02  0.1125453E+00
         25   -1    0    0    0    0  0.00000000000E+00  0.00000000000E+00  0.99999998245E-14  0.12509000000E+03  0.12509000000E+03 0.  0.
        -13    1    3    3    0    0 -0.39744304884E+02 -0.20424930783E+02 -0.88601293326E+01  0.45555467553E+02  0.10566000000E+00 0.  1.
         23    2    1    0    0    0  0.85120599430E+01 -0.17944229332E+02 -0.21821238202E+02  0.95583780868E+02  0.90915577310E+02 0.  0.
         13    1    3    3    0    0  0.48256364827E+02  0.24807014502E+01 -0.12961108869E+02  0.50028313315E+02  0.10566000000E+00 0. -1.
         22    1    1    0    0    0 -0.85120599430E+01  0.17944229332E+02  0.21821238202E+02  0.29506219132E+02  0.00000000000E+00 0. -1.
</event>
<event>
 5    1  0.1261138E-009  0.9118800E+02  0.7561462E-02  0.1125453E+00
         25   -1    0    0    0    0  0.00000000000E+00  0.00000000000E+00  0.99999998245E-14  0.12509000000E+03  0.12509000000E+03 0.  0.
        -13    1    3    3    0    0 -0.45976492501E+02 -0.35903374740E+02 -0.18192595476E+01  0.58362753959E+02  0.10566000000E+00 0.  1.
         23    2    1    0    0    0 -0.29359334253E+02 -0.48811467900E+01 -0.83992145069E+01  0.94165205642E+02  0.88942358005E+02 0.  0.
         13    1    3    3    0    0  0.16617158247E+02  0.31022227950E+02 -0.65799549593E+01  0.35802451683E+02  0.10566000000E+00 0. -1.
         22    1    1    0    0    0  0.29359334253E+02  0.48811467900E+01  0.83992145069E+01  0.30924794358E+02  0.00000000000E+00 0.  1.
</event>
<event>
 5    1  0.1261138E-009  0.9118800E+02  0.7561462E-02  0.1125453E+00
         25   -1    0    0    0    0  0.00000000000E+00  0.00000000000E+00  0.99999998245E-14  0.12509000000E+03  0.12509000000E+03 0.  0.
        -13    1    3    3    0    0  0.83033645103E+01 -0.26987462014E+02  0.24670601591E+02  0.37495582607E+02  0.10566000000E+00 0.  1.
         23    2    1    0    0    0  0.19168086736E+02  0.15022683313E+02 -0.15165256751E+02  0.96400601690E+02  0.92032572663E+02 0.  0.
         13    1    3    3    0    0  0.10864722226E+02  0.42010145327E+02 -0.39835858341E+02  0.58905019084E+02  0.10566000000E+00 0. -1.
         22    1    1    0    0    0 -0.19168086736E+02 -0.15022683313E+02  0.15165256751E+02  0.28689398310E+02  0.00000000000E+00 0. -1.
</event>
<event>
 5    1  0.1261138E-009  0.9118800E+02  0.7561462E-02  0.1125453E+00
         25   -1    0    0    0    0  0.00000000000E+00  0.00000000000E+00  0.99999998245E-14  0.12509000000E+03  0.12509000000E+03 0.  0.
        -13    1    3    3    0    0 -0.15726148909E+02  0.46133722292E+02  0.37882868287E+02  0.61731312684E+02  0.10566000000E+00 0.  1.
         23    2    1    0    0    0  0.21951897840E+00  0.21122030687E+02  0.15644106059E+02  0.98804520675E+02  0.95243933574E+02 0.  0.
         13    1    3    3    0    0  0.15945667888E+02 -0.25011691605E+02 -0.22238762228E+02  0.37073207991E+02  0.10566000000E+00 0. -1.
         22    1    1    0    0    0 -0.21951897840E+00 -0.21122030687E+02 -0.15644106059E+02  0.26285479325E+02  0.00000000000E+00 0.  1.
</event>
<event>
 5    1  0.1261138E-009  0.9118800E+02  0.7561462E-02  0.1125453E+00
         25   -1    0    0    0    0  0.00000000000E+00  0.00000000000E+00  0.99999998245E-14  0.12509000000E+03  0.12509000000E+03 0.  0.
        -13    1    3    3    0    0  0.16501955799E+01 -0.54831787666E+02  0.81481358763E+01  0.55458555394E+02  0.10566000000E+00 0. -1.
         23    2    1    0    0    0 -0.15656781043E+02 -0.20668547277E+02  0.16095141849E+02  0.94571526409E+02  0.89511990130E+02 0.  0.
         13    1    3    3    0    0 -0.17306976623E+02  0.34163240389E+02  0.79470059724E+01  0.39112971015E+02  0.10566000000E+00 0.  1.
         22    1    1    0    0    0  0.15656781043E+02  0.20668547277E+02 -0.16095141849E+02  0.30518473591E+02  0.00000000000E+00 0. -1.
</event>
<event>
 5    1  0.1261138E-009  0.9118800E+02  0.7561462E-02  0.1125453E+00
         25   -1    0    0    0    0  0.00000000000E+00  0.00000000000E+00  0.99999998245E-14  0.12509000000E+03  0.12509000000E+03 0.  0.
        -13    1    3    3    0    0 -0.18869191239E+02  0.33265244692E+02  0.33325749070E+02  0.50727109099E+02  0.10566000000E+00 0.  1.
         23    2    1    0    0    0  0.17304283363E+02  0.22810734206E+02  0.17203197277E+02  0.91687637595E+02  0.85386796833E+02 0.  0.
         13    1    3    3    0    0  0.36173474602E+02 -0.10454510486E+02 -0.16122551792E+02  0.40960528495E+02  0.10566000000E+00 0. -1.
         22    1    1    0    0    0 -0.17304283363E+02 -0.22810734206E+02 -0.17203197277E+02  0.33402362405E+02  0.00000000000E+00 0. -1.
</event>
<event>
 5    1  0.1261138E-009  0.9118800E+02  0.7561462E-02  0.1125453E+00
         25   -1    0    0    0    0  0.00000000000E+00  0.00000000000E+00  0.99999998245E-14  0.12509000000E+03  0.12509000000E+03 0.  0.
        -13    1    3    3    0    0 -0.28404927798E+02 -0.48803547769E+01 -0.24719065652E+02  0.37969740014E+02  0.10566000000E+00 0.  1.
         23    2    1    0    0    0 -0.60989375064E+01  0.16866629850E+02  0.23592208135E+02  0.95454336926E+02  0.90737301657E+02 0.  0.
         13    1    3    3    0    0  0.22305990292E+02  0.21746984626E+02  0.48311273786E+02  0.57484596912E+02  0.10566000000E+00 0. -1.
         22    1    1    0    0    0  0.60989375064E+01 -0.16866629850E+02 -0.23592208135E+02  0.29635663074E+02  0.00000000000E+00 0. -1.
</event>
<event>
 5    1  0.1261138E-009  0.9118800E+02  0.7561462E-02  0.1125453E+00
         25   -1    0    0    0    0  0.00000000000E+00  0.00000000000E+00  0.99999998245E-14  0.12509000000E+03  0.12509000000E+03 0.  0.
        -13    1    3    3    0    0  0.30237474599E+02 -0.26010205462E+02 -0.13932146204E+02  0.42248686609E+02  0.10566000000E+00 0.  1.
         23    2    1    0    0    0  0.43187801291E+01 -0.65517810938E+01  0.28435655890E+02  0.95591453880E+02  0.90926133932E+02 0.  0.
         13    1    3    3    0    0 -0.25918694470E+02  0.19458424368E+02  0.42367802094E+02  0.53342767272E+02  0.10566000000E+00 0. -1.
         22    1    1    0    0    0 -0.43187801291E+01  0.65517810938E+01 -0.28435655890E+02  0.29498546120E+02  0.00000000000E+00 0. -1.
</event>
<event>
 5    1  0.1261138E-009  0.9118800E+02  0.7561462E-02  0.1125453E+00
         25   -1    0    0    0    0  0.00000000000E+00  0.00000000000E+00  0.99999998245E-14  0.12509000000E+03  0.12509000000E+03 0.  0.
        -13    1    3    3    0    0 -0.86755345642E+01 -0.28497951342E+02 -0.18677827030E+02  0.35160638749E+02  0.10566000000E+00 0.  1.
         23    2    1    0    0    0  0.18068681339E+02  0.23246980273E+02 -0.96620858664E+01  0.94102014580E+02  0.88853440606E+02 0.  0.
         13    1    3    3    0    0  0.26744215903E+02  0.51744931614E+02  0.90157411637E+01  0.58941375831E+02  0.10566000000E+00 0. -1.
         22    1    1    0    0    0 -0.18068681339E+02 -0.23246980273E+02  0.96620858664E+01  0.30987985420E+02  0.00000000000E+00 0. -1.
</event>
<event>
 5    1  0.1261138E-009  0.9118800E+02  0.7561462E-02  0.1125453E+00
         25   -1    0    0    0    0  0.00000000000E+00  0.00000000000E+00  0.99999998245E-14  0.12509000000E+03  0.12509000000E+03 0.  0.
        -13    1    3    3    0    0  0.34118514051E+02 -0.29730638883E+02 -0.10378727851E+02  0.46429656959E+02  0.10566000000E+00 0.  1.
         23    2    1    0    0    0 -0.89526215214E+00 -0.25689761342E+01 -0.30052516095E+02  0.94914598489E+02  0.89990144738E+02 0.  0.
         13    1    3    3    0    0 -0.35013776203E+02  0.27161662749E+02 -0.19673788244E+02  0.48484941531E+02  0.10566000000E+00 0. -1.
         22    1    1    0    0    0  0.89526215214E+00  0.25689761342E+01  0.30052516095E+02  0.30175401511E+02  0.00000000000E+00 0.  1.
</event>
<event>
 5    1  0.1261138E-009  0.9118800E+02  0.7561462E-02  0.1125453E+00
         25   -1    0    0    0    0  0.00000000000E+00  0.00000000000E+00  0.99999998245E-14  0.12509000000E+03  0.12509000000E+03 0.  0.
        -13    1    3    3    0    0 -0.23292975302E+02 -0.30709947317E+02  0.10023991457E+01  0.38557483460E+02  0.10566000000E+00 0.  1.
         23    2    1    0    0    0 -0.10776824095E+02  0.14668444643E+02  0.27148606324E+02  0.92404375773E+02  0.86430426534E+02 0.  0.
         13    1    3    3    0    0  0.12516151207E+02  0.45378391960E+02  0.26146207178E+02  0.53846892313E+02  0.10566000000E+00 0. -1.
         22    1    1    0    0    0  0.10776824095E+02 -0.14668444643E+02 -0.27148606324E+02  0.32685624227E+02  0.00000000000E+00 0. -1.
</event>
<event>
 5    1  0.1261138E-009  0.9118800E+02  0.7561462E-02  0.1125453E+00
         25   -1    0    0    0    0  0.00000000000E+00  0.00000000000E+00  0.99999998245E-14  0.12509000000E+03  0.12509000000E+03 0.  0.
        -13    1    3    3    0    0 -0.16654001973E+02  0.51864431276E+02 -0.18090126021E+02  0.57398073459E+02  0.10566000000E+00 0.  1.
         23    2    1    0    0    0  0.25607414442E+01  0.36067202641E+02  0.12553020646E+01  0.88910222688E+02  0.81216078531E+02 0.  0.
         13    1    3    3    0    0  0.19214743417E+02 -0.15797228635E+02  0.19345428086E+02  0.31512149228E+02  0.10566000000E+00 0. -1.
         22    1    1    0    0    0 -0.25607414442E+01 -0.36067202641E+02 -0.12553020646E+01  0.36179777312E+02  0.00000000000E+00 0.  1.
</event>
<event>
 5    1  0.1261138E-009  0.9118800E+02  0.7561462E-02  0.1125453E+00
         25   -1    0    0    0    0  0.00000000000E+00  0.00000000000E+00  0.99999998245E-14  0.12509000000E+03  0.12509000000E+03 0.  0.
        -13    1    3    3    0    0 -0.27540855912E+02 -0.22488673344E+02  0.45896977513E+01  0.35851299316E+02  0.10566000000E+00 0.  1.
         23    2    1    0    0    0  0.61619430935E+01  0.24315570165E+02  0.16922700915E+02  0.94831211171E+02  0.89874158192E+02 0.  0.
         13    1    3    3    0    0  0.33702799006E+02  0.46804243510E+02  0.12333003163E+02  0.58979911855E+02  0.10566000000E+00 0. -1.
         22    1    1    0    0    0 -0.61619430935E+01 -0.24315570165E+02 -0.16922700915E+02  0.30258788829E+02  0.00000000000E+00 0. -1.
</event>
<event>
 5    1  0.1261138E-009  0.9118800E+02  0.7561462E-02  0.1125453E+00
         25   -1    0    0    0    0  0.00000000000E+00  0.00000000000E+00  0.99999998245E-14  0.12509000000E+03  0.12509000000E+03 0.  0.
        -13    1    3    3    0    0 -0.15625181610E+02 -0.50774752480E+02 -0.25026394087E+02  0.58724384669E+02  0.10566000000E+00 0.  1.
         23    2    1    0    0    0  0.18288825558E+01 -0.23470299495E+02 -0.24468088783E+02  0.91135808234E+02  0.84574513916E+02 0.  0.
         13    1    3    3    0    0  0.17454064166E+02  0.27304452985E+02  0.55830530427E+00  0.32411423565E+02  0.10566000000E+00 0. -1.
         22    1    1    0    0    0 -0.18288825558E+01  0.23470299495E+02  0.24468088783E+02  0.33954191766E+02  0.00000000000E+00 0.  1.
</event>
<event>
 5    1  0.1261138E-009  0.9118800E+02  0.7561462E-02  0.1125453E+00
         25   -1    0    0    0    0  0.00000000000E+00  0.00000000000E+00  0.99999998245E-14  0.12509000000E+03  0.12509000000E+03 0.  0.
        -13    1    3    3    0    0 -0.18677324199E+02 -0.41859981478E+02  0.27744389746E+02  0.53580433136E+02  0.10566000000E+00 0.  1.
         23    2    1    0    0    0 -0.18975485608E+02 -0.17561911456E+02 -0.90687053860E+01  0.97690525453E+02  0.93769438294E+02 0.  0.
         13    1    3    3    0    0 -0.29816140993E+00  0.24298070022E+02 -0.36813095132E+02  0.44110092318E+02  0.10566000000E+00 0. -1.
         22    1    1    0    0    0  0.18975485608E+02  0.17561911456E+02  0.90687053860E+01  0.27399474547E+02  0.00000000000E+00 0.  1.
</event>
<event>
 5    1  0.1261138E-009  0.9118800E+02  0.7561462E-02  0.1125453E+00
         25   -1    0    0    0    0  0.00000000000E+00  0.00000000000E+00  0.99999998245E-14  0.12509000000E+03  0.12509000000E+03 0.  0.
        -13    1    3    3    0    0 -0.10488813825E+02  0.43035930371E+02  0.43821838862E+01  0.44512034530E+02  0.10566000000E+00 0.  1.
         23    2    1    0    0    0 -0.19564453889E+01  0.49887560693E+01 -0.28851183645E+02  0.95745389534E+02  0.91137662104E+02 0.  0.
         13    1    3    3    0    0  0.85323684364E+01 -0.38047174302E+02 -0.33233367531E+02  0.51233355004E+02  0.10566000000E+00 0. -1.
         22    1    1    0    0    0  0.19564453889E+01 -0.49887560693E+01  0.28851183645E+02  0.29344610466E+02  0.00000000000E+00 0.  1.
</event>
<event>
 5    1  0.1261138E-009  0.9118800E+02  0.7561462E-02  0.1125453E+00
         25   -1    0    0    0    0  0.00000000000E+00  0.00000000000E+00  0.99999998245E-14  0.12509000000E+03  0.12509000000E+03 0.  0.
        -13    1    3    3    0    0 -0.18190024767E+02 -0.26955416254E+02  0.43933785477E+02  0.54659492651E+02  0.10566000000E+00 0.  1.
         23    2    1    0    0    0 -0.12508797956E+02 -0.26900270207E+02  0.38143004163E+01  0.95179409047E+02  0.90357492525E+02 0.  0.
         13    1    3    3    0    0  0.56812268113E+01  0.55146046617E-01 -0.40119485061E+02  0.40519916396E+02  0.10566000000E+00 0. -1.
         22    1    1    0    0    0  0.12508797956E+02  0.26900270207E+02 -0.38143004163E+01  0.29910590953E+02  0.00000000000E+00 0.  1.
</event>
<event>
 5    1  0.1261138E-009  0.9118800E+02  0.7561462E-02  0.1125453E+00
         25   -1    0    0    0    0  0.00000000000E+00  0.00000000000E+00  0.99999998245E-14  0.12509000000E+03  0.12509000000E+03 0.  0.
        -13    1    3    3    0    0 -0.11192224063E+02 -0.23292594632E+02  0.24330421969E+02  0.35493540840E+02  0.10566000000E+00 0.  1.
         23    2    1    0    0    0  0.22413194520E+02  0.15355691289E+02 -0.88478876445E+01  0.96516696737E+02  0.92190233158E+02 0.  0.
         13    1    3    3    0    0  0.33605418583E+02  0.38648285921E+02 -0.33178309613E+02  0.61023155897E+02  0.10566000000E+00 0. -1.
         22    1    1    0    0    0 -0.22413194520E+02 -0.15355691289E+02  0.88478876445E+01  0.28573303263E+02  0.00000000000E+00 0. -1.
</event>
<event>
 5    1  0.1261138E-009  0.9118800E+02  0.7561462E-02  0.1125453E+00
         25   -1    0    0    0    0  0.00000000000E+00  0.00000000000E+00  0.99999998245E-14  0.12509000000E+03  0.12509000000E+03 0.  0.
        -13    1    3    3    0    0  0.18901792791E+02  0.28078433996E+02  0.74800858100E+01  0.34664666075E+02  0.10566000000E+00 0.  1.
         23    2    1    0    0    0 -0.93169593743E+01 -0.20379131902E+02 -0.18086676569E+02  0.96293426968E+02  0.91886786095E+02 0.  0.
         13    1    3    3    0    0 -0.28218752165E+02 -0.48457565898E+02 -0.25566762379E+02  0.61628760892E+02  0.10566000000E+00 0. -1.
         22    1    1    0    0    0  0.93169593743E+01  0.20379131902E+02  0.18086676569E+02  0.28796573032E+02  0.00000000000E+00 0. -1.
</event>
<event>
 5    1  0.1261138E-009  0.9118800E+02  0.7561462E-02  0.1125453E+00
         25   -1    0    0    0    0  0.00000000000E+00  0.00000000000E+00  0.99999998245E-14  0.12509000000E+03  0.12509000000E+03 0.  0.
        -13    1    3    3    0    0 -0.19830802701E+02 -0.35881262768E+02 -0.40341664882E+01  0.41194798420E+02  0.10566000000E+00 0.  1.
         23    2    1    0    0    0  0.11954270908E+02 -0.25149748579E+01  0.26111812133E+02  0.96261950736E+02  0.91843925957E+02 0.  0.
         13    1    3    3    0    0  0.31785073609E+02  0.33366287910E+02  0.30145978621E+02  0.55067152317E+02  0.10566000000E+00 0. -1.
         22    1    1    0    0    0 -0.11954270908E+02  0.25149748579E+01 -0.26111812133E+02  0.28828049264E+02  0.00000000000E+00 0. -1.
</event>
<event>
 5    1  0.1261138E-009  0.9118800E+02  0.7561462E-02  0.1125453E+00
         25   -1    0    0    0    0  0.00000000000E+00  0.00000000000E+00  0.99999998245E-14  0.12509000000E+03  0.12509000000E+03 0.  0.
        -13    1    3    3    0    0 -0.22770754099E+02 -0.13106348651E+02  0.23687042013E+02  0.35374718947E+02  0.10566000000E+00 0.  1.
         23    2    1    0    0    0  0.27977551109E+02  0.31277704441E+01 -0.59093084756E+01  0.96324634703E+02  0.91929260902E+02 0.  0.
         13    1    3    3    0    0  0.50748305209E+02  0.16234119095E+02 -0.29596350489E+02  0.60949915756E+02  0.10566000000E+00 0. -1.
         22    1    1    0    0    0 -0.27977551109E+02 -0.31277704441E+01  0.59093084756E+01  0.28765365297E+02  0.00000000000E+00 0. -1.
</event>
<event>
 5    1  0.1261138E-009  0.9118800E+02  0.7561462E-02  0.1125453E+00
         25   -1    0    0    0    0  0.00000000000E+00  0.00000000000E+00  0.99999998245E-14  0.12509000000E+03  0.12509000000E+03 0.  0.
        -13    1    3    3    0    0 -0.47631361805E+02 -0.22263705398E+02 -0.27885920337E+01  0.52651748452E+02  0.10566000000E+00 0.  1.
         23    2    1    0    0    0 -0.59642081602E+01 -0.29228861622E+02 -0.44442249960E+01  0.94929607653E+02  0.90011005675E+02 0.  0.
         13    1    3    3    0    0  0.41667153645E+02 -0.69651562240E+01 -0.16556329623E+01  0.42277859201E+02  0.10566000000E+00 0. -1.
         22    1    1    0    0    0  0.59642081602E+01  0.29228861622E+02  0.44442249960E+01  0.30160392347E+02  0.00000000000E+00 0.  1.
</event>
<event>
 5    1  0.1261138E-009  0.9118800E+02  0.7561462E-02  0.1125453E+00
         25   -1    0    0    0    0  0.00000000000E+00  0.00000000000E+00  0.99999998245E-14  0.12509000000E+03  0.12509000000E+03 0.  0.
        -13    1    3    3    0    0 -0.22440626683E+02 -0.30054763843E+02 -0.91125470719E+01  0.38599484890E+02  0.10566000000E+00 0. -1.
         23    2    1    0    0    0  0.26059907988E+02  0.27285556486E+01 -0.97176049516E+01  0.97143700312E+02  0.93037104662E+02 0.  0.
         13    1    3    3    0    0  0.48500534671E+02  0.32783319492E+02 -0.60505787971E+00  0.58544215422E+02  0.10566000000E+00 0.  1.
         22    1    1    0    0    0 -0.26059907988E+02 -0.27285556486E+01  0.97176049516E+01  0.27946299688E+02  0.00000000000E+00 0.  1.
</event>
<event>
 5    1  0.1261138E-009  0.9118800E+02  0.7561462E-02  0.1125453E+00
         25   -1    0    0    0    0  0.00000000000E+00  0.00000000000E+00  0.99999998245E-14  0.12509000000E+03  0.12509000000E+03 0.  0.
        -13    1    3    3    0    0  0.30682608319E+02 -0.73991567381E+00 -0.20742437119E+02  0.37043620100E+02  0.10566000000E+00 0.  1.
         23    2    1    0    0    0 -0.43770163440E+01 -0.75311032791E+01  0.27031478713E+02  0.96689707218E+02  0.92424687459E+02 0.  0.
         13    1    3    3    0    0 -0.35059624663E+02 -0.67911876053E+01  0.47773915832E+02  0.59646087118E+02  0.10566000000E+00 0. -1.
         22    1    1    0    0    0  0.43770163440E+01  0.75311032791E+01 -0.27031478713E+02  0.28400292782E+02  0.00000000000E+00 0.  1.
</event>
<event>
 5    1  0.1261138E-009  0.9118800E+02  0.7561462E-02  0.1125453E+00
         25   -1    0    0    0    0  0.00000000000E+00  0.00000000000E+00  0.99999998245E-14  0.12509000000E+03  0.12509000000E+03 0.  0.
        -13    1    3    3    0    0 -0.64346747893E+01 -0.24303849952E+02 -0.32421399946E+02  0.41027314080E+02  0.10566000000E+00 0.  1.
         23    2    1    0    0    0  0.23763992391E+02 -0.19861202058E+02  0.93278877608E+01  0.92744920442E+02  0.86921896529E+02 0.  0.
         13    1    3    3    0    0  0.30198667181E+02  0.44426478943E+01  0.41749287706E+02  0.51717606362E+02  0.10566000000E+00 0. -1.
         22    1    1    0    0    0 -0.23763992391E+02  0.19861202058E+02 -0.93278877608E+01  0.32345079558E+02  0.00000000000E+00 0. -1.
</event>
<event>
 5    1  0.1261138E-009  0.9118800E+02  0.7561462E-02  0.1125453E+00
         25   -1    0    0    0    0  0.00000000000E+00  0.00000000000E+00  0.99999998245E-14  0.12509000000E+03  0.12509000000E+03 0.  0.
        -13    1    3    3    0    0  0.29255736056E+02  0.28755666013E+02 -0.19141961798E+01  0.41066552461E+02  0.10566000000E+00 0. -1.
         23    2    1    0    0    0 -0.19579070735E+02  0.11608903591E+02  0.17534116536E+02  0.96357581095E+02  0.91974080796E+02 0.  0.
         13    1    3    3    0    0 -0.48834806791E+02 -0.17146762422E+02  0.19448312716E+02  0.55291028634E+02  0.10566000000E+00 0.  1.
         22    1    1    0    0    0  0.19579070735E+02 -0.11608903591E+02 -0.17534116536E+02  0.28732418905E+02  0.00000000000E+00 0.  1.
</event>
<event>
 5    1  0.1261138E-009  0.9118800E+02  0.7561462E-02  0.1125453E+00
         25   -1    0    0    0    0  0.00000000000E+00  0.00000000000E+00  0.99999998245E-14  0.12509000000E+03  0.12509000000E+03 0.  0.
        -13    1    3    3    0    0 -0.30327325525E+02 -0.98449344889E+00 -0.15656212939E+02  0.34144458825E+02  0.10566000000E+00 0. -1.
         23    2    1    0    0    0  0.28733895114E+02  0.67374198893E+01 -0.65004654589E+00  0.95569632189E+02  0.90896108174E+02 0.  0.
         13    1    3    3    0    0  0.59061220639E+02  0.77219133382E+01  0.15006166393E+02  0.61425173364E+02  0.10566000000E+00 0.  1.
         22    1    1    0    0    0 -0.28733895114E+02 -0.67374198893E+01  0.65004654589E+00  0.29520367811E+02  0.00000000000E+00 0.  1.
</event>
<event>
 5    1  0.1261138E-009  0.9118800E+02  0.7561462E-02  0.1125453E+00
         25   -1    0    0    0    0  0.00000000000E+00  0.00000000000E+00  0.99999998245E-14  0.12509000000E+03  0.12509000000E+03 0.  0.
        -13    1    3    3    0    0  0.13597068196E+02  0.26086318034E+02 -0.54813286137E+01  0.29923776157E+02  0.10566000000E+00 0. -1.
         23    2    1    0    0    0 -0.25372774819E+02 -0.21635836053E+02 -0.34148713370E+01  0.91570625752E+02  0.85215204340E+02 0.  0.
         13    1    3    3    0    0 -0.38969843015E+02 -0.47722154087E+02  0.20664572766E+01  0.61646849595E+02  0.10566000000E+00 0.  1.
         22    1    1    0    0    0  0.25372774819E+02  0.21635836053E+02  0.34148713370E+01  0.33519374248E+02  0.00000000000E+00 0.  1.
</event>
<event>
 5    1  0.1261138E-009  0.9118800E+02  0.7561462E-02  0.1125453E+00
         25   -1    0    0    0    0  0.00000000000E+00  0.00000000000E+00  0.99999998245E-14  0.12509000000E+03  0.12509000000E+03 0.  0.
        -13    1    3    3    0    0 -0.42228251004E+02  0.12546056374E+02 -0.16678478621E+02  0.47104262297E+02  0.10566000000E+00 0. -1.
         23    2    1    0    0    0  0.16056310842E+01 -0.47103381385E+01 -0.28893897610E+02  0.95770677777E+02  0.91172364597E+02 0.  0.
         13    1    3    3    0    0  0.43833882089E+02 -0.17256394512E+02 -0.12215418988E+02  0.48666415479E+02  0.10566000000E+00 0.  1.
         22    1    1    0    0    0 -0.16056310842E+01  0.47103381385E+01  0.28893897610E+02  0.29319322223E+02  0.00000000000E+00 0. -1.
</event>
<event>
 5    1  0.1261138E-009  0.9118800E+02  0.7561462E-02  0.1125453E+00
         25   -1    0    0    0    0  0.00000000000E+00  0.00000000000E+00  0.99999998245E-14  0.12509000000E+03  0.12509000000E+03 0.  0.
        -13    1    3    3    0    0  0.36891744997E+01  0.30303944126E+02  0.23208697077E+02  0.38348322286E+02  0.10566000000E+00 0.  1.
         23    2    1    0    0    0 -0.90051488936E+01  0.46018369096E+01 -0.27052138015E+02  0.96209422085E+02  0.91772354863E+02 0.  0.
         13    1    3    3    0    0 -0.12694323393E+02 -0.25702107217E+02 -0.50260835092E+02  0.57861099799E+02  0.10566000000E+00 0. -1.
         22    1    1    0    0    0  0.90051488936E+01 -0.46018369096E+01  0.27052138015E+02  0.28880577915E+02  0.00000000000E+00 0. -1.
</event>
<event>
 5    1  0.1261138E-009  0.9118800E+02  0.7561462E-02  0.1125453E+00
         25   -1    0    0    0    0  0.00000000000E+00  0.00000000000E+00  0.99999998245E-14  0.12509000000E+03  0.12509000000E+03 0.  0.
        -13    1    3    3    0    0  0.30966937755E+02  0.27430524709E+02  0.41353229950E+02  0.58493467251E+02  0.10566000000E+00 0.  1.
         23    2    1    0    0    0  0.47653722621E+01  0.25214190224E+02  0.23653088405E+02  0.90191106714E+02  0.83165515557E+02 0.  0.
         13    1    3    3    0    0 -0.26201565493E+02 -0.22163344853E+01 -0.17700141544E+02  0.31697639463E+02  0.10566000000E+00 0. -1.
         22    1    1    0    0    0 -0.47653722621E+01 -0.25214190224E+02 -0.23653088405E+02  0.34898893286E+02  0.00000000000E+00 0.  1.
</event>
<event>
 5    1  0.1261138E-009  0.9118800E+02  0.7561462E-02  0.1125453E+00
         25   -1    0    0    0    0  0.00000000000E+00  0.00000000000E+00  0.99999998245E-14  0.12509000000E+03  0.12509000000E+03 0.  0.
        -13    1    3    3    0    0 -0.33064982135E+02 -0.30377549050E+02  0.35290797179E+02  0.57109894585E+02  0.10566000000E+00 0.  1.
         23    2    1    0    0    0 -0.28932273421E+02 -0.10027596196E+02  0.46590508273E+01  0.94116852188E+02  0.88874326892E+02 0.  0.
         13    1    3    3    0    0  0.41327087145E+01  0.20349952855E+02 -0.30631746352E+02  0.37006957604E+02  0.10566000000E+00 0. -1.
         22    1    1    0    0    0  0.28932273421E+02  0.10027596196E+02 -0.46590508273E+01  0.30973147812E+02  0.00000000000E+00 0.  1.
</event>
<event>
 5    1  0.1261138E-009  0.9118800E+02  0.7561462E-02  0.1125453E+00
         25   -1    0    0    0    0  0.00000000000E+00  0.00000000000E+00  0.99999998245E-14  0.12509000000E+03  0.12509000000E+03 0.  0.
        -13    1    3    3    0    0 -0.40875676314E+02 -0.22056362028E+02 -0.39197423657E+02  0.60776255276E+02  0.10566000000E+00 0.  1.
         23    2    1    0    0    0 -0.18875776270E+02  0.55739477756E+00 -0.10201365353E+02  0.10362669471E+03  0.10137957577E+03 0.  0.
         13    1    3    3    0    0  0.21999900044E+02  0.22613756806E+02  0.28996058304E+02  0.42850439438E+02  0.10566000000E+00 0. -1.
         22    1    1    0    0    0  0.18875776270E+02 -0.55739477756E+00  0.10201365353E+02  0.21463305286E+02  0.00000000000E+00 0.  1.
</event>
<event>
 5    1  0.1261138E-009  0.9118800E+02  0.7561462E-02  0.1125453E+00
         25   -1    0    0    0    0  0.00000000000E+00  0.00000000000E+00  0.99999998245E-14  0.12509000000E+03  0.12509000000E+03 0.  0.
        -13    1    3    3    0    0 -0.24793848447E+02 -0.24101140815E+02 -0.60490942063E+01  0.35102743684E+02  0.10566000000E+00 0.  1.
         23    2    1    0    0    0 -0.61684998520E+01  0.28640799568E+02  0.11335179059E+02  0.93676116531E+02  0.88251814336E+02 0.  0.
         13    1    3    3    0    0  0.18625348595E+02  0.52741940383E+02  0.17384273265E+02  0.58573372847E+02  0.10566000000E+00 0. -1.
         22    1    1    0    0    0  0.61684998520E+01 -0.28640799568E+02 -0.11335179059E+02  0.31413883469E+02  0.00000000000E+00 0. -1.
</event>
<event>
 5    1  0.1261138E-009  0.9118800E+02  0.7561462E-02  0.1125453E+00
         25   -1    0    0    0    0  0.00000000000E+00  0.00000000000E+00  0.99999998245E-14  0.12509000000E+03  0.12509000000E+03 0.  0.
        -13    1    3    3    0    0 -0.27433525627E+01 -0.35534921736E+02 -0.30660245613E+02  0.47014024196E+02  0.10566000000E+00 0. -1.
         23    2    1    0    0    0  0.25038482366E+02  0.31686048899E+00 -0.18454164178E+02  0.93984017050E+02  0.88687165281E+02 0.  0.
         13    1    3    3    0    0  0.27781834929E+02  0.35851782225E+02  0.12206081434E+02  0.46969992854E+02  0.10566000000E+00 0.  1.
         22    1    1    0    0    0 -0.25038482366E+02 -0.31686048899E+00  0.18454164178E+02  0.31105982950E+02  0.00000000000E+00 0.  1.
</event>
<event>
 5    1  0.1261138E-009  0.9118800E+02  0.7561462E-02  0.1125453E+00
         25   -1    0    0    0    0  0.00000000000E+00  0.00000000000E+00  0.99999998245E-14  0.12509000000E+03  0.12509000000E+03 0.  0.
        -13    1    3    3    0    0 -0.67158990659E+01 -0.28299563571E+02 -0.25958084939E+02  0.38984637183E+02  0.10566000000E+00 0. -1.
         23    2    1    0    0    0 -0.14870739996E+02 -0.40456535414E+01  0.24836602352E+02  0.95860510832E+02  0.91295533845E+02 0.  0.
         13    1    3    3    0    0 -0.81548409303E+01  0.24253910029E+02  0.50794687291E+02  0.56875873649E+02  0.10566000000E+00 0.  1.
         22    1    1    0    0    0  0.14870739996E+02  0.40456535414E+01 -0.24836602352E+02  0.29229489168E+02  0.00000000000E+00 0.  1.
</event>
<event>
 5    1  0.1261138E-009  0.9118800E+02  0.7561462E-02  0.1125453E+00
         25   -1    0    0    0    0  0.00000000000E+00  0.00000000000E+00  0.99999998245E-14  0.12509000000E+03  0.12509000000E+03 0.  0.
        -13    1    3    3    0    0 -0.23523824276E+02 -0.20081240034E+02 -0.28727708556E+02  0.42212781391E+02  0.10566000000E+00 0.  1.
         23    2    1    0    0    0  0.20149821799E+02  0.94871596846E+01 -0.18937790539E+02  0.95855407000E+02  0.91288540481E+02 0.  0.
         13    1    3    3    0    0  0.43673646075E+02  0.29568399718E+02  0.97899180169E+01  0.53642625609E+02  0.10566000000E+00 0. -1.
         22    1    1    0    0    0 -0.20149821799E+02 -0.94871596846E+01  0.18937790539E+02  0.29234593000E+02  0.00000000000E+00 0. -1.
</event>
<event>
 5    1  0.1261138E-009  0.9118800E+02  0.7561462E-02  0.1125453E+00
         25   -1    0    0    0    0  0.00000000000E+00  0.00000000000E+00  0.99999998245E-14  0.12509000000E+03  0.12509000000E+03 0.  0.
        -13    1    3    3    0    0  0.30821460553E+02 -0.28092958310E+02 -0.82534506676E+01  0.42512437582E+02  0.10566000000E+00 0. -1.
         23    2    1    0    0    0 -0.23058439475E+02 -0.70841607296E+01 -0.51344741724E+01  0.10042748210E+03  0.97352141071E+02 0.  0.
         13    1    3    3    0    0 -0.53879900028E+02  0.21008797580E+02  0.31189764952E+01  0.57915044515E+02  0.10566000000E+00 0.  1.
         22    1    1    0    0    0  0.23058439475E+02  0.70841607296E+01  0.51344741724E+01  0.24662517903E+02  0.00000000000E+00 0.  1.
</event>
<event>
 5    1  0.1261138E-009  0.9118800E+02  0.7561462E-02  0.1125453E+00
         25   -1    0    0    0    0  0.00000000000E+00  0.00000000000E+00  0.99999998245E-14  0.12509000000E+03  0.12509000000E+03 0.  0.
        -13    1    3    3    0    0  0.20874927641E+02 -0.36600996721E+02 -0.32039873815E+01  0.42257215528E+02  0.10566000000E+00 0.  1.
         23    2    1    0    0    0 -0.26169966968E+02 -0.10765445969E+02  0.43549308416E+01  0.96459117711E+02  0.92112072873E+02 0.  0.
         13    1    3    3    0    0 -0.47044894609E+02  0.25835550753E+02  0.75589182230E+01  0.54201902183E+02  0.10566000000E+00 0. -1.
         22    1    1    0    0    0  0.26169966968E+02  0.10765445969E+02 -0.43549308416E+01  0.28630882289E+02  0.00000000000E+00 0. -1.
</event>
<event>
 5    1  0.1261138E-009  0.9118800E+02  0.7561462E-02  0.1125453E+00
         25   -1    0    0    0    0  0.00000000000E+00  0.00000000000E+00  0.99999998245E-14  0.12509000000E+03  0.12509000000E+03 0.  0.
        -13    1    3    3    0    0  0.55012209337E+02  0.89836410195E+01  0.27212415031E+02  0.62028829410E+02  0.10566000000E+00 0. -1.
         23    2    1    0    0    0  0.23715452741E+02  0.99043547991E+00  0.16956205200E+02  0.95919525956E+02  0.91376358560E+02 0.  0.
         13    1    3    3    0    0 -0.31296756596E+02 -0.79932055396E+01 -0.10256209831E+02  0.33890696546E+02  0.10566000000E+00 0.  1.
         22    1    1    0    0    0 -0.23715452741E+02 -0.99043547991E+00 -0.16956205200E+02  0.29170474044E+02  0.00000000000E+00 0. -1.
</event>
<event>
 5    1  0.1261138E-009  0.9118800E+02  0.7561462E-02  0.1125453E+00
         25   -1    0    0    0    0  0.00000000000E+00  0.00000000000E+00  0.99999998245E-14  0.12509000000E+03  0.12509000000E+03 0.  0.
        -13    1    3    3    0    0  0.20228043144E+02  0.24071460435E+02 -0.16936374917E+02  0.35713595398E+02  0.10566000000E+00 0.  1.
         23    2    1    0    0    0  0.27707418786E+01 -0.30156215990E+02 -0.13459718925E+01  0.94776867306E+02  0.89798488643E+02 0.  0.
         13    1    3    3    0    0 -0.17457301265E+02 -0.54227676425E+02  0.15590403025E+02  0.59063271908E+02  0.10566000000E+00 0. -1.
         22    1    1    0    0    0 -0.27707418786E+01  0.30156215990E+02  0.13459718925E+01  0.30313132694E+02  0.00000000000E+00 0. -1.
</event>
<event>
 5    1  0.1261138E-009  0.9118800E+02  0.7561462E-02  0.1125453E+00
         25   -1    0    0    0    0  0.00000000000E+00  0.00000000000E+00  0.99999998245E-14  0.12509000000E+03  0.12509000000E+03 0.  0.
        -13    1    3    3    0    0  0.46490018129E+01  0.45096274918E+02  0.28905392769E+02  0.53766347510E+02  0.10566000000E+00 0. -1.
         23    2    1    0    0    0  0.11915369872E+02  0.28882103259E+01  0.25579053611E+02  0.96724426117E+02  0.92471664990E+02 0.  0.
         13    1    3    3    0    0  0.72663680595E+01 -0.42208064592E+02 -0.33263391581E+01  0.42958078607E+02  0.10566000000E+00 0.  1.
         22    1    1    0    0    0 -0.11915369872E+02 -0.28882103259E+01 -0.25579053611E+02  0.28365573883E+02  0.00000000000E+00 0. -1.
</event>
<event>
 5    1  0.1261138E-009  0.9118800E+02  0.7561462E-02  0.1125453E+00
         25   -1    0    0    0    0  0.00000000000E+00  0.00000000000E+00  0.99999998245E-14  0.12509000000E+03  0.12509000000E+03 0.  0.
        -13    1    3    3    0    0 -0.24824115425E+02 -0.36627776133E+02 -0.97623741337E+01  0.45311651966E+02  0.10566000000E+00 0. -1.
         23    2    1    0    0    0 -0.24665108716E+02  0.13954379248E+02 -0.43006569381E+00  0.96747853916E+02  0.92503351251E+02 0.  0.
         13    1    3    3    0    0  0.15900670913E+00  0.50582155381E+02  0.93323084399E+01  0.51436201950E+02  0.10566000000E+00 0.  1.
         22    1    1    0    0    0  0.24665108716E+02 -0.13954379248E+02  0.43006569381E+00  0.28342146084E+02  0.00000000000E+00 0. -1.
</event>
<event>
 5    1  0.1261138E-009  0.9118800E+02  0.7561462E-02  0.1125453E+00
         25   -1    0    0    0    0  0.00000000000E+00  0.00000000000E+00  0.99999998245E-14  0.12509000000E+03  0.12509000000E+03 0.  0.
        -13    1    3    3    0    0  0.22098562215E+02  0.23216351725E+02  0.10481967622E+02  0.33722814957E+02  0.10566000000E+00 0. -1.
         23    2    1    0    0    0 -0.10431304858E+02 -0.24442953673E+02 -0.12357990012E+02  0.95781468436E+02  0.91187168359E+02 0.  0.
         13    1    3    3    0    0 -0.32529867073E+02 -0.47659305398E+02 -0.22839957634E+02  0.62058653479E+02  0.10566000000E+00 0.  1.
         22    1    1    0    0    0  0.10431304858E+02  0.24442953673E+02  0.12357990012E+02  0.29308531564E+02  0.00000000000E+00 0.  1.
</event>
<event>
 5    1  0.1261138E-009  0.9118800E+02  0.7561462E-02  0.1125453E+00
         25   -1    0    0    0    0  0.00000000000E+00  0.00000000000E+00  0.99999998245E-14  0.12509000000E+03  0.12509000000E+03 0.  0.
        -13    1    3    3    0    0  0.20217410126E+02 -0.58098830255E+02 -0.84828718054E+01  0.62098212755E+02  0.10566000000E+00 0. -1.
         23    2    1    0    0    0  0.45515408002E+01 -0.29014634206E+02 -0.46433875100E+01  0.95355734088E+02  0.90601266294E+02 0.  0.
         13    1    3    3    0    0 -0.15665869326E+02  0.29084196049E+02  0.38394842955E+01  0.33257521333E+02  0.10566000000E+00 0.  1.
         22    1    1    0    0    0 -0.45515408002E+01  0.29014634206E+02  0.46433875100E+01  0.29734265912E+02  0.00000000000E+00 0. -1.
</event>
<event>
 5    1  0.1261138E-009  0.9118800E+02  0.7561462E-02  0.1125453E+00
         25   -1    0    0    0    0  0.00000000000E+00  0.00000000000E+00  0.99999998245E-14  0.12509000000E+03  0.12509000000E+03 0.  0.
        -13    1    3    3    0    0 -0.13612215249E+02 -0.15109709762E+01  0.45727595593E+02  0.47734679218E+02  0.10566000000E+00 0.  1.
         23    2    1    0    0    0 -0.21577772403E+02  0.24095595647E+02  0.12548734998E+02  0.90396070538E+02  0.83473234197E+02 0.  0.
         13    1    3    3    0    0 -0.79655571536E+01  0.25606566623E+02 -0.33178860595E+02  0.42661391321E+02  0.10566000000E+00 0. -1.
         22    1    1    0    0    0  0.21577772403E+02 -0.24095595647E+02 -0.12548734998E+02  0.34693929462E+02  0.00000000000E+00 0.  1.
</event>
<event>
 5    1  0.1261138E-009  0.9118800E+02  0.7561462E-02  0.1125453E+00
         25   -1    0    0    0    0  0.00000000000E+00  0.00000000000E+00  0.99999998245E-14  0.12509000000E+03  0.12509000000E+03 0.  0.
        -13    1    3    3    0    0 -0.34916275688E+02 -0.47895872225E+02 -0.14027938066E+01  0.59288615085E+02  0.10566000000E+00 0.  1.
         23    2    1    0    0    0 -0.27176866508E+02 -0.14917172397E+02 -0.61191204919E+01  0.93490193970E+02  0.87987889095E+02 0.  0.
         13    1    3    3    0    0  0.77394091801E+01  0.32978699828E+02 -0.47163266853E+01  0.34201578885E+02  0.10566000000E+00 0. -1.
         22    1    1    0    0    0  0.27176866508E+02  0.14917172397E+02  0.61191204919E+01  0.31599806030E+02  0.00000000000E+00 0.  1.
</event>
<event>
 5    1  0.1261138E-009  0.9118800E+02  0.7561462E-02  0.1125453E+00
         25   -1    0    0    0    0  0.00000000000E+00  0.00000000000E+00  0.99999998245E-14  0.12509000000E+03  0.12509000000E+03 0.  0.
        -13    1    3    3    0    0 -0.79875445576E+00  0.24545683522E+02 -0.32873109124E+02  0.41033901299E+02  0.10566000000E+00 0. -1.
         23    2    1    0    0    0 -0.18228358938E+02 -0.21464403301E+02 -0.11846318309E+02  0.94539567334E+02  0.89467317248E+02 0.  0.
         13    1    3    3    0    0 -0.17429604482E+02 -0.46010086823E+02  0.21026790816E+02  0.53505666035E+02  0.10566000000E+00 0.  1.
         22    1    1    0    0    0  0.18228358938E+02  0.21464403301E+02  0.11846318309E+02  0.30550432666E+02  0.00000000000E+00 0.  1.
</event>
<event>
 5    1  0.1261138E-009  0.9118800E+02  0.7561462E-02  0.1125453E+00
         25   -1    0    0    0    0  0.00000000000E+00  0.00000000000E+00  0.99999998245E-14  0.12509000000E+03  0.12509000000E+03 0.  0.
        -13    1    3    3    0    0  0.38713955982E+02 -0.41591038572E+02 -0.13733645256E+02  0.58456899108E+02  0.10566000000E+00 0. -1.
         23    2    1    0    0    0  0.87264305037E+01 -0.20516762443E+02 -0.19389209987E+02  0.95542925790E+02  0.90859347753E+02 0.  0.
         13    1    3    3    0    0 -0.29987525478E+02  0.21074276129E+02 -0.56555647302E+01  0.37086026682E+02  0.10566000000E+00 0.  1.
         22    1    1    0    0    0 -0.87264305037E+01  0.20516762443E+02  0.19389209987E+02  0.29547074210E+02  0.00000000000E+00 0. -1.
</event>
<event>
 5    1  0.1261138E-009  0.9118800E+02  0.7561462E-02  0.1125453E+00
         25   -1    0    0    0    0  0.00000000000E+00  0.00000000000E+00  0.99999998245E-14  0.12509000000E+03  0.12509000000E+03 0.  0.
        -13    1    3    3    0    0  0.30040429797E+02 -0.35909300754E+02 -0.39175272342E+02  0.61046035335E+02  0.10566000000E+00 0.  1.
         23    2    1    0    0    0  0.90131404638E+01 -0.12689089114E+02 -0.25473745433E+02  0.95237673626E+02  0.90438117449E+02 0.  0.
         13    1    3    3    0    0 -0.21027289333E+02  0.23220211640E+02  0.13701526908E+02  0.34191638290E+02  0.10566000000E+00 0. -1.
         22    1    1    0    0    0 -0.90131404638E+01  0.12689089114E+02  0.25473745433E+02  0.29852326374E+02  0.00000000000E+00 0.  1.
</event>
<event>
 5    1  0.1261138E-009  0.9118800E+02  0.7561462E-02  0.1125453E+00
         25   -1    0    0    0    0  0.00000000000E+00  0.00000000000E+00  0.99999998245E-14  0.12509000000E+03  0.12509000000E+03 0.  0.
        -13    1    3    3    0    0 -0.26312118616E+02 -0.14144550185E+02 -0.28063978258E+02  0.40987728965E+02  0.10566000000E+00 0.  1.
         23    2    1    0    0    0 -0.11847541391E+02  0.24003514921E+01  0.24395117477E+02  0.97864135807E+02  0.94000752105E+02 0.  0.
         13    1    3    3    0    0  0.14464577225E+02  0.16544901677E+02  0.52459095736E+02  0.56876406842E+02  0.10566000000E+00 0. -1.
         22    1    1    0    0    0  0.11847541391E+02 -0.24003514921E+01 -0.24395117477E+02  0.27225864193E+02  0.00000000000E+00 0. -1.
</event>
<event>
 5    1  0.1261138E-009  0.9118800E+02  0.7561462E-02  0.1125453E+00
         25   -1    0    0    0    0  0.00000000000E+00  0.00000000000E+00  0.99999998245E-14  0.12509000000E+03  0.12509000000E+03 0.  0.
        -13    1    3    3    0    0 -0.22755604277E+02  0.43564517289E+02  0.17514180643E+01  0.49180924370E+02  0.10566000000E+00 0. -1.
         23    2    1    0    0    0  0.14219314239E+02  0.20195607155E+02  0.16551498494E+02  0.95357802836E+02  0.90604122498E+02 0.  0.
         13    1    3    3    0    0  0.36974918516E+02 -0.23368910134E+02  0.14800080430E+02  0.46176878466E+02  0.10566000000E+00 0.  1.
         22    1    1    0    0    0 -0.14219314239E+02 -0.20195607155E+02 -0.16551498494E+02  0.29732197164E+02  0.00000000000E+00 0. -1.
</event>
<event>
 5    1  0.1261138E-009  0.9118800E+02  0.7561462E-02  0.1125453E+00
         25   -1    0    0    0    0  0.00000000000E+00  0.00000000000E+00  0.99999998245E-14  0.12509000000E+03  0.12509000000E+03 0.  0.
        -13    1    3    3    0    0  0.32390900050E+02  0.70422185004E+01 -0.23400487861E+02  0.40575328016E+02  0.10566000000E+00 0.  1.
         23    2    1    0    0    0 -0.10785899875E+02 -0.25068472298E+02 -0.99795614716E+01  0.96032202653E+02  0.91530477764E+02 0.  0.
         13    1    3    3    0    0 -0.43176799925E+02 -0.32110690799E+02  0.13420926389E+02  0.55456874637E+02  0.10566000000E+00 0. -1.
         22    1    1    0    0    0  0.10785899875E+02  0.25068472298E+02  0.99795614716E+01  0.29057797347E+02  0.00000000000E+00 0. -1.
</event>
<event>
 5    1  0.1261138E-009  0.9118800E+02  0.7561462E-02  0.1125453E+00
         25   -1    0    0    0    0  0.00000000000E+00  0.00000000000E+00  0.99999998245E-14  0.12509000000E+03  0.12509000000E+03 0.  0.
        -13    1    3    3    0    0  0.55152912940E+01  0.21963483163E+02 -0.27770984247E+02  0.35833667979E+02  0.10566000000E+00 0. -1.
         23    2    1    0    0    0  0.19916983700E+02 -0.12447055772E+02  0.18445461955E+02  0.95226133810E+02  0.90422154678E+02 0.  0.
         13    1    3    3    0    0  0.14401692406E+02 -0.34410538935E+02  0.46216446202E+02  0.59392465831E+02  0.10566000000E+00 0.  1.
         22    1    1    0    0    0 -0.19916983700E+02  0.12447055772E+02 -0.18445461955E+02  0.29863866190E+02  0.00000000000E+00 0.  1.
</event>
<event>
 5    1  0.1261138E-009  0.9118800E+02  0.7561462E-02  0.1125453E+00
         25   -1    0    0    0    0  0.00000000000E+00  0.00000000000E+00  0.99999998245E-14  0.12509000000E+03  0.12509000000E+03 0.  0.
        -13    1    3    3    0    0  0.33364785944E+02  0.30818162353E+02 -0.19426088327E+02  0.49399920482E+02  0.10566000000E+00 0.  1.
         23    2    1    0    0    0 -0.40269720792E+01  0.47998015820E+01 -0.28552204394E+02  0.95858459242E+02  0.91292722783E+02 0.  0.
         13    1    3    3    0    0 -0.37391758023E+02 -0.26018360771E+02 -0.91261160662E+01  0.46458538760E+02  0.10566000000E+00 0. -1.
         22    1    1    0    0    0  0.40269720792E+01 -0.47998015820E+01  0.28552204394E+02  0.29231540758E+02  0.00000000000E+00 0.  1.
</event>
<event>
 5    1  0.1261138E-009  0.9118800E+02  0.7561462E-02  0.1125453E+00
         25   -1    0    0    0    0  0.00000000000E+00  0.00000000000E+00  0.99999998245E-14  0.12509000000E+03  0.12509000000E+03 0.  0.
        -13    1    3    3    0    0 -0.33218458307E+02 -0.11911072249E+02 -0.14930454619E+02  0.38318001691E+02  0.10566000000E+00 0.  1.
         23    2    1    0    0    0  0.33119041113E+01  0.15621115811E+02  0.22551948170E+02  0.97457078796E+02  0.93457497683E+02 0.  0.
         13    1    3    3    0    0  0.36530362419E+02  0.27532188061E+02  0.37482402789E+02  0.59139077104E+02  0.10566000000E+00 0. -1.
         22    1    1    0    0    0 -0.33119041113E+01 -0.15621115811E+02 -0.22551948170E+02  0.27632921204E+02  0.00000000000E+00 0. -1.
</event>
<event>
 5    1  0.1261138E-009  0.9118800E+02  0.7561462E-02  0.1125453E+00
         25   -1    0    0    0    0  0.00000000000E+00  0.00000000000E+00  0.99999998245E-14  0.12509000000E+03  0.12509000000E+03 0.  0.
        -13    1    3    3    0    0  0.65952776031E+01  0.10770043160E+02 -0.47549223112E+02  0.49197879008E+02  0.10566000000E+00 0. -1.
         23    2    1    0    0    0  0.13148763556E+02 -0.22053110388E+02 -0.20259050377E+02  0.92384361602E+02  0.86401455344E+02 0.  0.
         13    1    3    3    0    0  0.65534859533E+01 -0.32823153547E+02  0.27290172734E+02  0.43186482594E+02  0.10566000000E+00 0.  1.
         22    1    1    0    0    0 -0.13148763556E+02  0.22053110388E+02  0.20259050377E+02  0.32705638398E+02  0.00000000000E+00 0. -1.
</event>
<event>
 5    1  0.1261138E-009  0.9118800E+02  0.7561462E-02  0.1125453E+00
         25   -1    0    0    0    0  0.00000000000E+00  0.00000000000E+00  0.99999998245E-14  0.12509000000E+03  0.12509000000E+03 0.  0.
        -13    1    3    3    0    0 -0.22494308473E+02 -0.28399410955E+02 -0.98152778794E+00  0.36242171804E+02  0.10566000000E+00 0.  1.
         23    2    1    0    0    0 -0.42663965204E+01  0.26877245592E+02  0.11120830566E+02  0.95691677899E+02  0.91063910946E+02 0.  0.
         13    1    3    3    0    0  0.18227911953E+02  0.55276656547E+02  0.12102358354E+02  0.59449506095E+02  0.10566000000E+00 0. -1.
         22    1    1    0    0    0  0.42663965204E+01 -0.26877245592E+02 -0.11120830566E+02  0.29398322101E+02  0.00000000000E+00 0. -1.
</event>
<event>
 5    1  0.1261138E-009  0.9118800E+02  0.7561462E-02  0.1125453E+00
         25   -1    0    0    0    0  0.00000000000E+00  0.00000000000E+00  0.99999998245E-14  0.12509000000E+03  0.12509000000E+03 0.  0.
        -13    1    3    3    0    0  0.29203680325E+02 -0.25644444083E+02  0.54901901627E+00  0.38869075661E+02  0.10566000000E+00 0.  1.
         23    2    1    0    0    0 -0.36534512997E+01  0.11090458589E+02 -0.27242713352E+02  0.95450306869E+02  0.90731745671E+02 0.  0.
         13    1    3    3    0    0 -0.32857131624E+02  0.36734902673E+02 -0.27791732368E+02  0.56581231208E+02  0.10566000000E+00 0. -1.
         22    1    1    0    0    0  0.36534512997E+01 -0.11090458589E+02  0.27242713352E+02  0.29639693131E+02  0.00000000000E+00 0. -1.
</event>
<event>
 5    1  0.1261138E-009  0.9118800E+02  0.7561462E-02  0.1125453E+00
         25   -1    0    0    0    0  0.00000000000E+00  0.00000000000E+00  0.99999998245E-14  0.12509000000E+03  0.12509000000E+03 0.  0.
        -13    1    3    3    0    0 -0.88529523281E+01 -0.40673676757E+02 -0.24088501273E+01  0.41695760802E+02  0.10566000000E+00 0.  1.
         23    2    1    0    0    0  0.11576905420E+02  0.43099645406E+01  0.24279196843E+02  0.97848855883E+02  0.93980416390E+02 0.  0.
         13    1    3    3    0    0  0.20429857748E+02  0.44983641298E+02  0.26688046970E+02  0.56153095081E+02  0.10566000000E+00 0. -1.
         22    1    1    0    0    0 -0.11576905420E+02 -0.43099645406E+01 -0.24279196843E+02  0.27241144117E+02  0.00000000000E+00 0. -1.
</event>
<event>
 5    1  0.1261138E-009  0.9118800E+02  0.7561462E-02  0.1125453E+00
         25   -1    0    0    0    0  0.00000000000E+00  0.00000000000E+00  0.99999998245E-14  0.12509000000E+03  0.12509000000E+03 0.  0.
        -13    1    3    3    0    0 -0.37643585885E+02 -0.10611976250E+01 -0.44832737799E+02  0.58550416234E+02  0.10566000000E+00 0. -1.
         23    2    1    0    0    0 -0.28320228867E+02 -0.54358806535E+01 -0.10490243848E+02  0.94404019853E+02  0.89277598461E+02 0.  0.
         13    1    3    3    0    0  0.93233570175E+01 -0.43746830286E+01  0.34342493951E+02  0.35853603619E+02  0.10566000000E+00 0.  1.
         22    1    1    0    0    0  0.28320228867E+02  0.54358806535E+01  0.10490243848E+02  0.30685980147E+02  0.00000000000E+00 0. -1.
</event>
<event>
 5    1  0.1261138E-009  0.9118800E+02  0.7561462E-02  0.1125453E+00
         25   -1    0    0    0    0  0.00000000000E+00  0.00000000000E+00  0.99999998245E-14  0.12509000000E+03  0.12509000000E+03 0.  0.
        -13    1    3    3    0    0  0.10163705498E+02  0.38264014136E+01 -0.44632543997E+02  0.45934925763E+02  0.10566000000E+00 0. -1.
         23    2    1    0    0    0 -0.24953065911E+02 -0.10952401423E+02 -0.17629029701E+02  0.92633979241E+02  0.86762093258E+02 0.  0.
         13    1    3    3    0    0 -0.35116771409E+02 -0.14778802836E+02  0.27003514295E+02  0.46699053478E+02  0.10566000000E+00 0.  1.
         22    1    1    0    0    0  0.24953065911E+02  0.10952401423E+02  0.17629029701E+02  0.32456020759E+02  0.00000000000E+00 0. -1.
</event>
<event>
 5    1  0.1261138E-009  0.9118800E+02  0.7561462E-02  0.1125453E+00
         25   -1    0    0    0    0  0.00000000000E+00  0.00000000000E+00  0.99999998245E-14  0.12509000000E+03  0.12509000000E+03 0.  0.
        -13    1    3    3    0    0  0.50414419722E+01  0.40236220999E+02 -0.14103128224E+02  0.42933425291E+02  0.10566000000E+00 0.  1.
         23    2    1    0    0    0  0.29502293145E+02 -0.34160503895E+01  0.15126370081E+01  0.95352098732E+02  0.90596246947E+02 0.  0.
         13    1    3    3    0    0  0.24460851173E+02 -0.43652271389E+02  0.15615765232E+02  0.52418673441E+02  0.10566000000E+00 0. -1.
         22    1    1    0    0    0 -0.29502293145E+02  0.34160503895E+01 -0.15126370081E+01  0.29737901268E+02  0.00000000000E+00 0. -1.
</event>
<event>
 5    1  0.1261138E-009  0.9118800E+02  0.7561462E-02  0.1125453E+00
         25   -1    0    0    0    0  0.00000000000E+00  0.00000000000E+00  0.99999998245E-14  0.12509000000E+03  0.12509000000E+03 0.  0.
        -13    1    3    3    0    0 -0.43596788146E+02  0.20156807250E+02  0.68004809699E+01  0.48510148636E+02  0.10566000000E+00 0. -1.
         23    2    1    0    0    0 -0.18305701877E+02 -0.19905883897E+02  0.10607269063E+02  0.96040781561E+02  0.91542201366E+02 0.  0.
         13    1    3    3    0    0  0.25291086269E+02 -0.40062691148E+02  0.38067880929E+01  0.47530632926E+02  0.10566000000E+00 0.  1.
         22    1    1    0    0    0  0.18305701877E+02  0.19905883897E+02 -0.10607269063E+02  0.29049218439E+02  0.00000000000E+00 0.  1.
</event>
<event>
 5    1  0.1261138E-009  0.9118800E+02  0.7561462E-02  0.1125453E+00
         25   -1    0    0    0    0  0.00000000000E+00  0.00000000000E+00  0.99999998245E-14  0.12509000000E+03  0.12509000000E+03 0.  0.
        -13    1    3    3    0    0 -0.22840842007E+02  0.50411291232E+01  0.41828513740E+02  0.47924448585E+02  0.10566000000E+00 0.  1.
         23    2    1    0    0    0  0.14695328322E+02  0.19464222222E+02  0.19076475507E+02  0.94126787327E+02  0.88888309431E+02 0.  0.
         13    1    3    3    0    0  0.37536170329E+02  0.14423093099E+02 -0.22752038232E+02  0.46202338743E+02  0.10566000000E+00 0. -1.
         22    1    1    0    0    0 -0.14695328322E+02 -0.19464222222E+02 -0.19076475507E+02  0.30963212673E+02  0.00000000000E+00 0.  1.
</event>
<event>
 5    1  0.1261138E-009  0.9118800E+02  0.7561462E-02  0.1125453E+00
         25   -1    0    0    0    0  0.00000000000E+00  0.00000000000E+00  0.99999998245E-14  0.12509000000E+03  0.12509000000E+03 0.  0.
        -13    1    3    3    0    0  0.14806845770E+02 -0.54892211380E+02 -0.15173926017E+02  0.58844343370E+02  0.10566000000E+00 0. -1.
         23    2    1    0    0    0 -0.39065917996E+01 -0.32927976270E+02  0.98566865822E+00  0.91916446928E+02  0.85721342689E+02 0.  0.
         13    1    3    3    0    0 -0.18713437570E+02  0.21964235110E+02  0.16159594675E+02  0.33072103558E+02  0.10566000000E+00 0.  1.
         22    1    1    0    0    0  0.39065917996E+01  0.32927976270E+02 -0.98566865822E+00  0.33173553072E+02  0.00000000000E+00 0. -1.
</event>
<event>
 5    1  0.1261138E-009  0.9118800E+02  0.7561462E-02  0.1125453E+00
         25   -1    0    0    0    0  0.00000000000E+00  0.00000000000E+00  0.99999998245E-14  0.12509000000E+03  0.12509000000E+03 0.  0.
        -13    1    3    3    0    0  0.52540861788E+02  0.25255381572E+02 -0.29716056224E+00  0.58296448641E+02  0.10566000000E+00 0. -1.
         23    2    1    0    0    0  0.50228472122E+01  0.14214152210E+02 -0.85273812255E+01  0.10776985717E+03  0.10636895584E+03 0.  0.
         13    1    3    3    0    0 -0.47518014576E+02 -0.11041229362E+02 -0.82302206633E+01  0.49473408527E+02  0.10566000000E+00 0.  1.
         22    1    1    0    0    0 -0.50228472122E+01 -0.14214152210E+02  0.85273812255E+01  0.17320142832E+02  0.00000000000E+00 0.  1.
</event>
<event>
 5    1  0.1261138E-009  0.9118800E+02  0.7561462E-02  0.1125453E+00
         25   -1    0    0    0    0  0.00000000000E+00  0.00000000000E+00  0.99999998245E-14  0.12509000000E+03  0.12509000000E+03 0.  0.
        -13    1    3    3    0    0  0.52839864191E+02  0.11065699235E+01  0.17718360797E+02  0.55742508179E+02  0.10566000000E+00 0.  1.
         23    2    1    0    0    0  0.17202762757E+02  0.20209482659E+02  0.85932853869E+01  0.97193713696E+02  0.93104324242E+02 0.  0.
         13    1    3    3    0    0 -0.35637101434E+02  0.19102912735E+02 -0.91250754102E+01  0.41451205518E+02  0.10566000000E+00 0. -1.
         22    1    1    0    0    0 -0.17202762757E+02 -0.20209482659E+02 -0.85932853869E+01  0.27896286304E+02  0.00000000000E+00 0.  1.
</event>
<event>
 5    1  0.1261138E-009  0.9118800E+02  0.7561462E-02  0.1125453E+00
         25   -1    0    0    0    0  0.00000000000E+00  0.00000000000E+00  0.99999998245E-14  0.12509000000E+03  0.12509000000E+03 0.  0.
        -13    1    3    3    0    0  0.11352234599E+02 -0.40661035909E+02  0.10688848126E+02  0.43548314662E+02  0.10566000000E+00 0.  1.
         23    2    1    0    0    0 -0.24487611697E+02 -0.28340535282E+01  0.15645893240E+02  0.95892928892E+02  0.91339941155E+02 0.  0.
         13    1    3    3    0    0 -0.35839846296E+02  0.37826982381E+02  0.49570451138E+01  0.52344614230E+02  0.10566000000E+00 0. -1.
         22    1    1    0    0    0  0.24487611697E+02  0.28340535282E+01 -0.15645893240E+02  0.29197071108E+02  0.00000000000E+00 0. -1.
</event>
<event>
 5    1  0.1261138E-009  0.9118800E+02  0.7561462E-02  0.1125453E+00
         25   -1    0    0    0    0  0.00000000000E+00  0.00000000000E+00  0.99999998245E-14  0.12509000000E+03  0.12509000000E+03 0.  0.
        -13    1    3    3    0    0 -0.31321503268E+02  0.44496166174E+02  0.70157555766E+00  0.54419194624E+02  0.10566000000E+00 0.  1.
         23    2    1    0    0    0 -0.10694254225E+02  0.14457510890E+02  0.22038427232E+02  0.96645686519E+02  0.92365089473E+02 0.  0.
         13    1    3    3    0    0  0.20627249044E+02 -0.30038655284E+02  0.21336851674E+02  0.42226491896E+02  0.10566000000E+00 0. -1.
         22    1    1    0    0    0  0.10694254225E+02 -0.14457510890E+02 -0.22038427232E+02  0.28444313481E+02  0.00000000000E+00 0.  1.
</event>
<event>
 5    1  0.1261138E-009  0.9118800E+02  0.7561462E-02  0.1125453E+00
         25   -1    0    0    0    0  0.00000000000E+00  0.00000000000E+00  0.99999998245E-14  0.12509000000E+03  0.12509000000E+03 0.  0.
        -13    1    3    3    0    0  0.84821497960E+01 -0.12139431021E+02 -0.10624519846E+02  0.18226470769E+02  0.10566000000E+00 0. -1.
         23    2    1    0    0    0 -0.24278572304E+02  0.12707912168E+02  0.35646929834E+02  0.80127307561E+02  0.66323010378E+02 0.  0.
         13    1    3    3    0    0 -0.32760722100E+02  0.24847343190E+02  0.46271449680E+02  0.61900836792E+02  0.10566000000E+00 0.  1.
         22    1    1    0    0    0  0.24278572304E+02 -0.12707912168E+02 -0.35646929834E+02  0.44962692439E+02  0.00000000000E+00 0.  1.
</event>
<event>
 5    1  0.1261138E-009  0.9118800E+02  0.7561462E-02  0.1125453E+00
         25   -1    0    0    0    0  0.00000000000E+00  0.00000000000E+00  0.99999998245E-14  0.12509000000E+03  0.12509000000E+03 0.  0.
        -13    1    3    3    0    0 -0.82020732134E+01  0.47627850199E+02  0.32116946387E+02  0.58027541124E+02  0.10566000000E+00 0.  1.
         23    2    1    0    0    0  0.88266797601E+01  0.15264128388E+02  0.23693367543E+02  0.95555620769E+02  0.90876823801E+02 0.  0.
         13    1    3    3    0    0  0.17028752973E+02 -0.32363721812E+02 -0.84235788443E+01  0.37528079646E+02  0.10566000000E+00 0. -1.
         22    1    1    0    0    0 -0.88266797601E+01 -0.15264128388E+02 -0.23693367543E+02  0.29534379231E+02  0.00000000000E+00 0.  1.
</event>
<event>
 5    1  0.1261138E-009  0.9118800E+02  0.7561462E-02  0.1125453E+00
         25   -1    0    0    0    0  0.00000000000E+00  0.00000000000E+00  0.99999998245E-14  0.12509000000E+03  0.12509000000E+03 0.  0.
        -13    1    3    3    0    0  0.48473200992E+02 -0.10841587540E+01  0.29040159245E+02  0.56516976455E+02  0.10566000000E+00 0.  1.
         23    2    1    0    0    0  0.13019205735E+02 -0.15541613551E+02  0.21495441501E+02  0.95541810968E+02  0.90857812916E+02 0.  0.
         13    1    3    3    0    0 -0.35453995257E+02 -0.14457454797E+02 -0.75447177433E+01  0.39024834513E+02  0.10566000000E+00 0. -1.
         22    1    1    0    0    0 -0.13019205735E+02  0.15541613551E+02 -0.21495441501E+02  0.29548189032E+02  0.00000000000E+00 0.  1.
</event>
<event>
 5    1  0.1261138E-009  0.9118800E+02  0.7561462E-02  0.1125453E+00
         25   -1    0    0    0    0  0.00000000000E+00  0.00000000000E+00  0.99999998245E-14  0.12509000000E+03  0.12509000000E+03 0.  0.
        -13    1    3    3    0    0  0.16240158154E+02  0.42086314278E+02  0.37640531406E+02  0.58752202979E+02  0.10566000000E+00 0.  1.
         23    2    1    0    0    0  0.20203232036E+02  0.19443657997E+02  0.86580183929E+01  0.95744000213E+02  0.91135755185E+02 0.  0.
         13    1    3    3    0    0  0.39630738820E+01 -0.22642656280E+02 -0.28982513013E+02  0.36991797234E+02  0.10566000000E+00 0. -1.
         22    1    1    0    0    0 -0.20203232036E+02 -0.19443657997E+02 -0.86580183929E+01  0.29345999787E+02  0.00000000000E+00 0.  1.
</event>
<event>
 5    1  0.1261138E-009  0.9118800E+02  0.7561462E-02  0.1125453E+00
         25   -1    0    0    0    0  0.00000000000E+00  0.00000000000E+00  0.99999998245E-14  0.12509000000E+03  0.12509000000E+03 0.  0.
        -13    1    3    3    0    0  0.19326687442E+02  0.44765587071E+02 -0.17930704100E+01  0.48792467644E+02  0.10566000000E+00 0.  1.
         23    2    1    0    0    0 -0.13474840344E+02  0.27768369582E+02 -0.18246742069E+02  0.89234773496E+02  0.81714426714E+02 0.  0.
         13    1    3    3    0    0 -0.32801527786E+02 -0.16997217489E+02 -0.16453671659E+02  0.40442305851E+02  0.10566000000E+00 0. -1.
         22    1    1    0    0    0  0.13474840344E+02 -0.27768369582E+02  0.18246742069E+02  0.35855226504E+02  0.00000000000E+00 0.  1.
</event>
<event>
 5    1  0.1261138E-009  0.9118800E+02  0.7561462E-02  0.1125453E+00
         25   -1    0    0    0    0  0.00000000000E+00  0.00000000000E+00  0.99999998245E-14  0.12509000000E+03  0.12509000000E+03 0.  0.
        -13    1    3    3    0    0  0.15197091528E+02  0.59208725065E+02  0.26844786169E+01  0.61186945538E+02  0.10566000000E+00 0.  1.
         23    2    1    0    0    0  0.13577875496E+02  0.23993083775E+02 -0.44777061281E+01  0.97160148153E+02  0.93059216443E+02 0.  0.
         13    1    3    3    0    0 -0.16192160318E+01 -0.35215641290E+02 -0.71621847450E+01  0.35973202615E+02  0.10566000000E+00 0. -1.
         22    1    1    0    0    0 -0.13577875496E+02 -0.23993083775E+02  0.44777061281E+01  0.27929851847E+02  0.00000000000E+00 0.  1.
</event>
<event>
 5    1  0.1261138E-009  0.9118800E+02  0.7561462E-02  0.1125453E+00
         25   -1    0    0    0    0  0.00000000000E+00  0.00000000000E+00  0.99999998245E-14  0.12509000000E+03  0.12509000000E+03 0.  0.
        -13    1    3    3    0    0 -0.41857680360E+02  0.24964004234E+02  0.24521758845E+02  0.54558177512E+02  0.10566000000E+00 0. -1.
         23    2    1    0    0    0 -0.77661827438E+01  0.29050891784E+02  0.35051909079E+01  0.94815352667E+02  0.89852083060E+02 0.  0.
         13    1    3    3    0    0  0.34091497616E+02  0.40868875502E+01 -0.21016567937E+02  0.40257175155E+02  0.10566000000E+00 0.  1.
         22    1    1    0    0    0  0.77661827438E+01 -0.29050891784E+02 -0.35051909079E+01  0.30274647333E+02  0.00000000000E+00 0.  1.
</event>
<event>
 5    1  0.1261138E-009  0.9118800E+02  0.7561462E-02  0.1125453E+00
         25   -1    0    0    0    0  0.00000000000E+00  0.00000000000E+00  0.99999998245E-14  0.12509000000E+03  0.12509000000E+03 0.  0.
        -13    1    3    3    0    0  0.48606531951E+02 -0.32886544005E+02  0.71794493019E+01  0.59124236834E+02  0.10566000000E+00 0.  1.
         23    2    1    0    0    0  0.26688612200E+02 -0.40457018374E+01  0.11777187564E+02  0.95639161787E+02  0.90991743558E+02 0.  0.
         13    1    3    3    0    0 -0.21917919751E+02  0.28840842167E+02  0.45977382625E+01  0.36514924953E+02  0.10566000000E+00 0. -1.
         22    1    1    0    0    0 -0.26688612200E+02  0.40457018374E+01 -0.11777187564E+02  0.29450838213E+02  0.00000000000E+00 0.  1.
</event>
<event>
 5    1  0.1261138E-009  0.9118800E+02  0.7561462E-02  0.1125453E+00
         25   -1    0    0    0    0  0.00000000000E+00  0.00000000000E+00  0.99999998245E-14  0.12509000000E+03  0.12509000000E+03 0.  0.
        -13    1    3    3    0    0  0.15149533482E+02  0.46317945215E+02  0.22073418685E+02  0.53498667180E+02  0.10566000000E+00 0.  1.
         23    2    1    0    0    0 -0.15033631851E+02  0.26369470433E+02  0.17727604604E+02  0.89938513224E+02  0.82784715609E+02 0.  0.
         13    1    3    3    0    0 -0.30183165333E+02 -0.19948474781E+02 -0.43458140805E+01  0.36439846044E+02  0.10566000000E+00 0. -1.
         22    1    1    0    0    0  0.15033631851E+02 -0.26369470433E+02 -0.17727604604E+02  0.35151486776E+02  0.00000000000E+00 0.  1.
</event>
<event>
 5    1  0.1261138E-009  0.9118800E+02  0.7561462E-02  0.1125453E+00
         25   -1    0    0    0    0  0.00000000000E+00  0.00000000000E+00  0.99999998245E-14  0.12509000000E+03  0.12509000000E+03 0.  0.
        -13    1    3    3    0    0  0.63806213890E+01 -0.67190136216E+01 -0.58585744149E+02  0.59314062876E+02  0.10566000000E+00 0.  1.
         23    2    1    0    0    0  0.36202245696E+01  0.11080099587E+02 -0.27129724150E+02  0.95562105303E+02  0.90885749183E+02 0.  0.
         13    1    3    3    0    0 -0.27603968195E+01  0.17799113208E+02  0.31456019998E+02  0.36248042427E+02  0.10566000000E+00 0. -1.
         22    1    1    0    0    0 -0.36202245696E+01 -0.11080099587E+02  0.27129724150E+02  0.29527894697E+02  0.00000000000E+00 0.  1.
</event>
<event>
 5    1  0.1261138E-009  0.9118800E+02  0.7561462E-02  0.1125453E+00
         25   -1    0    0    0    0  0.00000000000E+00  0.00000000000E+00  0.99999998245E-14  0.12509000000E+03  0.12509000000E+03 0.  0.
        -13    1    3    3    0    0  0.12477685831E+02  0.30230516479E+02 -0.15513163843E+02  0.36197322922E+02  0.10566000000E+00 0. -1.
         23    2    1    0    0    0 -0.84067117174E+01 -0.64577072364E+01  0.26983689043E+02  0.96098720983E+02  0.91621339848E+02 0.  0.
         13    1    3    3    0    0 -0.20884397548E+02 -0.36688223716E+02  0.42496852887E+02  0.59901398061E+02  0.10566000000E+00 0.  1.
         22    1    1    0    0    0  0.84067117174E+01  0.64577072364E+01 -0.26983689043E+02  0.28991279017E+02  0.00000000000E+00 0.  1.
</event>
<event>
 5    1  0.1261138E-009  0.9118800E+02  0.7561462E-02  0.1125453E+00
         25   -1    0    0    0    0  0.00000000000E+00  0.00000000000E+00  0.99999998245E-14  0.12509000000E+03  0.12509000000E+03 0.  0.
        -13    1    3    3    0    0 -0.49441582565E+02  0.14450476174E+02 -0.33457227387E+02  0.61422174959E+02  0.10566000000E+00 0.  1.
         23    2    1    0    0    0 -0.27929038325E+02  0.41274448038E+01 -0.93296353913E+01  0.95356028202E+02  0.90601672366E+02 0.  0.
         13    1    3    3    0    0  0.21512544240E+02 -0.10323031370E+02  0.24127591996E+02  0.33933853243E+02  0.10566000000E+00 0. -1.
         22    1    1    0    0    0  0.27929038325E+02 -0.41274448038E+01  0.93296353913E+01  0.29733971798E+02  0.00000000000E+00 0.  1.
</event>
<event>
 5    1  0.1261138E-009  0.9118800E+02  0.7561462E-02  0.1125453E+00
         25   -1    0    0    0    0  0.00000000000E+00  0.00000000000E+00  0.99999998245E-14  0.12509000000E+03  0.12509000000E+03 0.  0.
        -13    1    3    3    0    0  0.91175526715E+01  0.15059077204E+02  0.31941777174E+02  0.36471822905E+02  0.10566000000E+00 0.  1.
         23    2    1    0    0    0  0.38980563006E+02  0.12713462429E+02 -0.47228851160E+01  0.83817465997E+02  0.72951665801E+02 0.  0.
         13    1    3    3    0    0  0.29863010334E+02 -0.23456147751E+01 -0.36664662290E+02  0.47345643092E+02  0.10566000000E+00 0. -1.
         22    1    1    0    0    0 -0.38980563006E+02 -0.12713462429E+02  0.47228851160E+01  0.41272534003E+02  0.00000000000E+00 0. -1.
</event>
<event>
 5    1  0.1261138E-009  0.9118800E+02  0.7561462E-02  0.1125453E+00
         25   -1    0    0    0    0  0.00000000000E+00  0.00000000000E+00  0.99999998245E-14  0.12509000000E+03  0.12509000000E+03 0.  0.
        -13    1    3    3    0    0 -0.25879310129E+02 -0.38235498035E+02  0.15750348555E+02  0.48782954465E+02  0.10566000000E+00 0. -1.
         23    2    1    0    0    0 -0.29052871313E+02  0.57174482874E+01  0.30652854804E+00  0.95478304570E+02  0.90770337321E+02 0.  0.
         13    1    3    3    0    0 -0.31735611845E+01  0.43952946322E+02 -0.15443820007E+02  0.46695350105E+02  0.10566000000E+00 0.  1.
         22    1    1    0    0    0  0.29052871313E+02 -0.57174482874E+01 -0.30652854804E+00  0.29611695430E+02  0.00000000000E+00 0. -1.
</event>
<event>
 5    1  0.1261138E-009  0.9118800E+02  0.7561462E-02  0.1125453E+00
         25   -1    0    0    0    0  0.00000000000E+00  0.00000000000E+00  0.99999998245E-14  0.12509000000E+03  0.12509000000E+03 0.  0.
        -13    1    3    3    0    0 -0.28641893451E+02  0.29359763958E+02  0.28989496165E+02  0.50227043035E+02  0.10566000000E+00 0.  1.
         23    2    1    0    0    0  0.11768303262E+02  0.21722339637E+02  0.27878360215E+00  0.10038310377E+03  0.97295101631E+02 0.  0.
         13    1    3    3    0    0  0.40410196713E+02 -0.76374243213E+01 -0.28710712563E+02  0.50156060736E+02  0.10566000000E+00 0. -1.
         22    1    1    0    0    0 -0.11768303262E+02 -0.21722339637E+02 -0.27878360215E+00  0.24706896229E+02  0.00000000000E+00 0. -1.
</event>
<event>
 5    1  0.1261138E-009  0.9118800E+02  0.7561462E-02  0.1125453E+00
         25   -1    0    0    0    0  0.00000000000E+00  0.00000000000E+00  0.99999998245E-14  0.12509000000E+03  0.12509000000E+03 0.  0.
        -13    1    3    3    0    0  0.39628307910E+02  0.66688562320E+01 -0.39906419286E+02  0.56633999466E+02  0.10566000000E+00 0. -1.
         23    2    1    0    0    0  0.75330165382E+01  0.18533621763E+02 -0.22352123893E+02  0.95092351486E+02  0.90236890432E+02 0.  0.
         13    1    3    3    0    0 -0.32095291372E+02  0.11864765531E+02  0.17554295393E+02  0.38458352020E+02  0.10566000000E+00 0.  1.
         22    1    1    0    0    0 -0.75330165382E+01 -0.18533621763E+02  0.22352123893E+02  0.29997648514E+02  0.00000000000E+00 0. -1.
</event>
<event>
 5    1  0.1261138E-009  0.9118800E+02  0.7561462E-02  0.1125453E+00
         25   -1    0    0    0    0  0.00000000000E+00  0.00000000000E+00  0.99999998245E-14  0.12509000000E+03  0.12509000000E+03 0.  0.
        -13    1    3    3    0    0  0.23370066713E+02  0.10793440415E+02 -0.35072190954E+02  0.43505495245E+02  0.10566000000E+00 0.  1.
         23    2    1    0    0    0  0.53111312143E-01  0.34719873349E+02 -0.23171813458E+01  0.90292848456E+02  0.83318405691E+02 0.  0.
         13    1    3    3    0    0 -0.23316955401E+02  0.23926432934E+02  0.32755009608E+02  0.46787353212E+02  0.10566000000E+00 0. -1.
         22    1    1    0    0    0 -0.53111312143E-01 -0.34719873349E+02  0.23171813458E+01  0.34797151544E+02  0.00000000000E+00 0.  1.
</event>
<event>
 5    1  0.1261138E-009  0.9118800E+02  0.7561462E-02  0.1125453E+00
         25   -1    0    0    0    0  0.00000000000E+00  0.00000000000E+00  0.99999998245E-14  0.12509000000E+03  0.12509000000E+03 0.  0.
        -13    1    3    3    0    0 -0.53069856019E+02 -0.23030190573E+02  0.70074874914E+01  0.58274482757E+02  0.10566000000E+00 0. -1.
         23    2    1    0    0    0 -0.28372705127E+02  0.22753489338E+01 -0.60895679018E+01  0.95982089628E+02  0.91461965226E+02 0.  0.
         13    1    3    3    0    0  0.24697150891E+02  0.25305539507E+02 -0.13097055393E+02  0.37707606870E+02  0.10566000000E+00 0.  1.
         22    1    1    0    0    0  0.28372705127E+02 -0.22753489338E+01  0.60895679018E+01  0.29107910372E+02  0.00000000000E+00 0. -1.
</event>
<event>
 5    1  0.1261138E-009  0.9118800E+02  0.7561462E-02  0.1125453E+00
         25   -1    0    0    0    0  0.00000000000E+00  0.00000000000E+00  0.99999998245E-14  0.12509000000E+03  0.12509000000E+03 0.  0.
        -13    1    3    3    0    0  0.22652067207E+02  0.47404301698E+01  0.46410484048E+02  0.51860698227E+02  0.10566000000E+00 0. -1.
         23    2    1    0    0    0  0.51646543849E+01  0.26651794325E+02  0.14585989498E+02  0.94272101219E+02  0.89092570863E+02 0.  0.
         13    1    3    3    0    0 -0.17487412822E+02  0.21911364155E+02 -0.31824494550E+02  0.42411402992E+02  0.10566000000E+00 0.  1.
         22    1    1    0    0    0 -0.51646543849E+01 -0.26651794325E+02 -0.14585989498E+02  0.30817898781E+02  0.00000000000E+00 0.  1.
</event>
<event>
 5    1  0.1261138E-009  0.9118800E+02  0.7561462E-02  0.1125453E+00
         25   -1    0    0    0    0  0.00000000000E+00  0.00000000000E+00  0.99999998245E-14  0.12509000000E+03  0.12509000000E+03 0.  0.
        -13    1    3    3    0    0  0.20968431199E+02 -0.16427420172E+02 -0.33307035126E+02  0.42648622409E+02  0.10566000000E+00 0.  1.
         23    2    1    0    0    0 -0.14407865744E+02 -0.24910270988E+02  0.54466939332E+01  0.95802209527E+02  0.91215616423E+02 0.  0.
         13    1    3    3    0    0 -0.35376296943E+02 -0.84828508167E+01  0.38753729060E+02  0.53153587117E+02  0.10566000000E+00 0. -1.
         22    1    1    0    0    0  0.14407865744E+02  0.24910270988E+02 -0.54466939332E+01  0.29287790473E+02  0.00000000000E+00 0. -1.
</event>
<event>
 5    1  0.1261138E-009  0.9118800E+02  0.7561462E-02  0.1125453E+00
         25   -1    0    0    0    0  0.00000000000E+00  0.00000000000E+00  0.99999998245E-14  0.12509000000E+03  0.12509000000E+03 0.  0.
        -13    1    3    3    0    0 -0.40817963869E+02 -0.87820638640E+01  0.23222669472E+02  0.47775876356E+02  0.10566000000E+00 0.  1.
         23    2    1    0    0    0  0.21414030523E+01 -0.28375734855E+01  0.32724150666E+02  0.92173325394E+02  0.86095379940E+02 0.  0.
         13    1    3    3    0    0  0.42959366921E+02  0.59444903784E+01  0.95014811938E+01  0.44397449038E+02  0.10566000000E+00 0. -1.
         22    1    1    0    0    0 -0.21414030523E+01  0.28375734855E+01 -0.32724150666E+02  0.32916674606E+02  0.00000000000E+00 0.  1.
</event>
<event>
 5    1  0.1261138E-009  0.9118800E+02  0.7561462E-02  0.1125453E+00
         25   -1    0    0    0    0  0.00000000000E+00  0.00000000000E+00  0.99999998245E-14  0.12509000000E+03  0.12509000000E+03 0.  0.
        -13    1    3    3    0    0 -0.94921792070E+01  0.71804962063E+01 -0.37382358148E+02  0.39231528858E+02  0.10566000000E+00 0. -1.
         23    2    1    0    0    0  0.27495182363E+02 -0.11919074563E+02 -0.87320199204E-01  0.95122400556E+02  0.90278536049E+02 0.  0.
         13    1    3    3    0    0  0.36987361570E+02 -0.19099570769E+02  0.37295037948E+02  0.55890871697E+02  0.10566000000E+00 0.  1.
         22    1    1    0    0    0 -0.27495182363E+02  0.11919074563E+02  0.87320199204E-01  0.29967599444E+02  0.00000000000E+00 0.  1.
</event>
<event>
 5    1  0.1261138E-009  0.9118800E+02  0.7561462E-02  0.1125453E+00
         25   -1    0    0    0    0  0.00000000000E+00  0.00000000000E+00  0.99999998245E-14  0.12509000000E+03  0.12509000000E+03 0.  0.
        -13    1    3    3    0    0  0.30879622901E+02  0.25661270718E+02  0.35826523612E+02  0.53810806382E+02  0.10566000000E+00 0. -1.
         23    2    1    0    0    0  0.16809111308E+01 -0.27149894418E+01  0.29975369711E+02  0.94945026634E+02  0.90032431175E+02 0.  0.
         13    1    3    3    0    0 -0.29198711771E+02 -0.28376260160E+02 -0.58511539005E+01  0.41134220252E+02  0.10566000000E+00 0.  1.
         22    1    1    0    0    0 -0.16809111308E+01  0.27149894418E+01 -0.29975369711E+02  0.30144973366E+02  0.00000000000E+00 0. -1.
</event>
<event>
 5    1  0.1261138E-009  0.9118800E+02  0.7561462E-02  0.1125453E+00
         25   -1    0    0    0    0  0.00000000000E+00  0.00000000000E+00  0.99999998245E-14  0.12509000000E+03  0.12509000000E+03 0.  0.
        -13    1    3    3    0    0 -0.19909874290E+02 -0.37765090344E+02  0.40049267253E+02  0.58536826993E+02  0.10566000000E+00 0. -1.
         23    2    1    0    0    0  0.42459159697E+01 -0.25061638027E+02  0.15040647719E+02  0.95554689153E+02  0.90875541441E+02 0.  0.
         13    1    3    3    0    0  0.24155790260E+02  0.12703452317E+02 -0.25008619534E+02  0.37017862159E+02  0.10566000000E+00 0.  1.
         22    1    1    0    0    0 -0.42459159697E+01  0.25061638027E+02 -0.15040647719E+02  0.29535310847E+02  0.00000000000E+00 0. -1.
</event>
<event>
 5    1  0.1261138E-009  0.9118800E+02  0.7561462E-02  0.1125453E+00
         25   -1    0    0    0    0  0.00000000000E+00  0.00000000000E+00  0.99999998245E-14  0.12509000000E+03  0.12509000000E+03 0.  0.
        -13    1    3    3    0    0  0.27947641429E+02 -0.21952797626E+02  0.61976628022E+01  0.36075173919E+02  0.10566000000E+00 0.  1.
         23    2    1    0    0    0 -0.73856940715E+01  0.27241628701E+02  0.24187389789E+01  0.96761478869E+02  0.92521774105E+02 0.  0.
         13    1    3    3    0    0 -0.35333335500E+02  0.49194426327E+02 -0.37789238233E+01  0.60686304950E+02  0.10566000000E+00 0. -1.
         22    1    1    0    0    0  0.73856940715E+01 -0.27241628701E+02 -0.24187389789E+01  0.28328521131E+02  0.00000000000E+00 0. -1.
</event>
<event>
 5    1  0.1261138E-009  0.9118800E+02  0.7561462E-02  0.1125453E+00
         25   -1    0    0    0    0  0.00000000000E+00  0.00000000000E+00  0.99999998245E-14  0.12509000000E+03  0.12509000000E+03 0.  0.
        -13    1    3    3    0    0 -0.10819295934E+02  0.23053611244E+02 -0.20642910728E+02  0.32782115295E+02  0.10566000000E+00 0.  1.
         23    2    1    0    0    0 -0.31973054091E+02 -0.21120728503E+02  0.19524004920E+01  0.86721090345E+02  0.77771294721E+02 0.  0.
         13    1    3    3    0    0 -0.21153758158E+02 -0.44174339747E+02  0.22595311220E+02  0.53938975050E+02  0.10566000000E+00 0. -1.
         22    1    1    0    0    0  0.31973054091E+02  0.21120728503E+02 -0.19524004920E+01  0.38368909655E+02  0.00000000000E+00 0. -1.
</event>
<event>
 5    1  0.1261138E-009  0.9118800E+02  0.7561462E-02  0.1125453E+00
         25   -1    0    0    0    0  0.00000000000E+00  0.00000000000E+00  0.99999998245E-14  0.12509000000E+03  0.12509000000E+03 0.  0.
        -13    1    3    3    0    0 -0.50947116488E+02  0.93136025934E+01 -0.20429751263E+02  0.55675288706E+02  0.10566000000E+00 0.  1.
         23    2    1    0    0    0 -0.26920492222E+02 -0.49972755005E+00  0.10622303498E+02  0.96145294772E+02  0.91684904680E+02 0.  0.
         13    1    3    3    0    0  0.24026624266E+02 -0.98133301435E+01  0.31052054761E+02  0.40470006067E+02  0.10566000000E+00 0. -1.
         22    1    1    0    0    0  0.26920492222E+02  0.49972755005E+00 -0.10622303498E+02  0.28944705228E+02  0.00000000000E+00 0.  1.
</event>
<event>
 5    1  0.1261138E-009  0.9118800E+02  0.7561462E-02  0.1125453E+00
         25   -1    0    0    0    0  0.00000000000E+00  0.00000000000E+00  0.99999998245E-14  0.12509000000E+03  0.12509000000E+03 0.  0.
        -13    1    3    3    0    0  0.28611312864E+02  0.10681055934E+02  0.25217534822E+02  0.39605901154E+02  0.10566000000E+00 0. -1.
         23    2    1    0    0    0  0.52567397843E+01 -0.30929893468E+02 -0.29514300267E+00  0.93715189522E+02  0.88307179859E+02 0.  0.
         13    1    3    3    0    0 -0.23354573080E+02 -0.41610949402E+02 -0.25512677825E+02  0.54109288368E+02  0.10566000000E+00 0.  1.
         22    1    1    0    0    0 -0.52567397843E+01  0.30929893468E+02  0.29514300267E+00  0.31374810478E+02  0.00000000000E+00 0. -1.
</event>
<event>
 5    1  0.1261138E-009  0.9118800E+02  0.7561462E-02  0.1125453E+00
         25   -1    0    0    0    0  0.00000000000E+00  0.00000000000E+00  0.99999998245E-14  0.12509000000E+03  0.12509000000E+03 0.  0.
        -13    1    3    3    0    0  0.32879093535E+02 -0.18926373789E+02  0.47574807148E+02  0.60849123705E+02  0.10566000000E+00 0. -1.
         23    2    1    0    0    0  0.66418889215E+01 -0.12082907425E+02  0.26595826286E+02  0.95132541561E+02  0.90292586339E+02 0.  0.
         13    1    3    3    0    0 -0.26237204614E+02  0.68434663631E+01 -0.20978980862E+02  0.34283417856E+02  0.10566000000E+00 0.  1.
         22    1    1    0    0    0 -0.66418889215E+01  0.12082907425E+02 -0.26595826286E+02  0.29957458439E+02  0.00000000000E+00 0. -1.
</event>
<event>
 5    1  0.1261138E-009  0.9118800E+02  0.7561462E-02  0.1125453E+00
         25   -1    0    0    0    0  0.00000000000E+00  0.00000000000E+00  0.99999998245E-14  0.12509000000E+03  0.12509000000E+03 0.  0.
        -13    1    3    3    0    0 -0.73796790124E+01  0.36616967130E+02 -0.25977197863E+02  0.45498218832E+02  0.10566000000E+00 0.  1.
         23    2    1    0    0    0 -0.26838277666E+02 -0.67688966546E+01 -0.99883922462E+01  0.95664176483E+02  0.91026125768E+02 0.  0.
         13    1    3    3    0    0 -0.19458598654E+02 -0.43385863784E+02  0.15988805616E+02  0.50165957650E+02  0.10566000000E+00 0. -1.
         22    1    1    0    0    0  0.26838277666E+02  0.67688966546E+01  0.99883922462E+01  0.29425823517E+02  0.00000000000E+00 0.  1.
</event>
<event>
 5    1  0.1261138E-009  0.9118800E+02  0.7561462E-02  0.1125453E+00
         25   -1    0    0    0    0  0.00000000000E+00  0.00000000000E+00  0.99999998245E-14  0.12509000000E+03  0.12509000000E+03 0.  0.
        -13    1    3    3    0    0  0.31197434701E+02 -0.28966855824E+02 -0.37918921322E+02  0.57010651869E+02  0.10566000000E+00 0.  1.
         23    2    1    0    0    0  0.27641647748E+02 -0.43888571905E+01 -0.78240062970E+01  0.96029066907E+02  0.91526192202E+02 0.  0.
         13    1    3    3    0    0 -0.35557869528E+01  0.24577998634E+02  0.30094915025E+02  0.39018415038E+02  0.10566000000E+00 0. -1.
         22    1    1    0    0    0 -0.27641647748E+02  0.43888571905E+01  0.78240062970E+01  0.29060933093E+02  0.00000000000E+00 0.  1.
</event>
<event>
 5    1  0.1261138E-009  0.9118800E+02  0.7561462E-02  0.1125453E+00
         25   -1    0    0    0    0  0.00000000000E+00  0.00000000000E+00  0.99999998245E-14  0.12509000000E+03  0.12509000000E+03 0.  0.
        -13    1    3    3    0    0 -0.59733061398E+02  0.72497038326E+01  0.16307567599E+02  0.62342158727E+02  0.10566000000E+00 0.  1.
         23    2    1    0    0    0 -0.24634763961E+02  0.22109944828E+01  0.31794966376E+01  0.10015269279E+03  0.96998415360E+02 0.  0.
         13    1    3    3    0    0  0.35098297438E+02 -0.50387093498E+01 -0.13128070962E+02  0.37810534063E+02  0.10566000000E+00 0. -1.
         22    1    1    0    0    0  0.24634763961E+02 -0.22109944828E+01 -0.31794966376E+01  0.24937307210E+02  0.00000000000E+00 0.  1.
</event>
<event>
 5    1  0.1261138E-009  0.9118800E+02  0.7561462E-02  0.1125453E+00
         25   -1    0    0    0    0  0.00000000000E+00  0.00000000000E+00  0.99999998245E-14  0.12509000000E+03  0.12509000000E+03 0.  0.
        -13    1    3    3    0    0  0.21209505887E+02  0.43428186090E+02  0.22557543831E+02  0.53335770687E+02  0.10566000000E+00 0.  1.
         23    2    1    0    0    0  0.27021562279E+02  0.37287487690E+01  0.14268960497E+02  0.94305724321E+02  0.89139766719E+02 0.  0.
         13    1    3    3    0    0  0.58120563928E+01 -0.39699437321E+02 -0.82885833335E+01  0.40969953635E+02  0.10566000000E+00 0. -1.
         22    1    1    0    0    0 -0.27021562279E+02 -0.37287487690E+01 -0.14268960497E+02  0.30784275679E+02  0.00000000000E+00 0. -1.
</event>
<event>
 5    1  0.1261138E-009  0.9118800E+02  0.7561462E-02  0.1125453E+00
         25   -1    0    0    0    0  0.00000000000E+00  0.00000000000E+00  0.99999998245E-14  0.12509000000E+03  0.12509000000E+03 0.  0.
        -13    1    3    3    0    0  0.15153143171E+02 -0.17604064796E+02  0.28646204433E+02  0.36880035762E+02  0.10566000000E+00 0. -1.
         23    2    1    0    0    0  0.31546014179E+01 -0.80617403971E+01 -0.28113553499E+02  0.95673761989E+02  0.91039297419E+02 0.  0.
         13    1    3    3    0    0 -0.11998541753E+02  0.95423243989E+01 -0.56759757933E+02  0.58793726228E+02  0.10566000000E+00 0.  1.
         22    1    1    0    0    0 -0.31546014179E+01  0.80617403971E+01  0.28113553499E+02  0.29416238011E+02  0.00000000000E+00 0.  1.
</event>
<event>
 5    1  0.1261138E-009  0.9118800E+02  0.7561462E-02  0.1125453E+00
         25   -1    0    0    0    0  0.00000000000E+00  0.00000000000E+00  0.99999998245E-14  0.12509000000E+03  0.12509000000E+03 0.  0.
        -13    1    3    3    0    0 -0.24252323235E+02 -0.21221988015E+02 -0.23323021161E+02  0.39780930579E+02  0.10566000000E+00 0.  1.
         23    2    1    0    0    0  0.55872525245E+01  0.24859017305E+02 -0.15584914825E+02  0.95222330150E+02  0.90416892542E+02 0.  0.
         13    1    3    3    0    0  0.29839575759E+02  0.46081005320E+02  0.77381063359E+01  0.55441399572E+02  0.10566000000E+00 0. -1.
         22    1    1    0    0    0 -0.55872525245E+01 -0.24859017305E+02  0.15584914825E+02  0.29867669850E+02  0.00000000000E+00 0. -1.
</event>
<event>
 5    1  0.1261138E-009  0.9118800E+02  0.7561462E-02  0.1125453E+00
         25   -1    0    0    0    0  0.00000000000E+00  0.00000000000E+00  0.99999998245E-14  0.12509000000E+03  0.12509000000E+03 0.  0.
        -13    1    3    3    0    0 -0.19164883293E+02 -0.60423467530E+01  0.53061346729E+02  0.56739055215E+02  0.10566000000E+00 0.  1.
         23    2    1    0    0    0 -0.23557035155E+02 -0.89446343605E+01  0.13783074278E+02  0.96368692131E+02  0.91989191199E+02 0.  0.
         13    1    3    3    0    0 -0.43921518622E+01 -0.29022876075E+01 -0.39278272451E+02  0.39629636916E+02  0.10566000000E+00 0. -1.
         22    1    1    0    0    0  0.23557035155E+02  0.89446343605E+01 -0.13783074278E+02  0.28721307869E+02  0.00000000000E+00 0.  1.
</event>
<event>
 5    1  0.1261138E-009  0.9118800E+02  0.7561462E-02  0.1125453E+00
         25   -1    0    0    0    0  0.00000000000E+00  0.00000000000E+00  0.99999998245E-14  0.12509000000E+03  0.12509000000E+03 0.  0.
        -13    1    3    3    0    0  0.13730085845E+02 -0.41755499026E+02  0.10847146334E+02  0.45273708749E+02  0.10566000000E+00 0.  1.
         23    2    1    0    0    0 -0.88298530837E+01 -0.11302431604E+02 -0.24242244397E+02  0.96922684206E+02  0.92739468591E+02 0.  0.
         13    1    3    3    0    0 -0.22559938929E+02  0.30453067422E+02 -0.35089390731E+02  0.51648975457E+02  0.10566000000E+00 0. -1.
         22    1    1    0    0    0  0.88298530837E+01  0.11302431604E+02  0.24242244397E+02  0.28167315794E+02  0.00000000000E+00 0.  1.
</event>
<event>
 5    1  0.1261138E-009  0.9118800E+02  0.7561462E-02  0.1125453E+00
         25   -1    0    0    0    0  0.00000000000E+00  0.00000000000E+00  0.99999998245E-14  0.12509000000E+03  0.12509000000E+03 0.  0.
        -13    1    3    3    0    0 -0.85998636768E+01  0.32973778440E+02  0.37251405497E+01  0.34279958519E+02  0.10566000000E+00 0. -1.
         23    2    1    0    0    0  0.53208236480E+01 -0.26886746654E+02  0.96728452146E+01  0.96025034071E+02  0.91520680307E+02 0.  0.
         13    1    3    3    0    0  0.13920687325E+02 -0.59860525094E+02  0.59477046649E+01  0.61745075552E+02  0.10566000000E+00 0.  1.
         22    1    1    0    0    0 -0.53208236480E+01  0.26886746654E+02 -0.96728452146E+01  0.29064965929E+02  0.00000000000E+00 0.  1.
</event>
<event>
 5    1  0.1261138E-009  0.9118800E+02  0.7561462E-02  0.1125453E+00
         25   -1    0    0    0    0  0.00000000000E+00  0.00000000000E+00  0.99999998245E-14  0.12509000000E+03  0.12509000000E+03 0.  0.
        -13    1    3    3    0    0 -0.33885652566E+02  0.24499055539E+01  0.20817609768E+02  0.39844993757E+02  0.10566000000E+00 0.  1.
         23    2    1    0    0    0  0.19969507634E+02  0.16306503153E+02  0.13660802831E+02  0.95912940275E+02  0.91367342623E+02 0.  0.
         13    1    3    3    0    0  0.53855160199E+02  0.13856597599E+02 -0.71568069366E+01  0.56067946518E+02  0.10566000000E+00 0. -1.
         22    1    1    0    0    0 -0.19969507634E+02 -0.16306503153E+02 -0.13660802831E+02  0.29177059725E+02  0.00000000000E+00 0. -1.
</event>
<event>
 5    1  0.1261138E-009  0.9118800E+02  0.7561462E-02  0.1125453E+00
         25   -1    0    0    0    0  0.00000000000E+00  0.00000000000E+00  0.99999998245E-14  0.12509000000E+03  0.12509000000E+03 0.  0.
        -13    1    3    3    0    0 -0.13887346260E+01  0.35475424555E+02 -0.33463508036E+02  0.48787824971E+02  0.10566000000E+00 0.  1.
         23    2    1    0    0    0 -0.47453193063E+01 -0.13910379647E+02 -0.20335900805E+02  0.99998854574E+02  0.96799820957E+02 0.  0.
         13    1    3    3    0    0 -0.33565846804E+01 -0.49385804202E+02  0.13127607231E+02  0.51211029603E+02  0.10566000000E+00 0. -1.
         22    1    1    0    0    0  0.47453193063E+01  0.13910379647E+02  0.20335900805E+02  0.25091145426E+02  0.00000000000E+00 0. -1.
</event>
<event>
 5    1  0.1261138E-009  0.9118800E+02  0.7561462E-02  0.1125453E+00
         25   -1    0    0    0    0  0.00000000000E+00  0.00000000000E+00  0.99999998245E-14  0.12509000000E+03  0.12509000000E+03 0.  0.
        -13    1    3    3    0    0  0.58833669430E+02 -0.12567682149E+02 -0.23147400379E+01  0.60205618331E+02  0.10566000000E+00 0.  1.
         23    2    1    0    0    0  0.27223062054E+02  0.14611428157E+01 -0.10719186091E+02  0.95796126982E+02  0.91207274646E+02 0.  0.
         13    1    3    3    0    0 -0.31610607375E+02  0.14028824964E+02 -0.84044460527E+01  0.35590508651E+02  0.10566000000E+00 0. -1.
         22    1    1    0    0    0 -0.27223062054E+02 -0.14611428157E+01  0.10719186091E+02  0.29293873018E+02  0.00000000000E+00 0.  1.
</event>
<event>
 5    1  0.1261138E-009  0.9118800E+02  0.7561462E-02  0.1125453E+00
         25   -1    0    0    0    0  0.00000000000E+00  0.00000000000E+00  0.99999998245E-14  0.12509000000E+03  0.12509000000E+03 0.  0.
        -13    1    3    3    0    0  0.32127131942E+02  0.16963861751E+02 -0.15926340859E+02  0.39668434675E+02  0.10566000000E+00 0. -1.
         23    2    1    0    0    0  0.21242845292E+02 -0.27180495571E+02 -0.19825723165E+02  0.85301847057E+02  0.75454012463E+02 0.  0.
         13    1    3    3    0    0 -0.10884286650E+02 -0.44144357322E+02 -0.38993823055E+01  0.45633412382E+02  0.10566000000E+00 0.  1.
         22    1    1    0    0    0 -0.21242845292E+02  0.27180495571E+02  0.19825723165E+02  0.39788152943E+02  0.00000000000E+00 0. -1.
</event>
<event>
 5    1  0.1261138E-009  0.9118800E+02  0.7561462E-02  0.1125453E+00
         25   -1    0    0    0    0  0.00000000000E+00  0.00000000000E+00  0.99999998245E-14  0.12509000000E+03  0.12509000000E+03 0.  0.
        -13    1    3    3    0    0 -0.27881369019E+02 -0.31710266530E+02  0.21328348426E+02  0.47305616499E+02  0.10566000000E+00 0. -1.
         23    2    1    0    0    0  0.98790619105E+01 -0.27484133906E+02 -0.74251175830E+01  0.94955205295E+02  0.90046572176E+02 0.  0.
         13    1    3    3    0    0  0.37760430929E+02  0.42261326237E+01 -0.28753466009E+02  0.47649588796E+02  0.10566000000E+00 0.  1.
         22    1    1    0    0    0 -0.98790619105E+01  0.27484133906E+02  0.74251175830E+01  0.30134794705E+02  0.00000000000E+00 0. -1.
</event>
<event>
 5    1  0.1261138E-009  0.9118800E+02  0.7561462E-02  0.1125453E+00
         25   -1    0    0    0    0  0.00000000000E+00  0.00000000000E+00  0.99999998245E-14  0.12509000000E+03  0.12509000000E+03 0.  0.
        -13    1    3    3    0    0 -0.58512443069E+01  0.37571256520E+02 -0.16525152639E+02  0.41459959119E+02  0.10566000000E+00 0.  1.
         23    2    1    0    0    0 -0.23512306950E+02 -0.83600662725E+01  0.10970851173E+02  0.97830527121E+02  0.93956017237E+02 0.  0.
         13    1    3    3    0    0 -0.17661062643E+02 -0.45931322792E+02  0.27496003812E+02  0.56370568001E+02  0.10566000000E+00 0. -1.
         22    1    1    0    0    0  0.23512306950E+02  0.83600662725E+01 -0.10970851173E+02  0.27259472879E+02  0.00000000000E+00 0. -1.
</event>
<event>
 5    1  0.1261138E-009  0.9118800E+02  0.7561462E-02  0.1125453E+00
         25   -1    0    0    0    0  0.00000000000E+00  0.00000000000E+00  0.99999998245E-14  0.12509000000E+03  0.12509000000E+03 0.  0.
        -13    1    3    3    0    0  0.51705462231E+01  0.21550674859E+02 -0.27312560637E+02  0.35173189615E+02  0.10566000000E+00 0.  1.
         23    2    1    0    0    0  0.25959386003E+01 -0.24722672169E+02  0.13390196138E+02  0.96854441408E+02  0.92647374768E+02 0.  0.
         13    1    3    3    0    0 -0.25746076227E+01 -0.46273347028E+02  0.40702756775E+02  0.61681251793E+02  0.10566000000E+00 0. -1.
         22    1    1    0    0    0 -0.25959386003E+01  0.24722672169E+02 -0.13390196138E+02  0.28235558592E+02  0.00000000000E+00 0. -1.
</event>
<event>
 5    1  0.1261138E-009  0.9118800E+02  0.7561462E-02  0.1125453E+00
         25   -1    0    0    0    0  0.00000000000E+00  0.00000000000E+00  0.99999998245E-14  0.12509000000E+03  0.12509000000E+03 0.  0.
        -13    1    3    3    0    0  0.36317450650E+02  0.19947038005E+02 -0.10651217871E+02  0.42782019039E+02  0.10566000000E+00 0. -1.
         23    2    1    0    0    0 -0.14677534193E+02  0.25579569068E+02 -0.95213427732E+01  0.94099673576E+02  0.88850144824E+02 0.  0.
         13    1    3    3    0    0 -0.50994984843E+02  0.56325310624E+01  0.11298750978E+01  0.51317654536E+02  0.10566000000E+00 0.  1.
         22    1    1    0    0    0  0.14677534193E+02 -0.25579569068E+02  0.95213427732E+01  0.30990326424E+02  0.00000000000E+00 0.  1.
</event>
<event>
 5    1  0.1261138E-009  0.9118800E+02  0.7561462E-02  0.1125453E+00
         25   -1    0    0    0    0  0.00000000000E+00  0.00000000000E+00  0.99999998245E-14  0.12509000000E+03  0.12509000000E+03 0.  0.
        -13    1    3    3    0    0  0.33291927998E+02 -0.57221495040E+01 -0.14271606663E+01  0.33810403966E+02  0.10566000000E+00 0.  1.
         23    2    1    0    0    0 -0.20521706728E+02 -0.25039541635E+02  0.79584516874E+01  0.91751493051E+02  0.85480292650E+02 0.  0.
         13    1    3    3    0    0 -0.53813634725E+02 -0.19317392131E+02  0.93856123537E+01  0.57941089085E+02  0.10566000000E+00 0. -1.
         22    1    1    0    0    0  0.20521706728E+02  0.25039541635E+02 -0.79584516874E+01  0.33338506949E+02  0.00000000000E+00 0. -1.
</event>
<event>
 5    1  0.1261138E-009  0.9118800E+02  0.7561462E-02  0.1125453E+00
         25   -1    0    0    0    0  0.00000000000E+00  0.00000000000E+00  0.99999998245E-14  0.12509000000E+03  0.12509000000E+03 0.  0.
        -13    1    3    3    0    0  0.11140471201E+02 -0.12781477827E+02 -0.43113003535E+02  0.46327297696E+02  0.10566000000E+00 0.  1.
         23    2    1    0    0    0 -0.23651577073E+02 -0.15056103879E+02 -0.77205836169E+01  0.96009237055E+02  0.91499086479E+02 0.  0.
         13    1    3    3    0    0 -0.34792048274E+02 -0.22746260521E+01  0.35392419918E+02  0.49681939359E+02  0.10566000000E+00 0. -1.
         22    1    1    0    0    0  0.23651577073E+02  0.15056103879E+02  0.77205836169E+01  0.29080762945E+02  0.00000000000E+00 0. -1.
</event>
<event>
 5    1  0.1261138E-009  0.9118800E+02  0.7561462E-02  0.1125453E+00
         25   -1    0    0    0    0  0.00000000000E+00  0.00000000000E+00  0.99999998245E-14  0.12509000000E+03  0.12509000000E+03 0.  0.
        -13    1    3    3    0    0 -0.34830049282E+01 -0.32791894513E+02 -0.30913574646E+02  0.45200662944E+02  0.10566000000E+00 0.  1.
         23    2    1    0    0    0 -0.55485157655E+01  0.12865371874E+02 -0.31181307830E+02  0.90905533080E+02  0.84233236705E+02 0.  0.
         13    1    3    3    0    0 -0.20655108373E+01  0.45657266388E+02 -0.26773318321E+00  0.45704870136E+02  0.10566000000E+00 0. -1.
         22    1    1    0    0    0  0.55485157655E+01 -0.12865371874E+02  0.31181307830E+02  0.34184466920E+02  0.00000000000E+00 0. -1.
</event>
<event>
 5    1  0.1261138E-009  0.9118800E+02  0.7561462E-02  0.1125453E+00
         25   -1    0    0    0    0  0.00000000000E+00  0.00000000000E+00  0.99999998245E-14  0.12509000000E+03  0.12509000000E+03 0.  0.
        -13    1    3    3    0    0 -0.13803146241E+02  0.29345588861E+02  0.46522810476E+02  0.56710435463E+02  0.10566000000E+00 0.  1.
         23    2    1    0    0    0 -0.85986505267E+01 -0.55641631744E+01  0.25055918187E+02  0.98021646912E+02  0.94210124320E+02 0.  0.
         13    1    3    3    0    0  0.52044957142E+01 -0.34909752035E+02 -0.21466892289E+02  0.41311211449E+02  0.10566000000E+00 0. -1.
         22    1    1    0    0    0  0.85986505267E+01  0.55641631744E+01 -0.25055918187E+02  0.27068353088E+02  0.00000000000E+00 0.  1.
</event>
<event>
 5    1  0.1261138E-009  0.9118800E+02  0.7561462E-02  0.1125453E+00
         25   -1    0    0    0    0  0.00000000000E+00  0.00000000000E+00  0.99999998245E-14  0.12509000000E+03  0.12509000000E+03 0.  0.
        -13    1    3    3    0    0  0.29622487767E+02 -0.22351259678E+02 -0.18342902840E+02  0.41394973600E+02  0.10566000000E+00 0.  1.
         23    2    1    0    0    0 -0.13067663786E+02  0.97873632305E+01 -0.24987008118E+02  0.95241936570E+02  0.90444013572E+02 0.  0.
         13    1    3    3    0    0 -0.42690151553E+02  0.32138622909E+02 -0.66441052783E+01  0.53846962970E+02  0.10566000000E+00 0. -1.
         22    1    1    0    0    0  0.13067663786E+02 -0.97873632305E+01  0.24987008118E+02  0.29848063430E+02  0.00000000000E+00 0. -1.
</event>
<event>
 5    1  0.1261138E-009  0.9118800E+02  0.7561462E-02  0.1125453E+00
         25   -1    0    0    0    0  0.00000000000E+00  0.00000000000E+00  0.99999998245E-14  0.12509000000E+03  0.12509000000E+03 0.  0.
        -13    1    3    3    0    0 -0.11293651977E+02  0.32311054620E+02  0.18260095313E+02  0.38794240172E+02  0.10566000000E+00 0.  1.
         23    2    1    0    0    0 -0.54304751576E+01 -0.17238082797E+02 -0.17305529714E+02  0.10006755173E+03  0.96888554488E+02 0.  0.
         13    1    3    3    0    0  0.58631768190E+01 -0.49549137417E+02 -0.35565625027E+02  0.61273311554E+02  0.10566000000E+00 0. -1.
         22    1    1    0    0    0  0.54304751576E+01  0.17238082797E+02  0.17305529714E+02  0.25022448274E+02  0.00000000000E+00 0. -1.
</event>
<event>
 5    1  0.1261138E-009  0.9118800E+02  0.7561462E-02  0.1125453E+00
         25   -1    0    0    0    0  0.00000000000E+00  0.00000000000E+00  0.99999998245E-14  0.12509000000E+03  0.12509000000E+03 0.  0.
        -13    1    3    3    0    0  0.10772203716E+02  0.20793450449E+02 -0.31694171253E+02  0.39407354769E+02  0.10566000000E+00 0.  1.
         23    2    1    0    0    0 -0.21923697026E+02 -0.16679021907E+02 -0.16850435956E+01  0.97491492161E+02  0.93503547573E+02 0.  0.
         13    1    3    3    0    0 -0.32695900742E+02 -0.37472472355E+02  0.30009127657E+02  0.58084137392E+02  0.10566000000E+00 0. -1.
         22    1    1    0    0    0  0.21923697026E+02  0.16679021907E+02  0.16850435956E+01  0.27598507839E+02  0.00000000000E+00 0. -1.
</event>
<event>
 5    1  0.1261138E-009  0.9118800E+02  0.7561462E-02  0.1125453E+00
         25   -1    0    0    0    0  0.00000000000E+00  0.00000000000E+00  0.99999998245E-14  0.12509000000E+03  0.12509000000E+03 0.  0.
        -13    1    3    3    0    0 -0.30018514233E+02  0.12285691417E+02  0.19335613675E+02  0.37761442379E+02  0.10566000000E+00 0.  1.
         23    2    1    0    0    0  0.73295250445E+01  0.11111659881E+02 -0.25619643288E+02  0.96218612003E+02  0.91784880296E+02 0.  0.
         13    1    3    3    0    0  0.37348039277E+02 -0.11740315362E+01 -0.44955256962E+02  0.58457169624E+02  0.10566000000E+00 0. -1.
         22    1    1    0    0    0 -0.73295250445E+01 -0.11111659881E+02  0.25619643288E+02  0.28871387997E+02  0.00000000000E+00 0. -1.
</event>
<event>
 5    1  0.1261138E-009  0.9118800E+02  0.7561462E-02  0.1125453E+00
         25   -1    0    0    0    0  0.00000000000E+00  0.00000000000E+00  0.99999998245E-14  0.12509000000E+03  0.12509000000E+03 0.  0.
        -13    1    3    3    0    0 -0.13123673786E+02  0.30206653987E+02 -0.20410701873E+02  0.38746363361E+02  0.10566000000E+00 0.  1.
         23    2    1    0    0    0 -0.17058712484E+02 -0.23178062779E+02  0.73632288166E+00  0.96301730911E+02  0.91898089965E+02 0.  0.
         13    1    3    3    0    0 -0.39350386971E+01 -0.53384716766E+02  0.21147024754E+02  0.57555367549E+02  0.10566000000E+00 0. -1.
         22    1    1    0    0    0  0.17058712484E+02  0.23178062779E+02 -0.73632288166E+00  0.28788269089E+02  0.00000000000E+00 0. -1.
</event>
<event>
 5    1  0.1261138E-009  0.9118800E+02  0.7561462E-02  0.1125453E+00
         25   -1    0    0    0    0  0.00000000000E+00  0.00000000000E+00  0.99999998245E-14  0.12509000000E+03  0.12509000000E+03 0.  0.
        -13    1    3    3    0    0  0.17258863877E+01  0.30330713720E+02 -0.48844760007E+02  0.57521757820E+02  0.10566000000E+00 0.  1.
         23    2    1    0    0    0  0.45938004069E+01  0.28143388667E+02 -0.12652894368E+02  0.93893060026E+02  0.88558780803E+02 0.  0.
         13    1    3    3    0    0  0.28679140191E+01 -0.21873250531E+01  0.36191865639E+02  0.36371302206E+02  0.10566000000E+00 0. -1.
         22    1    1    0    0    0 -0.45938004069E+01 -0.28143388667E+02  0.12652894368E+02  0.31196939974E+02  0.00000000000E+00 0.  1.
</event>
<event>
 5    1  0.1261138E-009  0.9118800E+02  0.7561462E-02  0.1125453E+00
         25   -1    0    0    0    0  0.00000000000E+00  0.00000000000E+00  0.99999998245E-14  0.12509000000E+03  0.12509000000E+03 0.  0.
        -13    1    3    3    0    0  0.12184846889E+02  0.38531494302E+02 -0.35468277834E+02  0.53769475015E+02  0.10566000000E+00 0.  1.
         23    2    1    0    0    0  0.26179613635E+02  0.14173778013E+02 -0.55545151987E+01  0.94805997749E+02  0.89839058415E+02 0.  0.
         13    1    3    3    0    0  0.13994766746E+02 -0.24357716289E+02  0.29913762635E+02  0.41036522734E+02  0.10566000000E+00 0. -1.
         22    1    1    0    0    0 -0.26179613635E+02 -0.14173778013E+02  0.55545151987E+01  0.30284002251E+02  0.00000000000E+00 0.  1.
</event>
<event>
 5    1  0.1261138E-009  0.9118800E+02  0.7561462E-02  0.1125453E+00
         25   -1    0    0    0    0  0.00000000000E+00  0.00000000000E+00  0.99999998245E-14  0.12509000000E+03  0.12509000000E+03 0.  0.
        -13    1    3    3    0    0 -0.24924574248E+02 -0.37523471189E+01  0.45513450553E+02  0.52026914724E+02  0.10566000000E+00 0.  1.
         23    2    1    0    0    0 -0.52732529397E+01  0.21914052356E+02  0.29102709426E+02  0.88279667440E+02  0.80239012333E+02 0.  0.
         13    1    3    3    0    0  0.19651321308E+02  0.25666399475E+02 -0.16410741127E+02  0.36252752717E+02  0.10566000000E+00 0. -1.
         22    1    1    0    0    0  0.52732529397E+01 -0.21914052356E+02 -0.29102709426E+02  0.36810332560E+02  0.00000000000E+00 0.  1.
</event>
<event>
 5    1  0.1261138E-009  0.9118800E+02  0.7561462E-02  0.1125453E+00
         25   -1    0    0    0    0  0.00000000000E+00  0.00000000000E+00  0.99999998245E-14  0.12509000000E+03  0.12509000000E+03 0.  0.
        -13    1    3    3    0    0 -0.30499310082E+02  0.27390621177E+02  0.67221332821E+01  0.41540971147E+02  0.10566000000E+00 0.  1.
         23    2    1    0    0    0  0.15293846699E+02  0.19264026464E+02  0.23585372048E+02  0.91012525957E+02  0.84391976183E+02 0.  0.
         13    1    3    3    0    0  0.45793156781E+02 -0.81265947128E+01  0.16863238766E+02  0.49471554810E+02  0.10566000000E+00 0. -1.
         22    1    1    0    0    0 -0.15293846699E+02 -0.19264026464E+02 -0.23585372048E+02  0.34077474043E+02  0.00000000000E+00 0. -1.
</event>
<event>
 5    1  0.1261138E-009  0.9118800E+02  0.7561462E-02  0.1125453E+00
         25   -1    0    0    0    0  0.00000000000E+00  0.00000000000E+00  0.99999998245E-14  0.12509000000E+03  0.12509000000E+03 0.  0.
        -13    1    3    3    0    0 -0.52517368349E+02 -0.94339539240E+01  0.28816170619E+01  0.53435833912E+02  0.10566000000E+00 0.  1.
         23    2    1    0    0    0 -0.13598904556E+02 -0.25528279885E+02  0.55598468123E+01  0.95636049915E+02  0.90987465443E+02 0.  0.
         13    1    3    3    0    0  0.38918463793E+02 -0.16094325961E+02  0.26782297504E+01  0.42200216003E+02  0.10566000000E+00 0. -1.
         22    1    1    0    0    0  0.13598904556E+02  0.25528279885E+02 -0.55598468123E+01  0.29453950085E+02  0.00000000000E+00 0.  1.
</event>
<event>
 5    1  0.1261138E-009  0.9118800E+02  0.7561462E-02  0.1125453E+00
         25   -1    0    0    0    0  0.00000000000E+00  0.00000000000E+00  0.99999998245E-14  0.12509000000E+03  0.12509000000E+03 0.  0.
        -13    1    3    3    0    0 -0.16269985030E+02 -0.15037315282E+02  0.26184334553E+02  0.34299618128E+02  0.10566000000E+00 0.  1.
         23    2    1    0    0    0  0.85033300086E+01  0.22658360230E+02 -0.16015294623E+02  0.96069359562E+02  0.91581244124E+02 0.  0.
         13    1    3    3    0    0  0.24773315038E+02  0.37695675511E+02 -0.42199629176E+02  0.61769741434E+02  0.10566000000E+00 0. -1.
         22    1    1    0    0    0 -0.85033300086E+01 -0.22658360230E+02  0.16015294623E+02  0.29020640438E+02  0.00000000000E+00 0. -1.
</event>
<event>
 5    1  0.1261138E-009  0.9118800E+02  0.7561462E-02  0.1125453E+00
         25   -1    0    0    0    0  0.00000000000E+00  0.00000000000E+00  0.99999998245E-14  0.12509000000E+03  0.12509000000E+03 0.  0.
        -13    1    3    3    0    0 -0.14440741832E+02  0.23344702795E+02 -0.18511595065E+02  0.33108918574E+02  0.10566000000E+00 0.  1.
         23    2    1    0    0    0  0.39951115466E+01 -0.20855458625E+02  0.21022294900E+02  0.95209438533E+02  0.90399055483E+02 0.  0.
         13    1    3    3    0    0  0.18435853378E+02 -0.44200161420E+02  0.39533889966E+02  0.62100519959E+02  0.10566000000E+00 0. -1.
         22    1    1    0    0    0 -0.39951115466E+01  0.20855458625E+02 -0.21022294900E+02  0.29880561467E+02  0.00000000000E+00 0. -1.
</event>
<event>
 5    1  0.1261138E-009  0.9118800E+02  0.7561462E-02  0.1125453E+00
         25   -1    0    0    0    0  0.00000000000E+00  0.00000000000E+00  0.99999998245E-14  0.12509000000E+03  0.12509000000E+03 0.  0.
        -13    1    3    3    0    0 -0.24823520777E+02  0.68020849380E+01 -0.55918114495E+02  0.61557471001E+02  0.10566000000E+00 0.  1.
         23    2    1    0    0    0 -0.11349170273E+02 -0.48508043757E+01 -0.23222922165E+02  0.98790987036E+02  0.95226157314E+02 0.  0.
         13    1    3    3    0    0  0.13474350504E+02 -0.11652889314E+02  0.32695192330E+02  0.37233516036E+02  0.10566000000E+00 0. -1.
         22    1    1    0    0    0  0.11349170273E+02  0.48508043757E+01  0.23222922165E+02  0.26299012964E+02  0.00000000000E+00 0.  1.
</event>
<event>
 5    1  0.1261138E-009  0.9118800E+02  0.7561462E-02  0.1125453E+00
         25   -1    0    0    0    0  0.00000000000E+00  0.00000000000E+00  0.99999998245E-14  0.12509000000E+03  0.12509000000E+03 0.  0.
        -13    1    3    3    0    0 -0.23319507258E+02 -0.56518871461E+02 -0.45649428566E+01  0.61310946146E+02  0.10566000000E+00 0. -1.
         23    2    1    0    0    0 -0.19467225900E+02 -0.26539060841E+02  0.15103271088E+01  0.92141923841E+02  0.86049743791E+02 0.  0.
         13    1    3    3    0    0  0.38522813571E+01  0.29979810620E+02  0.60752699654E+01  0.30830977695E+02  0.10566000000E+00 0.  1.
         22    1    1    0    0    0  0.19467225900E+02  0.26539060841E+02 -0.15103271088E+01  0.32948076159E+02  0.00000000000E+00 0. -1.
</event>
<event>
 5    1  0.1261138E-009  0.9118800E+02  0.7561462E-02  0.1125453E+00
         25   -1    0    0    0    0  0.00000000000E+00  0.00000000000E+00  0.99999998245E-14  0.12509000000E+03  0.12509000000E+03 0.  0.
        -13    1    3    3    0    0  0.10511904915E+02 -0.20934028044E+02 -0.35193272058E+02  0.42276603900E+02  0.10566000000E+00 0.  1.
         23    2    1    0    0    0  0.31200447928E+02  0.10129219647E+02 -0.19974105036E+01  0.92225753618E+02  0.86171520470E+02 0.  0.
         13    1    3    3    0    0  0.20688543012E+02  0.31063247692E+02  0.33195861555E+02  0.49949149718E+02  0.10566000000E+00 0. -1.
         22    1    1    0    0    0 -0.31200447928E+02 -0.10129219647E+02  0.19974105036E+01  0.32864246382E+02  0.00000000000E+00 0. -1.
</event>
<event>
 5    1  0.1261138E-009  0.9118800E+02  0.7561462E-02  0.1125453E+00
         25   -1    0    0    0    0  0.00000000000E+00  0.00000000000E+00  0.99999998245E-14  0.12509000000E+03  0.12509000000E+03 0.  0.
        -13    1    3    3    0    0  0.43081328942E+02  0.12069767287E+02  0.27457540262E+02  0.52493884092E+02  0.10566000000E+00 0. -1.
         23    2    1    0    0    0  0.11272205506E+02  0.20038067775E+02 -0.79589407116E+01  0.10076035729E+03  0.97778924554E+02 0.  0.
         13    1    3    3    0    0 -0.31809123436E+02  0.79683004883E+01 -0.35416480974E+02  0.48266473199E+02  0.10566000000E+00 0.  1.
         22    1    1    0    0    0 -0.11272205506E+02 -0.20038067775E+02  0.79589407116E+01  0.24329642710E+02  0.00000000000E+00 0. -1.
</event>
<event>
 5    1  0.1261138E-009  0.9118800E+02  0.7561462E-02  0.1125453E+00
         25   -1    0    0    0    0  0.00000000000E+00  0.00000000000E+00  0.99999998245E-14  0.12509000000E+03  0.12509000000E+03 0.  0.
        -13    1    3    3    0    0 -0.22171490319E+02 -0.22698383796E+02 -0.13716933577E+02  0.34568150670E+02  0.10566000000E+00 0. -1.
         23    2    1    0    0    0  0.16374977606E+02  0.22778971717E+02  0.39802711982E+01  0.96755145088E+02  0.92513210398E+02 0.  0.
         13    1    3    3    0    0  0.38546467925E+02  0.45477355513E+02  0.17697204776E+02  0.62186994419E+02  0.10566000000E+00 0.  1.
         22    1    1    0    0    0 -0.16374977606E+02 -0.22778971717E+02 -0.39802711982E+01  0.28334854912E+02  0.00000000000E+00 0.  1.
</event>
<event>
 5    1  0.1261138E-009  0.9118800E+02  0.7561462E-02  0.1125453E+00
         25   -1    0    0    0    0  0.00000000000E+00  0.00000000000E+00  0.99999998245E-14  0.12509000000E+03  0.12509000000E+03 0.  0.
        -13    1    3    3    0    0  0.46302989189E+01 -0.27677606867E+02  0.14238134510E+02  0.31467844354E+02  0.10566000000E+00 0. -1.
         23    2    1    0    0    0 -0.61467548853E+01  0.25956323596E+02 -0.16010502568E+02  0.93979719983E+02  0.88681104218E+02 0.  0.
         13    1    3    3    0    0 -0.10777053804E+02  0.53633930463E+02 -0.30248637078E+02  0.62511875629E+02  0.10566000000E+00 0.  1.
         22    1    1    0    0    0  0.61467548853E+01 -0.25956323596E+02  0.16010502568E+02  0.31110280017E+02  0.00000000000E+00 0.  1.
</event>
<event>
 5    1  0.1261138E-009  0.9118800E+02  0.7561462E-02  0.1125453E+00
         25   -1    0    0    0    0  0.00000000000E+00  0.00000000000E+00  0.99999998245E-14  0.12509000000E+03  0.12509000000E+03 0.  0.
        -13    1    3    3    0    0  0.30882415908E+02  0.17964994951E+02 -0.35209955652E+02  0.50161905834E+02  0.10566000000E+00 0. -1.
         23    2    1    0    0    0 -0.11777808970E+02  0.10665715203E+02 -0.26319726816E+02  0.94345857720E+02  0.89196068211E+02 0.  0.
         13    1    3    3    0    0 -0.42660224877E+02 -0.72992797479E+01  0.88902288367E+01  0.44183951885E+02  0.10566000000E+00 0.  1.
         22    1    1    0    0    0  0.11777808970E+02 -0.10665715203E+02  0.26319726816E+02  0.30744142280E+02  0.00000000000E+00 0. -1.
</event>
<event>
 5    1  0.1261138E-009  0.9118800E+02  0.7561462E-02  0.1125453E+00
         25   -1    0    0    0    0  0.00000000000E+00  0.00000000000E+00  0.99999998245E-14  0.12509000000E+03  0.12509000000E+03 0.  0.
        -13    1    3    3    0    0 -0.18434027182E-01  0.14022571484E+02 -0.43636798603E+02  0.45834639818E+02  0.10566000000E+00 0.  1.
         23    2    1    0    0    0  0.88836062931E+01 -0.24536112663E+02 -0.12680109963E+02  0.96077511757E+02  0.91592378456E+02 0.  0.
         13    1    3    3    0    0  0.89020403203E+01 -0.38558684148E+02  0.30956688641E+02  0.50242871939E+02  0.10566000000E+00 0. -1.
         22    1    1    0    0    0 -0.88836062931E+01  0.24536112663E+02  0.12680109963E+02  0.29012488243E+02  0.00000000000E+00 0.  1.
</event>
<event>
 5    1  0.1261138E-009  0.9118800E+02  0.7561462E-02  0.1125453E+00
         25   -1    0    0    0    0  0.00000000000E+00  0.00000000000E+00  0.99999998245E-14  0.12509000000E+03  0.12509000000E+03 0.  0.
        -13    1    3    3    0    0  0.56098557113E+02 -0.14541837374E+02 -0.12911445914E+02  0.59373645197E+02  0.10566000000E+00 0.  1.
         23    2    1    0    0    0  0.29116035323E+02 -0.14596240817E+02 -0.19473006315E+02  0.87142776994E+02  0.78446617826E+02 0.  0.
         13    1    3    3    0    0 -0.26982521789E+02 -0.54403443678E-01 -0.65615604005E+01  0.27769131797E+02  0.10566000000E+00 0. -1.
         22    1    1    0    0    0 -0.29116035323E+02  0.14596240817E+02  0.19473006315E+02  0.37947223006E+02  0.00000000000E+00 0.  1.
</event>
<event>
 5    1  0.1261138E-009  0.9118800E+02  0.7561462E-02  0.1125453E+00
         25   -1    0    0    0    0  0.00000000000E+00  0.00000000000E+00  0.99999998245E-14  0.12509000000E+03  0.12509000000E+03 0.  0.
        -13    1    3    3    0    0  0.12628729687E+02  0.37862641522E+02  0.17769358330E+00  0.39913746700E+02  0.10566000000E+00 0. -1.
         23    2    1    0    0    0  0.14334361531E+02 -0.14162102828E+02  0.21008500780E+02  0.95979929886E+02  0.91459011360E+02 0.  0.
         13    1    3    3    0    0  0.17056318432E+01 -0.52024744350E+02  0.20830807197E+02  0.56066183187E+02  0.10566000000E+00 0.  1.
         22    1    1    0    0    0 -0.14334361531E+02  0.14162102828E+02 -0.21008500780E+02  0.29110070114E+02  0.00000000000E+00 0.  1.
</event>
<event>
 5    1  0.1261138E-009  0.9118800E+02  0.7561462E-02  0.1125453E+00
         25   -1    0    0    0    0  0.00000000000E+00  0.00000000000E+00  0.99999998245E-14  0.12509000000E+03  0.12509000000E+03 0.  0.
        -13    1    3    3    0    0  0.19401053282E+02  0.30373000105E+02  0.46002371852E+01  0.36333088913E+02  0.10566000000E+00 0.  1.
         23    2    1    0    0    0 -0.30466822916E+02  0.58100623337E+01  0.10755975630E+02  0.92262037306E+02  0.86224175224E+02 0.  0.
         13    1    3    3    0    0 -0.49867876198E+02 -0.24562937771E+02  0.61557384445E+01  0.55928948392E+02  0.10566000000E+00 0. -1.
         22    1    1    0    0    0  0.30466822916E+02 -0.58100623337E+01 -0.10755975630E+02  0.32827962694E+02  0.00000000000E+00 0.  1.
</event>
<event>
 5    1  0.1261138E-009  0.9118800E+02  0.7561462E-02  0.1125453E+00
         25   -1    0    0    0    0  0.00000000000E+00  0.00000000000E+00  0.99999998245E-14  0.12509000000E+03  0.12509000000E+03 0.  0.
        -13    1    3    3    0    0 -0.60040510659E+02  0.41008833711E+01  0.77629632354E+01  0.60679114421E+02  0.10566000000E+00 0.  1.
         23    2    1    0    0    0 -0.27299261930E+02  0.42390744751E+01 -0.69929054709E+01  0.96592277612E+02  0.92292729470E+02 0.  0.
         13    1    3    3    0    0  0.32741248729E+02  0.13819110400E+00 -0.14755868706E+02  0.35913163192E+02  0.10566000000E+00 0. -1.
         22    1    1    0    0    0  0.27299261930E+02 -0.42390744751E+01  0.69929054709E+01  0.28497722388E+02  0.00000000000E+00 0.  1.
</event>
<event>
 5    1  0.1261138E-009  0.9118800E+02  0.7561462E-02  0.1125453E+00
         25   -1    0    0    0    0  0.00000000000E+00  0.00000000000E+00  0.99999998245E-14  0.12509000000E+03  0.12509000000E+03 0.  0.
        -13    1    3    3    0    0 -0.34370643673E+02  0.11595621686E+02 -0.62064567183E+01  0.36801234460E+02  0.10566000000E+00 0. -1.
         23    2    1    0    0    0  0.87435878728E+01 -0.24799396079E+02  0.12134677593E+02  0.96129496291E+02  0.91663347539E+02 0.  0.
         13    1    3    3    0    0  0.43114231546E+02 -0.36395017766E+02  0.18341134312E+02  0.59328261830E+02  0.10566000000E+00 0.  1.
         22    1    1    0    0    0 -0.87435878728E+01  0.24799396079E+02 -0.12134677593E+02  0.28960503709E+02  0.00000000000E+00 0.  1.
</event>
<event>
 5    1  0.1261138E-009  0.9118800E+02  0.7561462E-02  0.1125453E+00
         25   -1    0    0    0    0  0.00000000000E+00  0.00000000000E+00  0.99999998245E-14  0.12509000000E+03  0.12509000000E+03 0.  0.
        -13    1    3    3    0    0  0.19781691286E+02  0.18328528474E+02 -0.48360437345E+02  0.55371412574E+02  0.10566000000E+00 0. -1.
         23    2    1    0    0    0  0.15380147743E+02 -0.11858219365E+02 -0.15211946081E+02  0.10042079623E+03  0.97343549867E+02 0.  0.
         13    1    3    3    0    0 -0.44015435436E+01 -0.30186747839E+02  0.33148491264E+02  0.45049383656E+02  0.10566000000E+00 0.  1.
         22    1    1    0    0    0 -0.15380147743E+02  0.11858219365E+02  0.15211946081E+02  0.24669203770E+02  0.00000000000E+00 0. -1.
</event>
<event>
 5    1  0.1261138E-009  0.9118800E+02  0.7561462E-02  0.1125453E+00
         25   -1    0    0    0    0  0.00000000000E+00  0.00000000000E+00  0.99999998245E-14  0.12509000000E+03  0.12509000000E+03 0.  0.
        -13    1    3    3    0    0 -0.81782712668E+01  0.48482718451E+02  0.23569760427E+02  0.54525249930E+02  0.10566000000E+00 0.  1.
         23    2    1    0    0    0  0.10787282507E+02  0.21656060532E+02 -0.75168009088E+01  0.99755187636E+02  0.96484427462E+02 0.  0.
         13    1    3    3    0    0  0.18965553774E+02 -0.26826657919E+02 -0.31086561336E+02  0.45229937705E+02  0.10566000000E+00 0. -1.
         22    1    1    0    0    0 -0.10787282507E+02 -0.21656060532E+02  0.75168009088E+01  0.25334812364E+02  0.00000000000E+00 0.  1.
</event>
<event>
 5    1  0.1261138E-009  0.9118800E+02  0.7561462E-02  0.1125453E+00
         25   -1    0    0    0    0  0.00000000000E+00  0.00000000000E+00  0.99999998245E-14  0.12509000000E+03  0.12509000000E+03 0.  0.
        -13    1    3    3    0    0  0.45311949854E+01  0.39890047915E+02  0.33618356158E+02  0.52363658060E+02  0.10566000000E+00 0.  1.
         23    2    1    0    0    0 -0.11484957692E+02  0.26487946174E+02 -0.45413634814E+01  0.95864334431E+02  0.91300772657E+02 0.  0.
         13    1    3    3    0    0 -0.16016152678E+02 -0.13402101741E+02 -0.38159719640E+02  0.43500676370E+02  0.10566000000E+00 0. -1.
         22    1    1    0    0    0  0.11484957692E+02 -0.26487946174E+02  0.45413634814E+01  0.29225665569E+02  0.00000000000E+00 0.  1.
</event>
<event>
 5    1  0.1261138E-009  0.9118800E+02  0.7561462E-02  0.1125453E+00
         25   -1    0    0    0    0  0.00000000000E+00  0.00000000000E+00  0.99999998245E-14  0.12509000000E+03  0.12509000000E+03 0.  0.
        -13    1    3    3    0    0 -0.17135720463E+02 -0.37209934895E+02 -0.17931167132E+02  0.44718565378E+02  0.10566000000E+00 0.  1.
         23    2    1    0    0    0 -0.30131782943E+02  0.62436330876E+01  0.19850533698E+01  0.94254180985E+02  0.89067406489E+02 0.  0.
         13    1    3    3    0    0 -0.12996062480E+02  0.43453567983E+02  0.19916220502E+02  0.49535615607E+02  0.10566000000E+00 0. -1.
         22    1    1    0    0    0  0.30131782943E+02 -0.62436330876E+01 -0.19850533698E+01  0.30835819015E+02  0.00000000000E+00 0.  1.
</event>
<event>
 5    1  0.1261138E-009  0.9118800E+02  0.7561462E-02  0.1125453E+00
         25   -1    0    0    0    0  0.00000000000E+00  0.00000000000E+00  0.99999998245E-14  0.12509000000E+03  0.12509000000E+03 0.  0.
        -13    1    3    3    0    0  0.28832859966E+02  0.21282282255E+02  0.27140776199E+02  0.44954446371E+02  0.10566000000E+00 0. -1.
         23    2    1    0    0    0  0.12168616720E+02 -0.25556606103E+01 -0.20699887678E+02  0.10094270235E+03  0.98011923628E+02 0.  0.
         13    1    3    3    0    0 -0.16664243246E+02 -0.23837942865E+02 -0.47840663877E+02  0.55988255976E+02  0.10566000000E+00 0.  1.
         22    1    1    0    0    0 -0.12168616720E+02  0.25556606103E+01  0.20699887678E+02  0.24147297653E+02  0.00000000000E+00 0.  1.
</event>
<event>
 5    1  0.1261138E-009  0.9118800E+02  0.7561462E-02  0.1125453E+00
         25   -1    0    0    0    0  0.00000000000E+00  0.00000000000E+00  0.99999998245E-14  0.12509000000E+03  0.12509000000E+03 0.  0.
        -13    1    3    3    0    0 -0.20986306398E+02 -0.31808291833E+02  0.38012630826E+02  0.53825307727E+02  0.10566000000E+00 0.  1.
         23    2    1    0    0    0  0.19090842151E+00 -0.30746749105E+02  0.37550241489E+01  0.94114215378E+02  0.88870615522E+02 0.  0.
         13    1    3    3    0    0  0.21177214819E+02  0.10615427273E+01 -0.34257606677E+02  0.40288907651E+02  0.10566000000E+00 0. -1.
         22    1    1    0    0    0 -0.19090842151E+00  0.30746749105E+02 -0.37550241489E+01  0.30975784622E+02  0.00000000000E+00 0.  1.
</event>
<event>
 5    1  0.1261138E-009  0.9118800E+02  0.7561462E-02  0.1125453E+00
         25   -1    0    0    0    0  0.00000000000E+00  0.00000000000E+00  0.99999998245E-14  0.12509000000E+03  0.12509000000E+03 0.  0.
        -13    1    3    3    0    0 -0.50564031967E+02 -0.57637241387E+01 -0.32294730753E+02  0.60273565044E+02  0.10566000000E+00 0.  1.
         23    2    1    0    0    0 -0.28103635510E+02  0.21421062138E+01 -0.50521292970E+01  0.96455633264E+02  0.92107340804E+02 0.  0.
         13    1    3    3    0    0  0.22460396456E+02  0.79058303524E+01  0.27242601456E+02  0.36182068220E+02  0.10566000000E+00 0. -1.
         22    1    1    0    0    0  0.28103635510E+02 -0.21421062138E+01  0.50521292970E+01  0.28634366736E+02  0.00000000000E+00 0.  1.
</event>
<event>
 5    1  0.1261138E-009  0.9118800E+02  0.7561462E-02  0.1125453E+00
         25   -1    0    0    0    0  0.00000000000E+00  0.00000000000E+00  0.99999998245E-14  0.12509000000E+03  0.12509000000E+03 0.  0.
        -13    1    3    3    0    0  0.47135050442E+01  0.19815743395E+01 -0.46700146975E+02  0.46979342888E+02  0.10566000000E+00 0.  1.
         23    2    1    0    0    0  0.28596471152E+02  0.11708846633E+01 -0.36227003850E+01  0.96241202949E+02  0.91815663445E+02 0.  0.
         13    1    3    3    0    0  0.23882966107E+02 -0.81068967615E+00  0.43077446590E+02  0.49261860061E+02  0.10566000000E+00 0. -1.
         22    1    1    0    0    0 -0.28596471152E+02 -0.11708846633E+01  0.36227003850E+01  0.28848797051E+02  0.00000000000E+00 0. -1.
</event>
<event>
 5    1  0.1261138E-009  0.9118800E+02  0.7561462E-02  0.1125453E+00
         25   -1    0    0    0    0  0.00000000000E+00  0.00000000000E+00  0.99999998245E-14  0.12509000000E+03  0.12509000000E+03 0.  0.
        -13    1    3    3    0    0 -0.31413164918E+02 -0.48346364801E+01 -0.38349200765E+02  0.49807961246E+02  0.10566000000E+00 0.  1.
         23    2    1    0    0    0  0.86660113101E+00 -0.26051950799E+02 -0.13546422419E+02  0.95713807288E+02  0.91094303923E+02 0.  0.
         13    1    3    3    0    0  0.32279766049E+02 -0.21217314319E+02  0.24802778346E+02  0.45905846042E+02  0.10566000000E+00 0. -1.
         22    1    1    0    0    0 -0.86660113101E+00  0.26051950799E+02  0.13546422419E+02  0.29376192712E+02  0.00000000000E+00 0.  1.
</event>
<event>
 5    1  0.1261138E-009  0.9118800E+02  0.7561462E-02  0.1125453E+00
         25   -1    0    0    0    0  0.00000000000E+00  0.00000000000E+00  0.99999998245E-14  0.12509000000E+03  0.12509000000E+03 0.  0.
        -13    1    3    3    0    0  0.34581132996E+02 -0.30831246691E+02 -0.27657831303E+02  0.53957273172E+02  0.10566000000E+00 0. -1.
         23    2    1    0    0    0 -0.64918772925E+01 -0.14320911740E+02 -0.21203480164E+02  0.98692641138E+02  0.95096881441E+02 0.  0.
         13    1    3    3    0    0 -0.41073010289E+02  0.16510334950E+02  0.64543511390E+01  0.44735367965E+02  0.10566000000E+00 0.  1.
         22    1    1    0    0    0  0.64918772925E+01  0.14320911740E+02  0.21203480164E+02  0.26397358862E+02  0.00000000000E+00 0.  1.
</event>
<event>
 5    1  0.1261138E-009  0.9118800E+02  0.7561462E-02  0.1125453E+00
         25   -1    0    0    0    0  0.00000000000E+00  0.00000000000E+00  0.99999998245E-14  0.12509000000E+03  0.12509000000E+03 0.  0.
        -13    1    3    3    0    0  0.35405933394E+01 -0.47912722375E+02  0.20107589316E+02  0.52081580993E+02  0.10566000000E+00 0.  1.
         23    2    1    0    0    0 -0.29711699014E+01 -0.23431272427E+02 -0.16269095879E+02  0.96410114037E+02  0.92045500867E+02 0.  0.
         13    1    3    3    0    0 -0.65117632408E+01  0.24481449948E+02 -0.36376685195E+02  0.44328533044E+02  0.10566000000E+00 0. -1.
         22    1    1    0    0    0  0.29711699014E+01  0.23431272427E+02  0.16269095879E+02  0.28679885963E+02  0.00000000000E+00 0.  1.
</event>
<event>
 5    1  0.1261138E-009  0.9118800E+02  0.7561462E-02  0.1125453E+00
         25   -1    0    0    0    0  0.00000000000E+00  0.00000000000E+00  0.99999998245E-14  0.12509000000E+03  0.12509000000E+03 0.  0.
        -13    1    3    3    0    0 -0.46454555314E+02 -0.20818100267E+02 -0.22244607396E+01  0.50954670029E+02  0.10566000000E+00 0. -1.
         23    2    1    0    0    0 -0.37470644809E+01 -0.27671205364E+02  0.91960847991E+01  0.95690951135E+02  0.91062912621E+02 0.  0.
         13    1    3    3    0    0  0.42707490833E+02 -0.68531050968E+01  0.11420545539E+02  0.44736281106E+02  0.10566000000E+00 0.  1.
         22    1    1    0    0    0  0.37470644809E+01  0.27671205364E+02 -0.91960847991E+01  0.29399048865E+02  0.00000000000E+00 0.  1.
</event>
<event>
 5    1  0.1261138E-009  0.9118800E+02  0.7561462E-02  0.1125453E+00
         25   -1    0    0    0    0  0.00000000000E+00  0.00000000000E+00  0.99999998245E-14  0.12509000000E+03  0.12509000000E+03 0.  0.
        -13    1    3    3    0    0 -0.49060504218E+02  0.18891057756E+01  0.12386071255E+01  0.49112596209E+02  0.10566000000E+00 0.  1.
         23    2    1    0    0    0 -0.12460370895E+02 -0.13465048024E+02  0.24011483679E+02  0.94872129301E+02  0.89931091445E+02 0.  0.
         13    1    3    3    0    0  0.36600133323E+02 -0.15354153800E+02  0.22772876553E+02  0.45759533091E+02  0.10566000000E+00 0. -1.
         22    1    1    0    0    0  0.12460370895E+02  0.13465048024E+02 -0.24011483679E+02  0.30217870699E+02  0.00000000000E+00 0. -1.
</event>
<event>
 5    1  0.1261138E-009  0.9118800E+02  0.7561462E-02  0.1125453E+00
         25   -1    0    0    0    0  0.00000000000E+00  0.00000000000E+00  0.99999998245E-14  0.12509000000E+03  0.12509000000E+03 0.  0.
        -13    1    3    3    0    0  0.32798176182E+02  0.11275159585E+02  0.31049367872E+02  0.46550230868E+02  0.10566000000E+00 0. -1.
         23    2    1    0    0    0  0.16025565730E+02 -0.23208557521E+02 -0.14968207770E+01  0.96846480892E+02  0.92636626069E+02 0.  0.
         13    1    3    3    0    0 -0.16772610452E+02 -0.34483717106E+02 -0.32546188649E+02  0.50296250024E+02  0.10566000000E+00 0.  1.
         22    1    1    0    0    0 -0.16025565730E+02  0.23208557521E+02  0.14968207770E+01  0.28243519108E+02  0.00000000000E+00 0. -1.
</event>
<event>
 5    1  0.1261138E-009  0.9118800E+02  0.7561462E-02  0.1125453E+00
         25   -1    0    0    0    0  0.00000000000E+00  0.00000000000E+00  0.99999998245E-14  0.12509000000E+03  0.12509000000E+03 0.  0.
        -13    1    3    3    0    0  0.10421005839E+02 -0.36028138280E+02  0.17992286706E+02  0.41597567904E+02  0.10566000000E+00 0.  1.
         23    2    1    0    0    0 -0.22348908767E+02 -0.94521794060E+01 -0.16207519866E+02  0.95909507907E+02  0.91362643286E+02 0.  0.
         13    1    3    3    0    0 -0.32769914605E+02  0.26575958874E+02 -0.34199806572E+02  0.54311940003E+02  0.10566000000E+00 0. -1.
         22    1    1    0    0    0  0.22348908767E+02  0.94521794060E+01  0.16207519866E+02  0.29180492093E+02  0.00000000000E+00 0. -1.
</event>
<event>
 5    1  0.1261138E-009  0.9118800E+02  0.7561462E-02  0.1125453E+00
         25   -1    0    0    0    0  0.00000000000E+00  0.00000000000E+00  0.99999998245E-14  0.12509000000E+03  0.12509000000E+03 0.  0.
        -13    1    3    3    0    0  0.22538507351E+02  0.25052978529E+02  0.17971193745E+02  0.38191766330E+02  0.10566000000E+00 0. -1.
         23    2    1    0    0    0 -0.28392039873E+02  0.89078550339E+01 -0.20846096313E+01  0.95260427312E+02  0.90469583866E+02 0.  0.
         13    1    3    3    0    0 -0.50930547224E+02 -0.16145123495E+02 -0.20055803376E+02  0.57068660982E+02  0.10566000000E+00 0.  1.
         22    1    1    0    0    0  0.28392039873E+02 -0.89078550339E+01  0.20846096313E+01  0.29829572688E+02  0.00000000000E+00 0.  1.
</event>
<event>
 5    1  0.1261138E-009  0.9118800E+02  0.7561462E-02  0.1125453E+00
         25   -1    0    0    0    0  0.00000000000E+00  0.00000000000E+00  0.99999998245E-14  0.12509000000E+03  0.12509000000E+03 0.  0.
        -13    1    3    3    0    0 -0.25324664996E+02 -0.42089894957E+02 -0.30936186316E+02  0.58051328171E+02  0.10566000000E+00 0.  1.
         23    2    1    0    0    0 -0.92194795904E+01 -0.83125636138E+01 -0.26617363685E+02  0.95720261028E+02  0.91103165719E+02 0.  0.
         13    1    3    3    0    0  0.16105185405E+02  0.33777331343E+02  0.43188226317E+01  0.37668932857E+02  0.10566000000E+00 0. -1.
         22    1    1    0    0    0  0.92194795904E+01  0.83125636138E+01  0.26617363685E+02  0.29369738972E+02  0.00000000000E+00 0.  1.
</event>
<event>
 5    1  0.1261138E-009  0.9118800E+02  0.7561462E-02  0.1125453E+00
         25   -1    0    0    0    0  0.00000000000E+00  0.00000000000E+00  0.99999998245E-14  0.12509000000E+03  0.12509000000E+03 0.  0.
        -13    1    3    3    0    0 -0.23981745647E+02  0.89910505331E+01 -0.51434920246E+02  0.57458900953E+02  0.10566000000E+00 0.  1.
         23    2    1    0    0    0  0.59199813093E+01  0.29888548940E+01 -0.29055423782E+02  0.95287364488E+02  0.90506821553E+02 0.  0.
         13    1    3    3    0    0  0.29901726956E+02 -0.60021956392E+01  0.22379496464E+02  0.37828463535E+02  0.10566000000E+00 0. -1.
         22    1    1    0    0    0 -0.59199813093E+01 -0.29888548940E+01  0.29055423782E+02  0.29802635512E+02  0.00000000000E+00 0.  1.
</event>
<event>
 5    1  0.1261138E-009  0.9118800E+02  0.7561462E-02  0.1125453E+00
         25   -1    0    0    0    0  0.00000000000E+00  0.00000000000E+00  0.99999998245E-14  0.12509000000E+03  0.12509000000E+03 0.  0.
        -13    1    3    3    0    0  0.33813983042E+02  0.45522691695E+02 -0.14170296395E+02  0.58450914212E+02  0.10566000000E+00 0. -1.
         23    2    1    0    0    0  0.15722082652E+02  0.22956096723E+02  0.93567947888E+01  0.95735002667E+02  0.91123404608E+02 0.  0.
         13    1    3    3    0    0 -0.18091900389E+02 -0.22566594972E+02  0.23527091184E+02  0.37284088455E+02  0.10566000000E+00 0.  1.
         22    1    1    0    0    0 -0.15722082652E+02 -0.22956096723E+02 -0.93567947888E+01  0.29354997333E+02  0.00000000000E+00 0. -1.
</event>
<event>
 5    1  0.1261138E-009  0.9118800E+02  0.7561462E-02  0.1125453E+00
         25   -1    0    0    0    0  0.00000000000E+00  0.00000000000E+00  0.99999998245E-14  0.12509000000E+03  0.12509000000E+03 0.  0.
        -13    1    3    3    0    0 -0.14262900355E+02  0.15178486310E+02  0.50414475121E+02  0.54547660252E+02  0.10566000000E+00 0. -1.
         23    2    1    0    0    0 -0.40139077982E+01  0.27836295534E+02  0.15730364341E+02  0.92865550165E+02  0.87095322723E+02 0.  0.
         13    1    3    3    0    0  0.10248992557E+02  0.12657809224E+02 -0.34684110780E+02  0.38317889913E+02  0.10566000000E+00 0.  1.
         22    1    1    0    0    0  0.40139077982E+01 -0.27836295534E+02 -0.15730364341E+02  0.32224449835E+02  0.00000000000E+00 0. -1.
</event>
<event>
 5    1  0.1261138E-009  0.9118800E+02  0.7561462E-02  0.1125453E+00
         25   -1    0    0    0    0  0.00000000000E+00  0.00000000000E+00  0.99999998245E-14  0.12509000000E+03  0.12509000000E+03 0.  0.
        -13    1    3    3    0    0 -0.41656784853E+02 -0.40228872852E+02 -0.10069845807E+02  0.58779783037E+02  0.10566000000E+00 0.  1.
         23    2    1    0    0    0 -0.16295222585E+02 -0.25668807137E+02  0.86216089516E+01  0.93486929266E+02  0.87983247631E+02 0.  0.
         13    1    3    3    0    0  0.25361562268E+02  0.14560065716E+02  0.18691454759E+02  0.34707146229E+02  0.10566000000E+00 0. -1.
         22    1    1    0    0    0  0.16295222585E+02  0.25668807137E+02 -0.86216089516E+01  0.31603070734E+02  0.00000000000E+00 0.  1.
</event>
<event>
 5    1  0.1261138E-009  0.9118800E+02  0.7561462E-02  0.1125453E+00
         25   -1    0    0    0    0  0.00000000000E+00  0.00000000000E+00  0.99999998245E-14  0.12509000000E+03  0.12509000000E+03 0.  0.
        -13    1    3    3    0    0  0.49950907783E+02  0.31971762118E+01 -0.90881762755E+01  0.50871615231E+02  0.10566000000E+00 0. -1.
         23    2    1    0    0    0  0.92127880264E+01 -0.75349078688E+01 -0.26177444409E+02  0.96333976360E+02  0.91941971404E+02 0.  0.
         13    1    3    3    0    0 -0.40738119757E+02 -0.10732084081E+02 -0.17089268134E+02  0.45462361129E+02  0.10566000000E+00 0.  1.
         22    1    1    0    0    0 -0.92127880264E+01  0.75349078688E+01  0.26177444409E+02  0.28756023640E+02  0.00000000000E+00 0. -1.
</event>
<event>
 5    1  0.1261138E-009  0.9118800E+02  0.7561462E-02  0.1125453E+00
         25   -1    0    0    0    0  0.00000000000E+00  0.00000000000E+00  0.99999998245E-14  0.12509000000E+03  0.12509000000E+03 0.  0.
        -13    1    3    3    0    0 -0.39461295052E+02 -0.14882235712E+02  0.23918506356E+02  0.48484851834E+02  0.10566000000E+00 0.  1.
         23    2    1    0    0    0  0.82285866809E+01 -0.20778373121E+02  0.16950619556E+02  0.97040509244E+02  0.92898258879E+02 0.  0.
         13    1    3    3    0    0  0.47689881733E+02 -0.58961374092E+01 -0.69678868002E+01  0.48555657411E+02  0.10566000000E+00 0. -1.
         22    1    1    0    0    0 -0.82285866809E+01  0.20778373121E+02 -0.16950619556E+02  0.28049490756E+02  0.00000000000E+00 0. -1.
</event>
<event>
 5    1  0.1261138E-009  0.9118800E+02  0.7561462E-02  0.1125453E+00
         25   -1    0    0    0    0  0.00000000000E+00  0.00000000000E+00  0.99999998245E-14  0.12509000000E+03  0.12509000000E+03 0.  0.
        -13    1    3    3    0    0 -0.32390490823E+02 -0.18389518980E+02 -0.79093415395E+01  0.38077383729E+02  0.10566000000E+00 0.  1.
         23    2    1    0    0    0 -0.15009175302E+02  0.39203143156E+01  0.33470916051E+02  0.88198992574E+02  0.80113144129E+02 0.  0.
         13    1    3    3    0    0  0.17381315521E+02  0.22309833296E+02  0.41380257591E+02  0.50121608845E+02  0.10566000000E+00 0. -1.
         22    1    1    0    0    0  0.15009175302E+02 -0.39203143156E+01 -0.33470916051E+02  0.36891007426E+02  0.00000000000E+00 0.  1.
</event>
<event>
 5    1  0.1261138E-009  0.9118800E+02  0.7561462E-02  0.1125453E+00
         25   -1    0    0    0    0  0.00000000000E+00  0.00000000000E+00  0.99999998245E-14  0.12509000000E+03  0.12509000000E+03 0.  0.
        -13    1    3    3    0    0  0.21031420074E+02  0.20833915963E+02 -0.19872014292E+02  0.35655024902E+02  0.10566000000E+00 0. -1.
         23    2    1    0    0    0 -0.29874612468E+02  0.47782119534E+01  0.47966869754E+01  0.94457794961E+02  0.89352912898E+02 0.  0.
         13    1    3    3    0    0 -0.50906032542E+02 -0.16055704010E+02  0.24668701267E+02  0.58802770060E+02  0.10566000000E+00 0.  1.
         22    1    1    0    0    0  0.29874612468E+02 -0.47782119534E+01 -0.47966869754E+01  0.30632205039E+02  0.00000000000E+00 0.  1.
</event>
<event>
 5    1  0.1261138E-009  0.9118800E+02  0.7561462E-02  0.1125453E+00
         25   -1    0    0    0    0  0.00000000000E+00  0.00000000000E+00  0.99999998245E-14  0.12509000000E+03  0.12509000000E+03 0.  0.
        -13    1    3    3    0    0  0.16986656918E+02  0.35283095395E+02 -0.15016408213E+02  0.41939802259E+02  0.10566000000E+00 0. -1.
         23    2    1    0    0    0  0.12135875937E+02 -0.16499952917E+02 -0.22701180797E+02  0.94514330905E+02  0.89432025616E+02 0.  0.
         13    1    3    3    0    0 -0.48507809812E+01 -0.51783048312E+02 -0.76847725843E+01  0.52574528646E+02  0.10566000000E+00 0.  1.
         22    1    1    0    0    0 -0.12135875937E+02  0.16499952917E+02  0.22701180797E+02  0.30575669095E+02  0.00000000000E+00 0.  1.
</event>
<event>
 5    1  0.1261138E-009  0.9118800E+02  0.7561462E-02  0.1125453E+00
         25   -1    0    0    0    0  0.00000000000E+00  0.00000000000E+00  0.99999998245E-14  0.12509000000E+03  0.12509000000E+03 0.  0.
        -13    1    3    3    0    0 -0.16635526041E+02  0.43221982823E+01 -0.53994789161E+02  0.56664543987E+02  0.10566000000E+00 0. -1.
         23    2    1    0    0    0 -0.24679647737E+02 -0.18825292920E+01 -0.16915188889E+02  0.95110798141E+02  0.90262458303E+02 0.  0.
         13    1    3    3    0    0 -0.80441216953E+01 -0.62047275743E+01  0.37079600272E+02  0.38446254154E+02  0.10566000000E+00 0.  1.
         22    1    1    0    0    0  0.24679647737E+02  0.18825292920E+01  0.16915188889E+02  0.29979201859E+02  0.00000000000E+00 0. -1.
</event>
<event>
 5    1  0.1261138E-009  0.9118800E+02  0.7561462E-02  0.1125453E+00
         25   -1    0    0    0    0  0.00000000000E+00  0.00000000000E+00  0.99999998245E-14  0.12509000000E+03  0.12509000000E+03 0.  0.
        -13    1    3    3    0    0 -0.53612870862E+02  0.40077643788E+01  0.16490234119E+02  0.56234696431E+02  0.10566000000E+00 0.  1.
         23    2    1    0    0    0 -0.24028775601E+02 -0.17907899351E+02  0.58780994366E+01  0.94551058154E+02  0.89483381860E+02 0.  0.
         13    1    3    3    0    0  0.29584095261E+02 -0.21915663730E+02 -0.10612134683E+02  0.38316361723E+02  0.10566000000E+00 0. -1.
         22    1    1    0    0    0  0.24028775601E+02  0.17907899351E+02 -0.58780994366E+01  0.30538941846E+02  0.00000000000E+00 0.  1.
</event>
<event>
 5    1  0.1261138E-009  0.9118800E+02  0.7561462E-02  0.1125453E+00
         25   -1    0    0    0    0  0.00000000000E+00  0.00000000000E+00  0.99999998245E-14  0.12509000000E+03  0.12509000000E+03 0.  0.
        -13    1    3    3    0    0  0.89437036441E+01 -0.15655148422E+02 -0.35535205470E+02  0.39847653618E+02  0.10566000000E+00 0.  1.
         23    2    1    0    0    0 -0.14204291727E+02  0.25324846967E+02 -0.59183715939E+01  0.95456625239E+02  0.90740456260E+02 0.  0.
         13    1    3    3    0    0 -0.23147995371E+02  0.40979995390E+02  0.29616833876E+02  0.55608971621E+02  0.10566000000E+00 0. -1.
         22    1    1    0    0    0  0.14204291727E+02 -0.25324846967E+02  0.59183715939E+01  0.29633374761E+02  0.00000000000E+00 0. -1.
</event>
<event>
 5    1  0.1261138E-009  0.9118800E+02  0.7561462E-02  0.1125453E+00
         25   -1    0    0    0    0  0.00000000000E+00  0.00000000000E+00  0.99999998245E-14  0.12509000000E+03  0.12509000000E+03 0.  0.
        -13    1    3    3    0    0 -0.10286424031E+02  0.88442754071E+01  0.27999806398E+02  0.31113213418E+02  0.10566000000E+00 0. -1.
         23    2    1    0    0    0 -0.29733528695E+02  0.10104629319E+02 -0.23297787733E+02  0.85987913411E+02  0.76582948998E+02 0.  0.
         13    1    3    3    0    0 -0.19447104664E+02  0.12603539123E+01 -0.51297594130E+02  0.54874699994E+02  0.10566000000E+00 0.  1.
         22    1    1    0    0    0  0.29733528695E+02 -0.10104629319E+02  0.23297787733E+02  0.39102086589E+02  0.00000000000E+00 0.  1.
</event>
<event>
 5    1  0.1261138E-009  0.9118800E+02  0.7561462E-02  0.1125453E+00
         25   -1    0    0    0    0  0.00000000000E+00  0.00000000000E+00  0.99999998245E-14  0.12509000000E+03  0.12509000000E+03 0.  0.
        -13    1    3    3    0    0 -0.20318224468E+02 -0.95658056189E+01  0.46234765685E+02  0.51400385258E+02  0.10566000000E+00 0.  1.
         23    2    1    0    0    0 -0.32431563526E+01  0.21599809485E+02  0.17869401842E+02  0.96869699592E+02  0.92667973669E+02 0.  0.
         13    1    3    3    0    0  0.17075068115E+02  0.31165615104E+02 -0.28365363844E+02  0.45469314334E+02  0.10566000000E+00 0. -1.
         22    1    1    0    0    0  0.32431563526E+01 -0.21599809485E+02 -0.17869401842E+02  0.28220300408E+02  0.00000000000E+00 0. -1.
</event>
<event>
 5    1  0.1261138E-009  0.9118800E+02  0.7561462E-02  0.1125453E+00
         25   -1    0    0    0    0  0.00000000000E+00  0.00000000000E+00  0.99999998245E-14  0.12509000000E+03  0.12509000000E+03 0.  0.
        -13    1    3    3    0    0  0.12051698068E+02  0.25576238101E+02  0.19331019315E+01  0.28339644120E+02  0.10566000000E+00 0. -1.
         23    2    1    0    0    0 -0.35341673350E+02 -0.96724224792E+01  0.75779151062E+01  0.87673233315E+02  0.79287965107E+02 0.  0.
         13    1    3    3    0    0 -0.47393371418E+02 -0.35248660580E+02  0.56448131747E+01  0.59333589196E+02  0.10566000000E+00 0.  1.
         22    1    1    0    0    0  0.35341673350E+02  0.96724224792E+01 -0.75779151062E+01  0.37416766685E+02  0.00000000000E+00 0.  1.
</event>
<event>
 5    1  0.1261138E-009  0.9118800E+02  0.7561462E-02  0.1125453E+00
         25   -1    0    0    0    0  0.00000000000E+00  0.00000000000E+00  0.99999998245E-14  0.12509000000E+03  0.12509000000E+03 0.  0.
        -13    1    3    3    0    0  0.50445286131E+02 -0.27810607914E+02  0.18743219904E+01  0.57634026862E+02  0.10566000000E+00 0. -1.
         23    2    1    0    0    0  0.19014809731E+02 -0.15114288121E+02 -0.16047010744E+02  0.95977953553E+02  0.91456308256E+02 0.  0.
         13    1    3    3    0    0 -0.31430476400E+02  0.12696319793E+02 -0.17921332735E+02  0.38343926691E+02  0.10566000000E+00 0.  1.
         22    1    1    0    0    0 -0.19014809731E+02  0.15114288121E+02  0.16047010744E+02  0.29112046447E+02  0.00000000000E+00 0. -1.
</event>
<event>
 5    1  0.1261138E-009  0.9118800E+02  0.7561462E-02  0.1125453E+00
         25   -1    0    0    0    0  0.00000000000E+00  0.00000000000E+00  0.99999998245E-14  0.12509000000E+03  0.12509000000E+03 0.  0.
        -13    1    3    3    0    0  0.27998904230E+02 -0.13168727370E+02  0.18015516246E+02  0.35803966376E+02  0.10566000000E+00 0.  1.
         23    2    1    0    0    0 -0.26026516648E+02  0.10929933891E+02  0.74293840146E+01  0.95900296840E+02  0.91350030999E+02 0.  0.
         13    1    3    3    0    0 -0.54025420878E+02  0.24098661261E+02 -0.10586132231E+02  0.60096330464E+02  0.10566000000E+00 0. -1.
         22    1    1    0    0    0  0.26026516648E+02 -0.10929933891E+02 -0.74293840146E+01  0.29189703160E+02  0.00000000000E+00 0. -1.
</event>
<event>
 5    1  0.1261138E-009  0.9118800E+02  0.7561462E-02  0.1125453E+00
         25   -1    0    0    0    0  0.00000000000E+00  0.00000000000E+00  0.99999998245E-14  0.12509000000E+03  0.12509000000E+03 0.  0.
        -13    1    3    3    0    0 -0.29472406934E+02 -0.90405903935E+01 -0.15598802181E+02  0.34549802295E+02  0.10566000000E+00 0.  1.
         23    2    1    0    0    0  0.14879211592E+02  0.10128340964E+02  0.22639650716E+02  0.96167205999E+02  0.91714794319E+02 0.  0.
         13    1    3    3    0    0  0.44351618525E+02  0.19168931357E+02  0.38238452897E+02  0.61617403704E+02  0.10566000000E+00 0. -1.
         22    1    1    0    0    0 -0.14879211592E+02 -0.10128340964E+02 -0.22639650716E+02  0.28922794001E+02  0.00000000000E+00 0. -1.
</event>
<event>
 5    1  0.1261138E-009  0.9118800E+02  0.7561462E-02  0.1125453E+00
         25   -1    0    0    0    0  0.00000000000E+00  0.00000000000E+00  0.99999998245E-14  0.12509000000E+03  0.12509000000E+03 0.  0.
        -13    1    3    3    0    0 -0.25278066490E+02  0.41274783833E+01 -0.30375138971E+02  0.39732567936E+02  0.10566000000E+00 0.  1.
         23    2    1    0    0    0 -0.23894144581E+02  0.10875853447E+01  0.22225367633E+02  0.92439120172E+02  0.86480697179E+02 0.  0.
         13    1    3    3    0    0  0.13839219088E+01 -0.30398930386E+01  0.52600506603E+02  0.52706552235E+02  0.10566000000E+00 0. -1.
         22    1    1    0    0    0  0.23894144581E+02 -0.10875853447E+01 -0.22225367633E+02  0.32650879828E+02  0.00000000000E+00 0. -1.
</event>
<event>
 5    1  0.1261138E-009  0.9118800E+02  0.7561462E-02  0.1125453E+00
         25   -1    0    0    0    0  0.00000000000E+00  0.00000000000E+00  0.99999998245E-14  0.12509000000E+03  0.12509000000E+03 0.  0.
        -13    1    3    3    0    0  0.17499798110E+02 -0.35108036702E+01 -0.54622367419E+02  0.57464622707E+02  0.10566000000E+00 0. -1.
         23    2    1    0    0    0  0.12283537624E+02  0.15323437835E+02 -0.21125376498E+02  0.96246030512E+02  0.91822240299E+02 0.  0.
         13    1    3    3    0    0 -0.52162604864E+01  0.18834241506E+02  0.33496990921E+02  0.38781407805E+02  0.10566000000E+00 0.  1.
         22    1    1    0    0    0 -0.12283537624E+02 -0.15323437835E+02  0.21125376498E+02  0.28843969488E+02  0.00000000000E+00 0. -1.
</event>
<event>
 5    1  0.1261138E-009  0.9118800E+02  0.7561462E-02  0.1125453E+00
         25   -1    0    0    0    0  0.00000000000E+00  0.00000000000E+00  0.99999998245E-14  0.12509000000E+03  0.12509000000E+03 0.  0.
        -13    1    3    3    0    0 -0.16384284148E+02  0.31720149399E+02  0.17955509097E+02  0.39962784135E+02  0.10566000000E+00 0. -1.
         23    2    1    0    0    0  0.21771159807E+02  0.10506909656E+02 -0.16705557928E+02  0.95705408536E+02  0.91082770091E+02 0.  0.
         13    1    3    3    0    0  0.38155443954E+02 -0.21213239743E+02 -0.34661067024E+02  0.55742624400E+02  0.10566000000E+00 0.  1.
         22    1    1    0    0    0 -0.21771159807E+02 -0.10506909656E+02  0.16705557928E+02  0.29384591464E+02  0.00000000000E+00 0.  1.
</event>
<event>
 5    1  0.1261138E-009  0.9118800E+02  0.7561462E-02  0.1125453E+00
         25   -1    0    0    0    0  0.00000000000E+00  0.00000000000E+00  0.99999998245E-14  0.12509000000E+03  0.12509000000E+03 0.  0.
        -13    1    3    3    0    0 -0.27009959842E+02 -0.43153999172E+02 -0.80721102798E+01  0.51545860198E+02  0.10566000000E+00 0.  1.
         23    2    1    0    0    0  0.40269480695E+00 -0.15343532856E+02 -0.26298718007E+02  0.94639897661E+02  0.89607485719E+02 0.  0.
         13    1    3    3    0    0  0.27412654649E+02  0.27810466316E+02 -0.18226607727E+02  0.43094037463E+02  0.10566000000E+00 0. -1.
         22    1    1    0    0    0 -0.40269480695E+00  0.15343532856E+02  0.26298718007E+02  0.30450102339E+02  0.00000000000E+00 0.  1.
</event>
<event>
 5    1  0.1261138E-009  0.9118800E+02  0.7561462E-02  0.1125453E+00
         25   -1    0    0    0    0  0.00000000000E+00  0.00000000000E+00  0.99999998245E-14  0.12509000000E+03  0.12509000000E+03 0.  0.
        -13    1    3    3    0    0  0.47131087779E+02  0.16691196325E+02 -0.12362179160E+02  0.51505049341E+02  0.10566000000E+00 0. -1.
         23    2    1    0    0    0  0.24342670632E+02 -0.40977640097E+01  0.17807107094E+02  0.94652353139E+02  0.89624871595E+02 0.  0.
         13    1    3    3    0    0 -0.22788417148E+02 -0.20788960335E+02  0.30169286254E+02  0.43147303798E+02  0.10566000000E+00 0.  1.
         22    1    1    0    0    0 -0.24342670632E+02  0.40977640097E+01 -0.17807107094E+02  0.30437646861E+02  0.00000000000E+00 0. -1.
</event>
<event>
 5    1  0.1261138E-009  0.9118800E+02  0.7561462E-02  0.1125453E+00
         25   -1    0    0    0    0  0.00000000000E+00  0.00000000000E+00  0.99999998245E-14  0.12509000000E+03  0.12509000000E+03 0.  0.
        -13    1    3    3    0    0 -0.14930216988E+02  0.28712854553E+02  0.17808470266E+02  0.36939033192E+02  0.10566000000E+00 0.  1.
         23    2    1    0    0    0 -0.38879292104E+01 -0.27909762531E+02  0.10169017544E+02  0.95132033516E+02  0.90291882497E+02 0.  0.
         13    1    3    3    0    0  0.11042287777E+02 -0.56622617084E+02 -0.76394527225E+01  0.58193000324E+02  0.10566000000E+00 0. -1.
         22    1    1    0    0    0  0.38879292104E+01  0.27909762531E+02 -0.10169017544E+02  0.29957966484E+02  0.00000000000E+00 0. -1.
</event>
<event>
 5    1  0.1261138E-009  0.9118800E+02  0.7561462E-02  0.1125453E+00
         25   -1    0    0    0    0  0.00000000000E+00  0.00000000000E+00  0.99999998245E-14  0.12509000000E+03  0.12509000000E+03 0.  0.
        -13    1    3    3    0    0  0.15209993529E+02  0.42922942530E+02 -0.36458148280E+02  0.58334643554E+02  0.10566000000E+00 0. -1.
         23    2    1    0    0    0 -0.66954000106E+01  0.17551810706E+02 -0.25126106488E+02  0.93717788289E+02  0.88310861021E+02 0.  0.
         13    1    3    3    0    0 -0.21905393540E+02 -0.25371131824E+02  0.11332041792E+02  0.35383144735E+02  0.10566000000E+00 0.  1.
         22    1    1    0    0    0  0.66954000106E+01 -0.17551810706E+02  0.25126106488E+02  0.31372211711E+02  0.00000000000E+00 0. -1.
</event>
<event>
 5    1  0.1261138E-009  0.9118800E+02  0.7561462E-02  0.1125453E+00
         25   -1    0    0    0    0  0.00000000000E+00  0.00000000000E+00  0.99999998245E-14  0.12509000000E+03  0.12509000000E+03 0.  0.
        -13    1    3    3    0    0  0.55464995170E+02 -0.14555483869E+02 -0.19863571169E+02  0.60686080969E+02  0.10566000000E+00 0. -1.
         23    2    1    0    0    0  0.26094071144E+02  0.39535447853E+01 -0.10858544523E+02  0.96551621378E+02  0.92237609120E+02 0.  0.
         13    1    3    3    0    0 -0.29370924026E+02  0.18509028654E+02  0.90050266456E+01  0.35865540408E+02  0.10566000000E+00 0.  1.
         22    1    1    0    0    0 -0.26094071144E+02 -0.39535447853E+01  0.10858544523E+02  0.28538378622E+02  0.00000000000E+00 0. -1.
</event>
<event>
 5    1  0.1261138E-009  0.9118800E+02  0.7561462E-02  0.1125453E+00
         25   -1    0    0    0    0  0.00000000000E+00  0.00000000000E+00  0.99999998245E-14  0.12509000000E+03  0.12509000000E+03 0.  0.
        -13    1    3    3    0    0  0.51331936252E+02  0.26188599997E+02  0.20060147257E+02  0.61018285138E+02  0.10566000000E+00 0. -1.
         23    2    1    0    0    0  0.25519700032E+02  0.13873794216E+02 -0.15748597490E+00  0.96042417355E+02  0.91544436608E+02 0.  0.
         13    1    3    3    0    0 -0.25812236220E+02 -0.12314805780E+02 -0.20217633232E+02  0.35024132218E+02  0.10566000000E+00 0.  1.
         22    1    1    0    0    0 -0.25519700032E+02 -0.13873794216E+02  0.15748597490E+00  0.29047582645E+02  0.00000000000E+00 0. -1.
</event>
<event>
 5    1  0.1261138E-009  0.9118800E+02  0.7561462E-02  0.1125453E+00
         25   -1    0    0    0    0  0.00000000000E+00  0.00000000000E+00  0.99999998245E-14  0.12509000000E+03  0.12509000000E+03 0.  0.
        -13    1    3    3    0    0  0.15072660697E+02  0.21386537505E+02  0.38813002107E+02  0.46808432825E+02  0.10566000000E+00 0. -1.
         23    2    1    0    0    0 -0.41822697926E+01 -0.19920045724E+02  0.21291012012E+02  0.95634834159E+02  0.90985794000E+02 0.  0.
         13    1    3    3    0    0 -0.19254930490E+02 -0.41306583229E+02 -0.17521990096E+02  0.48826401333E+02  0.10566000000E+00 0.  1.
         22    1    1    0    0    0  0.41822697926E+01  0.19920045724E+02 -0.21291012012E+02  0.29455165841E+02  0.00000000000E+00 0. -1.
</event>
<event>
 5    1  0.1261138E-009  0.9118800E+02  0.7561462E-02  0.1125453E+00
         25   -1    0    0    0    0  0.00000000000E+00  0.00000000000E+00  0.99999998245E-14  0.12509000000E+03  0.12509000000E+03 0.  0.
        -13    1    3    3    0    0 -0.15246801826E+02 -0.32338472791E+02 -0.45103108355E+01  0.36036035523E+02  0.10566000000E+00 0.  1.
         23    2    1    0    0    0  0.28019957336E+02  0.81000632696E+01  0.31554340629E+01  0.95752552970E+02  0.91147493669E+02 0.  0.
         13    1    3    3    0    0  0.43266759162E+02  0.40438536060E+02  0.76657448984E+01  0.59716517447E+02  0.10566000000E+00 0. -1.
         22    1    1    0    0    0 -0.28019957336E+02 -0.81000632696E+01 -0.31554340629E+01  0.29337447030E+02  0.00000000000E+00 0. -1.
</event>
<event>
 5    1  0.1261138E-009  0.9118800E+02  0.7561462E-02  0.1125453E+00
         25   -1    0    0    0    0  0.00000000000E+00  0.00000000000E+00  0.99999998245E-14  0.12509000000E+03  0.12509000000E+03 0.  0.
        -13    1    3    3    0    0 -0.53762103510E+01  0.28951880245E+02  0.22846030890E+02  0.37270193170E+02  0.10566000000E+00 0.  1.
         23    2    1    0    0    0 -0.18364728107E+01 -0.27819439359E+02  0.86936114255E+01  0.95886015370E+02  0.91330472600E+02 0.  0.
         13    1    3    3    0    0  0.35397375403E+01 -0.56771319604E+02 -0.14152419464E+02  0.58615822200E+02  0.10566000000E+00 0. -1.
         22    1    1    0    0    0  0.18364728107E+01  0.27819439359E+02 -0.86936114255E+01  0.29203984630E+02  0.00000000000E+00 0. -1.
</event>
<event>
 5    1  0.1261138E-009  0.9118800E+02  0.7561462E-02  0.1125453E+00
         25   -1    0    0    0    0  0.00000000000E+00  0.00000000000E+00  0.99999998245E-14  0.12509000000E+03  0.12509000000E+03 0.  0.
        -13    1    3    3    0    0 -0.52627390068E+02 -0.52561946551E+01 -0.23790206927E+02  0.57993576172E+02  0.10566000000E+00 0.  1.
         23    2    1    0    0    0 -0.32681669487E+02 -0.10488442896E+02  0.16323694720E+01  0.90727759314E+02  0.83968819958E+02 0.  0.
         13    1    3    3    0    0  0.19945720580E+02 -0.52322482413E+01  0.25422576399E+02  0.32734183142E+02  0.10566000000E+00 0. -1.
         22    1    1    0    0    0  0.32681669487E+02  0.10488442896E+02 -0.16323694720E+01  0.34362240686E+02  0.00000000000E+00 0.  1.
</event>
<event>
 5    1  0.1261138E-009  0.9118800E+02  0.7561462E-02  0.1125453E+00
         25   -1    0    0    0    0  0.00000000000E+00  0.00000000000E+00  0.99999998245E-14  0.12509000000E+03  0.12509000000E+03 0.  0.
        -13    1    3    3    0    0  0.53990852631E+02 -0.25260269998E+02  0.11596953551E+01  0.59619203832E+02  0.10566000000E+00 0. -1.
         23    2    1    0    0    0  0.29304808147E+02  0.56063721397E+00 -0.31931662595E+01  0.95606404470E+02  0.90946699612E+02 0.  0.
         13    1    3    3    0    0 -0.24686044484E+02  0.25820907212E+02 -0.43528616146E+01  0.35987200638E+02  0.10566000000E+00 0.  1.
         22    1    1    0    0    0 -0.29304808147E+02 -0.56063721397E+00  0.31931662595E+01  0.29483595530E+02  0.00000000000E+00 0. -1.
</event>
<event>
 5    1  0.1261138E-009  0.9118800E+02  0.7561462E-02  0.1125453E+00
         25   -1    0    0    0    0  0.00000000000E+00  0.00000000000E+00  0.99999998245E-14  0.12509000000E+03  0.12509000000E+03 0.  0.
        -13    1    3    3    0    0  0.20107477735E+02 -0.33383627278E+02 -0.12560923688E+02  0.40945881344E+02  0.10566000000E+00 0.  1.
         23    2    1    0    0    0 -0.44502210807E+01 -0.53980586403E+01  0.28131505285E+02  0.96101638640E+02  0.91625323218E+02 0.  0.
         13    1    3    3    0    0 -0.24557698816E+02  0.27985568637E+02  0.40692428973E+02  0.55155757296E+02  0.10566000000E+00 0. -1.
         22    1    1    0    0    0  0.44502210807E+01  0.53980586403E+01 -0.28131505285E+02  0.28988361360E+02  0.00000000000E+00 0. -1.
</event>
<event>
 5    1  0.1261138E-009  0.9118800E+02  0.7561462E-02  0.1125453E+00
         25   -1    0    0    0    0  0.00000000000E+00  0.00000000000E+00  0.99999998245E-14  0.12509000000E+03  0.12509000000E+03 0.  0.
        -13    1    3    3    0    0 -0.21517371345E+02 -0.13573280777E+02  0.38062347751E+02  0.45781925484E+02  0.10566000000E+00 0. -1.
         23    2    1    0    0    0  0.21504042581E+02  0.59012669423E+01  0.10755592726E+02  0.10033254509E+03  0.97230077805E+02 0.  0.
         13    1    3    3    0    0  0.43021413926E+02  0.19474547719E+02 -0.27306755026E+02  0.54550619604E+02  0.10566000000E+00 0.  1.
         22    1    1    0    0    0 -0.21504042581E+02 -0.59012669423E+01 -0.10755592726E+02  0.24757454912E+02  0.00000000000E+00 0. -1.
</event>
<event>
 5    1  0.1261138E-009  0.9118800E+02  0.7561462E-02  0.1125453E+00
         25   -1    0    0    0    0  0.00000000000E+00  0.00000000000E+00  0.99999998245E-14  0.12509000000E+03  0.12509000000E+03 0.  0.
        -13    1    3    3    0    0  0.45969222587E+02 -0.99258572884E+01  0.10565227699E+00  0.47028867673E+02  0.10566000000E+00 0. -1.
         23    2    1    0    0    0  0.10756047404E+02  0.21833376048E+02 -0.14638623635E+02  0.96687919665E+02  0.92422268106E+02 0.  0.
         13    1    3    3    0    0 -0.35213175183E+02  0.31759233337E+02 -0.14744275912E+02  0.49659051992E+02  0.10566000000E+00 0.  1.
         22    1    1    0    0    0 -0.10756047404E+02 -0.21833376048E+02  0.14638623635E+02  0.28402080335E+02  0.00000000000E+00 0.  1.
</event>
<event>
 5    1  0.1261138E-009  0.9118800E+02  0.7561462E-02  0.1125453E+00
         25   -1    0    0    0    0  0.00000000000E+00  0.00000000000E+00  0.99999998245E-14  0.12509000000E+03  0.12509000000E+03 0.  0.
        -13    1    3    3    0    0 -0.50080218056E+01  0.31323905557E+02 -0.50646993498E+02  0.59761161771E+02  0.10566000000E+00 0.  1.
         23    2    1    0    0    0 -0.13847224960E+02  0.19721650803E+02 -0.19731453965E+02  0.93944865146E+02  0.88631925750E+02 0.  0.
         13    1    3    3    0    0 -0.88392031548E+01 -0.11602254754E+02  0.30915539533E+02  0.34183703375E+02  0.10566000000E+00 0. -1.
         22    1    1    0    0    0  0.13847224960E+02 -0.19721650803E+02  0.19731453965E+02  0.31145134854E+02  0.00000000000E+00 0.  1.
</event>
<event>
 5    1  0.1261138E-009  0.9118800E+02  0.7561462E-02  0.1125453E+00
         25   -1    0    0    0    0  0.00000000000E+00  0.00000000000E+00  0.99999998245E-14  0.12509000000E+03  0.12509000000E+03 0.  0.
        -13    1    3    3    0    0  0.97689032164E+01  0.26973844632E+02  0.51293519456E+02  0.58771218011E+02  0.10566000000E+00 0.  1.
         23    2    1    0    0    0  0.18912082960E+02  0.16277070202E+02  0.19900981125E+02  0.93173563075E+02  0.87536586123E+02 0.  0.
         13    1    3    3    0    0  0.91431797440E+01 -0.10696774430E+02 -0.31392538331E+02  0.34402345064E+02  0.10566000000E+00 0. -1.
         22    1    1    0    0    0 -0.18912082960E+02 -0.16277070202E+02 -0.19900981125E+02  0.31916436925E+02  0.00000000000E+00 0.  1.
</event>
<event>
 5    1  0.1261138E-009  0.9118800E+02  0.7561462E-02  0.1125453E+00
         25   -1    0    0    0    0  0.00000000000E+00  0.00000000000E+00  0.99999998245E-14  0.12509000000E+03  0.12509000000E+03 0.  0.
        -13    1    3    3    0    0  0.19065522302E+02  0.27872942818E+02  0.10218832401E+02  0.35282159538E+02  0.10566000000E+00 0. -1.
         23    2    1    0    0    0 -0.15350738902E+02 -0.79660834670E+01 -0.23923405390E+02  0.95569956029E+02  0.90896553836E+02 0.  0.
         13    1    3    3    0    0 -0.34416261204E+02 -0.35839026285E+02 -0.34142237791E+02  0.60287796491E+02  0.10566000000E+00 0.  1.
         22    1    1    0    0    0  0.15350738902E+02  0.79660834670E+01  0.23923405390E+02  0.29520043971E+02  0.00000000000E+00 0.  1.
</event>
<event>
 5    1  0.1261138E-009  0.9118800E+02  0.7561462E-02  0.1125453E+00
         25   -1    0    0    0    0  0.00000000000E+00  0.00000000000E+00  0.99999998245E-14  0.12509000000E+03  0.12509000000E+03 0.  0.
        -13    1    3    3    0    0  0.28724065742E+02  0.59404268852E+01 -0.18263430493E+02  0.34553215215E+02  0.10566000000E+00 0.  1.
         23    2    1    0    0    0 -0.14239435518E+02  0.18188574795E+02  0.20880918717E+02  0.93951622659E+02  0.88641462403E+02 0.  0.
         13    1    3    3    0    0 -0.42963501260E+02  0.12248147909E+02  0.39144349210E+02  0.59398407444E+02  0.10566000000E+00 0. -1.
         22    1    1    0    0    0  0.14239435518E+02 -0.18188574795E+02 -0.20880918717E+02  0.31138377341E+02  0.00000000000E+00 0. -1.
</event>
<event>
 5    1  0.1261138E-009  0.9118800E+02  0.7561462E-02  0.1125453E+00
         25   -1    0    0    0    0  0.00000000000E+00  0.00000000000E+00  0.99999998245E-14  0.12509000000E+03  0.12509000000E+03 0.  0.
        -13    1    3    3    0    0  0.36295193505E+02  0.12893153211E+02 -0.89467937985E-01  0.38517445915E+02  0.10566000000E+00 0. -1.
         23    2    1    0    0    0 -0.77189641373E+01 -0.25611907141E+02  0.70373203886E+01  0.97429991450E+02  0.93421235065E+02 0.  0.
         13    1    3    3    0    0 -0.44014157642E+02 -0.38505060351E+02  0.71267883265E+01  0.58912545535E+02  0.10566000000E+00 0.  1.
         22    1    1    0    0    0  0.77189641373E+01  0.25611907141E+02 -0.70373203886E+01  0.27660008550E+02  0.00000000000E+00 0.  1.
</event>
<event>
 4    1  0.1261138E-009  0.9118800E+02  0.7561462E-02  0.1125453E+00
         25   -1    0    0    0    0  0.00000000000E+00  0.00000000000E+00  0.99999998245E-14  0.12509000000E+03  0.12509000000E+03 0.  0.
        -13    1    1    0    0    0  0.16290409019E+02 -0.24809811758E+02 -0.30271616571E+02  0.42394411417E+02  0.10566000000E+00 0.  1.
         13    1    1    0    0    0  0.22300984577E+02 -0.46913900445E+01 -0.41447959456E+01  0.23163193889E+02  0.10566000000E+00 0. -1.
         22    1    1    0    0    0 -0.38591393597E+02  0.29501201802E+02  0.34416412517E+02  0.59532394695E+02  0.00000000000E+00 0. -1.
</event>
<event>
 5    1  0.1261138E-009  0.9118800E+02  0.7561462E-02  0.1125453E+00
         25   -1    0    0    0    0  0.00000000000E+00  0.00000000000E+00  0.99999998245E-14  0.12509000000E+03  0.12509000000E+03 0.  0.
        -13    1    3    3    0    0 -0.25614021574E+02  0.26145868202E+02  0.26670062447E+02  0.45287834130E+02  0.10566000000E+00 0. -1.
         23    2    1    0    0    0  0.57183988948E+01  0.22856457343E+02 -0.14723550645E+02  0.97306899529E+02  0.93256270696E+02 0.  0.
         13    1    3    3    0    0  0.31332420469E+02 -0.32894108591E+01 -0.41393613092E+02  0.52019065400E+02  0.10566000000E+00 0.  1.
         22    1    1    0    0    0 -0.57183988948E+01 -0.22856457343E+02  0.14723550645E+02  0.27783100471E+02  0.00000000000E+00 0.  1.
</event>
<event>
 5    1  0.1261138E-009  0.9118800E+02  0.7561462E-02  0.1125453E+00
         25   -1    0    0    0    0  0.00000000000E+00  0.00000000000E+00  0.99999998245E-14  0.12509000000E+03  0.12509000000E+03 0.  0.
        -13    1    3    3    0    0  0.20552459124E+02  0.52640905113E+02 -0.14623038109E+02  0.58372192649E+02  0.10566000000E+00 0.  1.
         23    2    1    0    0    0  0.10933727028E+02  0.26052629410E+02  0.92321689509E+01  0.95365955365E+02  0.90615377355E+02 0.  0.
         13    1    3    3    0    0 -0.96187320956E+01 -0.26588275702E+02  0.23855207060E+02  0.36993762716E+02  0.10566000000E+00 0. -1.
         22    1    1    0    0    0 -0.10933727028E+02 -0.26052629410E+02 -0.92321689509E+01  0.29724044635E+02  0.00000000000E+00 0.  1.
</event>
<event>
 5    1  0.1261138E-009  0.9118800E+02  0.7561462E-02  0.1125453E+00
         25   -1    0    0    0    0  0.00000000000E+00  0.00000000000E+00  0.99999998245E-14  0.12509000000E+03  0.12509000000E+03 0.  0.
        -13    1    3    3    0    0 -0.48378068292E+02 -0.12455394659E+02  0.23171996754E+02  0.55068384264E+02  0.10566000000E+00 0.  1.
         23    2    1    0    0    0 -0.85136336380E+01 -0.76091849035E+00  0.26981291529E+02  0.96787154786E+02  0.92556481590E+02 0.  0.
         13    1    3    3    0    0  0.39864434654E+02  0.11694476169E+02  0.38092947742E+01  0.41718770522E+02  0.10566000000E+00 0. -1.
         22    1    1    0    0    0  0.85136336380E+01  0.76091849035E+00 -0.26981291529E+02  0.28302845214E+02  0.00000000000E+00 0. -1.
</event>
<event>
 5    1  0.1261138E-009  0.9118800E+02  0.7561462E-02  0.1125453E+00
         25   -1    0    0    0    0  0.00000000000E+00  0.00000000000E+00  0.99999998245E-14  0.12509000000E+03  0.12509000000E+03 0.  0.
        -13    1    3    3    0    0 -0.37125279930E+02  0.10950012364E+02 -0.13142464372E+02  0.40876946002E+02  0.10566000000E+00 0.  1.
         23    2    1    0    0    0  0.17523862274E+02  0.21273993448E+02 -0.40040700470E+01  0.97238588489E+02  0.93164596109E+02 0.  0.
         13    1    3    3    0    0  0.54649142203E+02  0.10323981084E+02  0.91383943254E+01  0.56361642487E+02  0.10566000000E+00 0. -1.
         22    1    1    0    0    0 -0.17523862274E+02 -0.21273993448E+02  0.40040700470E+01  0.27851411511E+02  0.00000000000E+00 0. -1.
</event>
<event>
 5    1  0.1261138E-009  0.9118800E+02  0.7561462E-02  0.1125453E+00
         25   -1    0    0    0    0  0.00000000000E+00  0.00000000000E+00  0.99999998245E-14  0.12509000000E+03  0.12509000000E+03 0.  0.
        -13    1    3    3    0    0 -0.20471426705E+02 -0.69826627025E+01 -0.39026716824E+02  0.44619868667E+02  0.10566000000E+00 0. -1.
         23    2    1    0    0    0  0.11763224608E+02 -0.27492469705E+02 -0.72340375588E+01  0.94324099346E+02  0.89165548697E+02 0.  0.
         13    1    3    3    0    0  0.32234651313E+02 -0.20509807002E+02  0.31792679265E+02  0.49704230679E+02  0.10566000000E+00 0.  1.
         22    1    1    0    0    0 -0.11763224608E+02  0.27492469705E+02  0.72340375588E+01  0.30765900654E+02  0.00000000000E+00 0.  1.
</event>
<event>
 5    1  0.1261138E-009  0.9118800E+02  0.7561462E-02  0.1125453E+00
         25   -1    0    0    0    0  0.00000000000E+00  0.00000000000E+00  0.99999998245E-14  0.12509000000E+03  0.12509000000E+03 0.  0.
        -13    1    3    3    0    0  0.18654834544E+02  0.11252778274E+02 -0.18554873317E+02  0.28616819505E+02  0.10566000000E+00 0. -1.
         23    2    1    0    0    0 -0.12126644759E+02 -0.14891457363E+02  0.28561055612E+02  0.90672781734E+02  0.83886878796E+02 0.  0.
         13    1    3    3    0    0 -0.30781479303E+02 -0.26144235637E+02  0.47115928930E+02  0.62055962228E+02  0.10566000000E+00 0.  1.
         22    1    1    0    0    0  0.12126644759E+02  0.14891457363E+02 -0.28561055612E+02  0.34417218266E+02  0.00000000000E+00 0.  1.
</event>
<event>
 5    1  0.1261138E-009  0.9118800E+02  0.7561462E-02  0.1125453E+00
         25   -1    0    0    0    0  0.00000000000E+00  0.00000000000E+00  0.99999998245E-14  0.12509000000E+03  0.12509000000E+03 0.  0.
        -13    1    3    3    0    0  0.37852107955E+02  0.16160227129E+02  0.45074803284E+02  0.61038381963E+02  0.10566000000E+00 0.  1.
         23    2    1    0    0    0  0.79464198119E+01  0.99415490588E+01  0.23265938385E+02  0.98570500109E+02  0.94936081746E+02 0.  0.
         13    1    3    3    0    0 -0.29905688144E+02 -0.62186780706E+01 -0.21808864899E+02  0.37532118146E+02  0.10566000000E+00 0. -1.
         22    1    1    0    0    0 -0.79464198119E+01 -0.99415490588E+01 -0.23265938385E+02  0.26519499891E+02  0.00000000000E+00 0.  1.
</event>
<event>
 5    1  0.1261138E-009  0.9118800E+02  0.7561462E-02  0.1125453E+00
         25   -1    0    0    0    0  0.00000000000E+00  0.00000000000E+00  0.99999998245E-14  0.12509000000E+03  0.12509000000E+03 0.  0.
        -13    1    3    3    0    0  0.44966742671E+02 -0.14004380644E+02 -0.37926382900E+01  0.47249612622E+02  0.10566000000E+00 0. -1.
         23    2    1    0    0    0  0.17188383267E+02  0.23202807052E+02  0.79409831675E+01  0.95142212300E+02  0.90305983043E+02 0.  0.
         13    1    3    3    0    0 -0.27778359404E+02  0.37207187696E+02  0.11733621458E+02  0.47892599679E+02  0.10566000000E+00 0.  1.
         22    1    1    0    0    0 -0.17188383267E+02 -0.23202807052E+02 -0.79409831675E+01  0.29947787700E+02  0.00000000000E+00 0.  1.
</event>
<event>
 5    1  0.1261138E-009  0.9118800E+02  0.7561462E-02  0.1125453E+00
         25   -1    0    0    0    0  0.00000000000E+00  0.00000000000E+00  0.99999998245E-14  0.12509000000E+03  0.12509000000E+03 0.  0.
        -13    1    3    3    0    0  0.62224198775E+00  0.28435464074E+01 -0.45226340655E+02  0.45320039655E+02  0.10566000000E+00 0.  1.
         23    2    1    0    0    0  0.26720095897E+02  0.11327516588E+02 -0.26857968381E+01  0.95943994074E+02  0.91409848142E+02 0.  0.
         13    1    3    3    0    0  0.26097853909E+02  0.84839701809E+01  0.42540543817E+02  0.50623954419E+02  0.10566000000E+00 0. -1.
         22    1    1    0    0    0 -0.26720095897E+02 -0.11327516588E+02  0.26857968381E+01  0.29146005926E+02  0.00000000000E+00 0. -1.
</event>
<event>
 5    1  0.1261138E-009  0.9118800E+02  0.7561462E-02  0.1125453E+00
         25   -1    0    0    0    0  0.00000000000E+00  0.00000000000E+00  0.99999998245E-14  0.12509000000E+03  0.12509000000E+03 0.  0.
        -13    1    3    3    0    0 -0.23517740897E+01  0.21506107430E+02  0.27590672666E+02  0.35061373053E+02  0.10566000000E+00 0. -1.
         23    2    1    0    0    0 -0.31224697701E+00 -0.74324192586E+01 -0.27109488346E+02  0.96978388296E+02  0.92814573661E+02 0.  0.
         13    1    3    3    0    0  0.20395271127E+01 -0.28938526688E+02 -0.54700161013E+02  0.61917015243E+02  0.10566000000E+00 0.  1.
         22    1    1    0    0    0  0.31224697701E+00  0.74324192586E+01  0.27109488346E+02  0.28111611704E+02  0.00000000000E+00 0.  1.
</event>
<event>
 5    1  0.1261138E-009  0.9118800E+02  0.7561462E-02  0.1125453E+00
         25   -1    0    0    0    0  0.00000000000E+00  0.00000000000E+00  0.99999998245E-14  0.12509000000E+03  0.12509000000E+03 0.  0.
        -13    1    3    3    0    0  0.54154868439E+02  0.22167562150E+01 -0.29500105287E+02  0.61708436698E+02  0.10566000000E+00 0.  1.
         23    2    1    0    0    0  0.25450982014E+02  0.66089580317E+01 -0.88304980438E+01  0.97351786153E+02  0.93316460283E+02 0.  0.
         13    1    3    3    0    0 -0.28703886425E+02  0.43922018166E+01  0.20669607243E+02  0.35643349454E+02  0.10566000000E+00 0. -1.
         22    1    1    0    0    0 -0.25450982014E+02 -0.66089580317E+01  0.88304980438E+01  0.27738213847E+02  0.00000000000E+00 0.  1.
</event>
<event>
 5    1  0.1261138E-009  0.9118800E+02  0.7561462E-02  0.1125453E+00
         25   -1    0    0    0    0  0.00000000000E+00  0.00000000000E+00  0.99999998245E-14  0.12509000000E+03  0.12509000000E+03 0.  0.
        -13    1    3    3    0    0  0.44649646773E+02  0.34023202284E+02 -0.26202982119E+02  0.61949791659E+02  0.10566000000E+00 0. -1.
         23    2    1    0    0    0  0.24227042791E+02  0.11013748776E+02 -0.13683616658E+02  0.95165200429E+02  0.90337820117E+02 0.  0.
         13    1    3    3    0    0 -0.20422603982E+02 -0.23009453509E+02  0.12519365462E+02  0.33215408770E+02  0.10566000000E+00 0.  1.
         22    1    1    0    0    0 -0.24227042791E+02 -0.11013748776E+02  0.13683616658E+02  0.29924799571E+02  0.00000000000E+00 0. -1.
</event>
<event>
 5    1  0.1261138E-009  0.9118800E+02  0.7561462E-02  0.1125453E+00
         25   -1    0    0    0    0  0.00000000000E+00  0.00000000000E+00  0.99999998245E-14  0.12509000000E+03  0.12509000000E+03 0.  0.
        -13    1    3    3    0    0  0.14010628549E+01 -0.22106844417E+02  0.57404778602E+01  0.22883177168E+02  0.10566000000E+00 0. -1.
         23    2    1    0    0    0  0.20269584008E+02  0.35252522129E+02 -0.46737821687E+01  0.84157853806E+02  0.73533011397E+02 0.  0.
         13    1    3    3    0    0  0.18868521153E+02  0.57359366546E+02 -0.10414260029E+02  0.61274676638E+02  0.10566000000E+00 0.  1.
         22    1    1    0    0    0 -0.20269584008E+02 -0.35252522129E+02  0.46737821687E+01  0.40932146194E+02  0.00000000000E+00 0.  1.
</event>
<event>
 5    1  0.1261138E-009  0.9118800E+02  0.7561462E-02  0.1125453E+00
         25   -1    0    0    0    0  0.00000000000E+00  0.00000000000E+00  0.99999998245E-14  0.12509000000E+03  0.12509000000E+03 0.  0.
        -13    1    3    3    0    0  0.33840088859E+02 -0.26094713589E+01  0.11343929012E+01  0.33959666754E+02  0.10566000000E+00 0.  1.
         23    2    1    0    0    0 -0.28095089949E+02 -0.37239468191E+01  0.60878441168E+01  0.96102697518E+02  0.91626768824E+02 0.  0.
         13    1    3    3    0    0 -0.61935178808E+02 -0.11144754603E+01  0.49534512156E+01  0.62143030764E+02  0.10566000000E+00 0. -1.
         22    1    1    0    0    0  0.28095089949E+02  0.37239468191E+01 -0.60878441168E+01  0.28987302482E+02  0.00000000000E+00 0. -1.
</event>
<event>
 5    1  0.1261138E-009  0.9118800E+02  0.7561462E-02  0.1125453E+00
         25   -1    0    0    0    0  0.00000000000E+00  0.00000000000E+00  0.99999998245E-14  0.12509000000E+03  0.12509000000E+03 0.  0.
        -13    1    3    3    0    0 -0.45830377227E+02  0.25477635188E+02  0.25261619732E+02  0.58203899930E+02  0.10566000000E+00 0.  1.
         23    2    1    0    0    0 -0.13524457035E+02  0.25775440358E+02  0.76789121771E+01  0.94986014284E+02  0.90089360935E+02 0.  0.
         13    1    3    3    0    0  0.32305920192E+02  0.29780517053E+00 -0.17582707555E+02  0.36782114355E+02  0.10566000000E+00 0. -1.
         22    1    1    0    0    0  0.13524457035E+02 -0.25775440358E+02 -0.76789121771E+01  0.30103985716E+02  0.00000000000E+00 0.  1.
</event>
<event>
 5    1  0.1261138E-009  0.9118800E+02  0.7561462E-02  0.1125453E+00
         25   -1    0    0    0    0  0.00000000000E+00  0.00000000000E+00  0.99999998245E-14  0.12509000000E+03  0.12509000000E+03 0.  0.
        -13    1    3    3    0    0  0.33807721428E+02 -0.66834384458E+01 -0.11012013462E+02  0.36178805704E+02  0.10566000000E+00 0.  1.
         23    2    1    0    0    0 -0.25022099621E+02  0.58810577251E+01 -0.12827899699E+02  0.96362881800E+02  0.91981289775E+02 0.  0.
         13    1    3    3    0    0 -0.58829821049E+02  0.12564496171E+02 -0.18158862375E+01  0.60184076096E+02  0.10566000000E+00 0. -1.
         22    1    1    0    0    0  0.25022099621E+02 -0.58810577251E+01  0.12827899699E+02  0.28727118200E+02  0.00000000000E+00 0. -1.
</event>
<event>
 5    1  0.1261138E-009  0.9118800E+02  0.7561462E-02  0.1125453E+00
         25   -1    0    0    0    0  0.00000000000E+00  0.00000000000E+00  0.99999998245E-14  0.12509000000E+03  0.12509000000E+03 0.  0.
        -13    1    3    3    0    0  0.12703366186E+02 -0.18094004885E+02  0.45817531074E+02  0.50872643365E+02  0.10566000000E+00 0.  1.
         23    2    1    0    0    0 -0.10905118995E+02  0.14497374152E+02  0.14484212693E+02  0.10187604095E+03  0.99195966773E+02 0.  0.
         13    1    3    3    0    0 -0.23608485182E+02  0.32591379036E+02 -0.31333318381E+02  0.51003397582E+02  0.10566000000E+00 0. -1.
         22    1    1    0    0    0  0.10905118995E+02 -0.14497374152E+02 -0.14484212693E+02  0.23213959053E+02  0.00000000000E+00 0.  1.
</event>
<event>
 5    1  0.1261138E-009  0.9118800E+02  0.7561462E-02  0.1125453E+00
         25   -1    0    0    0    0  0.00000000000E+00  0.00000000000E+00  0.99999998245E-14  0.12509000000E+03  0.12509000000E+03 0.  0.
        -13    1    3    3    0    0 -0.80890376207E+01  0.11088149829E+02  0.60623312431E+02  0.62157676681E+02  0.10566000000E+00 0.  1.
         23    2    1    0    0    0  0.49691613236E+00  0.31649641217E+01  0.29753341296E+02  0.95164672235E+02  0.90337088728E+02 0.  0.
         13    1    3    3    0    0  0.85859537530E+01 -0.79231857075E+01 -0.30869971135E+02  0.33006995554E+02  0.10566000000E+00 0. -1.
         22    1    1    0    0    0 -0.49691613236E+00 -0.31649641217E+01 -0.29753341296E+02  0.29925327765E+02  0.00000000000E+00 0.  1.
</event>
<event>
 5    1  0.1261138E-009  0.9118800E+02  0.7561462E-02  0.1125453E+00
         25   -1    0    0    0    0  0.00000000000E+00  0.00000000000E+00  0.99999998245E-14  0.12509000000E+03  0.12509000000E+03 0.  0.
        -13    1    3    3    0    0  0.15110697183E+02  0.56831370933E+02 -0.14472374053E+00  0.58806207159E+02  0.10566000000E+00 0.  1.
         23    2    1    0    0    0 -0.18420889851E+01  0.26037317038E+02 -0.12607484647E+02  0.96102350225E+02  0.91626294694E+02 0.  0.
         13    1    3    3    0    0 -0.16952786169E+02 -0.30794053895E+02 -0.12462760906E+02  0.37296143066E+02  0.10566000000E+00 0. -1.
         22    1    1    0    0    0  0.18420889851E+01 -0.26037317038E+02  0.12607484647E+02  0.28987649775E+02  0.00000000000E+00 0. -1.
</event>
<event>
 5    1  0.1261138E-009  0.9118800E+02  0.7561462E-02  0.1125453E+00
         25   -1    0    0    0    0  0.00000000000E+00  0.00000000000E+00  0.99999998245E-14  0.12509000000E+03  0.12509000000E+03 0.  0.
        -13    1    3    3    0    0  0.24175158654E+02  0.37620699154E+02  0.14486754830E+02  0.47006728565E+02  0.10566000000E+00 0. -1.
         23    2    1    0    0    0 -0.20419824096E+02  0.15432272912E+02  0.11844425243E+02  0.96886903137E+02  0.92691193361E+02 0.  0.
         13    1    3    3    0    0 -0.44594982751E+02 -0.22188426242E+02 -0.26423295875E+01  0.49880174572E+02  0.10566000000E+00 0.  1.
         22    1    1    0    0    0  0.20419824096E+02 -0.15432272912E+02 -0.11844425243E+02  0.28203096863E+02  0.00000000000E+00 0.  1.
</event>
<event>
 5    1  0.1261138E-009  0.9118800E+02  0.7561462E-02  0.1125453E+00
         25   -1    0    0    0    0  0.00000000000E+00  0.00000000000E+00  0.99999998245E-14  0.12509000000E+03  0.12509000000E+03 0.  0.
        -13    1    3    3    0    0 -0.26725917469E+02 -0.37519060383E+02  0.39465872529E+02  0.60659053859E+02  0.10566000000E+00 0. -1.
         23    2    1    0    0    0 -0.19957711311E+02 -0.95715549763E+01  0.18426655556E+02  0.96289539233E+02  0.91881493377E+02 0.  0.
         13    1    3    3    0    0  0.67682061582E+01  0.27947505407E+02 -0.21039216973E+02  0.35630485373E+02  0.10566000000E+00 0.  1.
         22    1    1    0    0    0  0.19957711311E+02  0.95715549763E+01 -0.18426655556E+02  0.28800460767E+02  0.00000000000E+00 0. -1.
</event>
<event>
 5    1  0.1261138E-009  0.9118800E+02  0.7561462E-02  0.1125453E+00
         25   -1    0    0    0    0  0.00000000000E+00  0.00000000000E+00  0.99999998245E-14  0.12509000000E+03  0.12509000000E+03 0.  0.
        -13    1    3    3    0    0 -0.35437595611E+02 -0.42119721559E+02 -0.21359188360E+02  0.59043375736E+02  0.10566000000E+00 0.  1.
         23    2    1    0    0    0 -0.18562087836E+01 -0.23303230257E+02 -0.12648281167E+02  0.98510589399E+02  0.94857109147E+02 0.  0.
         13    1    3    3    0    0  0.33581386827E+02  0.18816491302E+02  0.87109071939E+01  0.39467213663E+02  0.10566000000E+00 0. -1.
         22    1    1    0    0    0  0.18562087836E+01  0.23303230257E+02  0.12648281167E+02  0.26579410601E+02  0.00000000000E+00 0.  1.
</event>
<event>
 5    1  0.1261138E-009  0.9118800E+02  0.7561462E-02  0.1125453E+00
         25   -1    0    0    0    0  0.00000000000E+00  0.00000000000E+00  0.99999998245E-14  0.12509000000E+03  0.12509000000E+03 0.  0.
        -13    1    3    3    0    0  0.29379894880E+01 -0.52136168674E+02  0.19888477884E+02  0.55878212058E+02  0.10566000000E+00 0.  1.
         23    2    1    0    0    0  0.20774169651E+02 -0.26213729728E+02  0.32160112519E+01  0.91488385763E+02  0.85094396115E+02 0.  0.
         13    1    3    3    0    0  0.17836180163E+02  0.25922438946E+02 -0.16672466632E+02  0.35610173705E+02  0.10566000000E+00 0. -1.
         22    1    1    0    0    0 -0.20774169651E+02  0.26213729728E+02 -0.32160112519E+01  0.33601614237E+02  0.00000000000E+00 0.  1.
</event>
<event>
 5    1  0.1261138E-009  0.9118800E+02  0.7561462E-02  0.1125453E+00
         25   -1    0    0    0    0  0.00000000000E+00  0.00000000000E+00  0.99999998245E-14  0.12509000000E+03  0.12509000000E+03 0.  0.
        -13    1    3    3    0    0  0.51409286356E+02  0.18255621438E+02 -0.96235949147E+01  0.55396815620E+02  0.10566000000E+00 0.  1.
         23    2    1    0    0    0  0.34942758752E+02 -0.85692747305E+01  0.22590319805E+01  0.89040976656E+02  0.81417218325E+02 0.  0.
         13    1    3    3    0    0 -0.16466527605E+02 -0.26824896168E+02  0.11882626895E+02  0.33644161035E+02  0.10566000000E+00 0. -1.
         22    1    1    0    0    0 -0.34942758752E+02  0.85692747305E+01 -0.22590319805E+01  0.36049023344E+02  0.00000000000E+00 0.  1.
</event>
<event>
 5    1  0.1261138E-009  0.9118800E+02  0.7561462E-02  0.1125453E+00
         25   -1    0    0    0    0  0.00000000000E+00  0.00000000000E+00  0.99999998245E-14  0.12509000000E+03  0.12509000000E+03 0.  0.
        -13    1    3    3    0    0 -0.15625394511E+02 -0.25225312875E+01  0.20936144695E+02  0.26245941332E+02  0.10566000000E+00 0.  1.
         23    2    1    0    0    0 -0.23579573618E+02  0.10014906994E+02 -0.33640035227E+02  0.82805882128E+02  0.71195979457E+02 0.  0.
         13    1    3    3    0    0 -0.79541791068E+01  0.12537438281E+02 -0.54576179922E+02  0.56559940796E+02  0.10566000000E+00 0. -1.
         22    1    1    0    0    0  0.23579573618E+02 -0.10014906994E+02  0.33640035227E+02  0.42284117872E+02  0.00000000000E+00 0. -1.
</event>
<event>
 5    1  0.1261138E-009  0.9118800E+02  0.7561462E-02  0.1125453E+00
         25   -1    0    0    0    0  0.00000000000E+00  0.00000000000E+00  0.99999998245E-14  0.12509000000E+03  0.12509000000E+03 0.  0.
        -13    1    3    3    0    0  0.72404850933E+01 -0.62561203699E+01  0.34751209496E+02  0.36044713786E+02  0.10566000000E+00 0. -1.
         23    2    1    0    0    0 -0.58139899829E+01  0.22814196095E+02 -0.16461361644E+02  0.96362548840E+02  0.91980836965E+02 0.  0.
         13    1    3    3    0    0 -0.13054475076E+02  0.29070316465E+02 -0.51212571140E+02  0.60317835054E+02  0.10566000000E+00 0.  1.
         22    1    1    0    0    0  0.58139899829E+01 -0.22814196095E+02  0.16461361644E+02  0.28727451160E+02  0.00000000000E+00 0.  1.
</event>
<event>
 5    1  0.1261138E-009  0.9118800E+02  0.7561462E-02  0.1125453E+00
         25   -1    0    0    0    0  0.00000000000E+00  0.00000000000E+00  0.99999998245E-14  0.12509000000E+03  0.12509000000E+03 0.  0.
        -13    1    3    3    0    0 -0.41598031807E+02 -0.38172587552E+01  0.31369058721E+01  0.41890560477E+02  0.10566000000E+00 0.  1.
         23    2    1    0    0    0  0.60650880108E+01 -0.26156203866E+02  0.12695164413E+02  0.95389840190E+02  0.90648343166E+02 0.  0.
         13    1    3    3    0    0  0.47663119818E+02 -0.22338945111E+02  0.95582585408E+01  0.53499279713E+02  0.10566000000E+00 0. -1.
         22    1    1    0    0    0 -0.60650880108E+01  0.26156203866E+02 -0.12695164413E+02  0.29700159810E+02  0.00000000000E+00 0. -1.
</event>
<event>
 5    1  0.1261138E-009  0.9118800E+02  0.7561462E-02  0.1125453E+00
         25   -1    0    0    0    0  0.00000000000E+00  0.00000000000E+00  0.99999998245E-14  0.12509000000E+03  0.12509000000E+03 0.  0.
        -13    1    3    3    0    0  0.14971865958E+02  0.48156272274E+02 -0.30653016639E+02  0.59015268556E+02  0.10566000000E+00 0. -1.
         23    2    1    0    0    0  0.86203285680E+01  0.12204524476E+02 -0.25008655254E+02  0.95957658523E+02  0.91428545375E+02 0.  0.
         13    1    3    3    0    0 -0.63515373900E+01 -0.35951747799E+02  0.56443613855E+01  0.36942389967E+02  0.10566000000E+00 0.  1.
         22    1    1    0    0    0 -0.86203285680E+01 -0.12204524476E+02  0.25008655254E+02  0.29132341477E+02  0.00000000000E+00 0. -1.
</event>
<event>
 5    1  0.1261138E-009  0.9118800E+02  0.7561462E-02  0.1125453E+00
         25   -1    0    0    0    0  0.00000000000E+00  0.00000000000E+00  0.99999998245E-14  0.12509000000E+03  0.12509000000E+03 0.  0.
        -13    1    3    3    0    0  0.46035636536E+02  0.54602027356E+01 -0.41326483610E+02  0.62104613813E+02  0.10566000000E+00 0.  1.
         23    2    1    0    0    0  0.25379042212E+02 -0.20993851384E+01 -0.23866948319E+02  0.90188217472E+02  0.83161169708E+02 0.  0.
         13    1    3    3    0    0 -0.20656594324E+02 -0.75595878740E+01  0.17459535291E+02  0.28083603659E+02  0.10566000000E+00 0. -1.
         22    1    1    0    0    0 -0.25379042212E+02  0.20993851384E+01  0.23866948319E+02  0.34901782528E+02  0.00000000000E+00 0.  1.
</event>
<event>
 5    1  0.1261138E-009  0.9118800E+02  0.7561462E-02  0.1125453E+00
         25   -1    0    0    0    0  0.00000000000E+00  0.00000000000E+00  0.99999998245E-14  0.12509000000E+03  0.12509000000E+03 0.  0.
        -13    1    3    3    0    0  0.24027629010E+02  0.16939787658E+02 -0.22901913884E+02  0.37266502188E+02  0.10566000000E+00 0. -1.
         23    2    1    0    0    0 -0.24191547133E+02  0.16168328922E+02  0.84541579991E+01  0.94789528052E+02  0.89816123430E+02 0.  0.
         13    1    3    3    0    0 -0.48219176143E+02 -0.77145873632E+00  0.31356071883E+02  0.57523025864E+02  0.10566000000E+00 0.  1.
         22    1    1    0    0    0  0.24191547133E+02 -0.16168328922E+02 -0.84541579991E+01  0.30300471948E+02  0.00000000000E+00 0.  1.
</event>
<event>
 5    1  0.1261138E-009  0.9118800E+02  0.7561462E-02  0.1125453E+00
         25   -1    0    0    0    0  0.00000000000E+00  0.00000000000E+00  0.99999998245E-14  0.12509000000E+03  0.12509000000E+03 0.  0.
        -13    1    3    3    0    0  0.15039723198E+02 -0.22996730140E+02 -0.37170780978E+02  0.46224679486E+02  0.10566000000E+00 0. -1.
         23    2    1    0    0    0  0.90097353254E+01  0.22183613522E+02 -0.13938296517E+02  0.97385051899E+02  0.93361042111E+02 0.  0.
         13    1    3    3    0    0 -0.60299878722E+01  0.45180343662E+02  0.23232484461E+02  0.51160372413E+02  0.10566000000E+00 0.  1.
         22    1    1    0    0    0 -0.90097353254E+01 -0.22183613522E+02  0.13938296517E+02  0.27704948101E+02  0.00000000000E+00 0. -1.
</event>
<event>
 5    1  0.1261138E-009  0.9118800E+02  0.7561462E-02  0.1125453E+00
         25   -1    0    0    0    0  0.00000000000E+00  0.00000000000E+00  0.99999998245E-14  0.12509000000E+03  0.12509000000E+03 0.  0.
        -13    1    3    3    0    0 -0.12088633118E+02 -0.58244779102E+01  0.45263579879E+02  0.47210829489E+02  0.10566000000E+00 0.  1.
         23    2    1    0    0    0  0.91783558974E+01  0.24475991985E+02  0.21920467564E+02  0.90975145481E+02  0.84336550774E+02 0.  0.
         13    1    3    3    0    0  0.21266989015E+02  0.30300469895E+02 -0.23343112315E+02  0.43764315992E+02  0.10566000000E+00 0. -1.
         22    1    1    0    0    0 -0.91783558974E+01 -0.24475991985E+02 -0.21920467564E+02  0.34114854519E+02  0.00000000000E+00 0.  1.
</event>
<event>
 5    1  0.1261138E-009  0.9118800E+02  0.7561462E-02  0.1125453E+00
         25   -1    0    0    0    0  0.00000000000E+00  0.00000000000E+00  0.99999998245E-14  0.12509000000E+03  0.12509000000E+03 0.  0.
        -13    1    3    3    0    0 -0.99226434714E+01  0.26254834625E+02  0.54905470500E+02  0.61663579604E+02  0.10566000000E+00 0.  1.
         23    2    1    0    0    0 -0.41251709073E+01  0.55934726933E+01  0.28830268353E+02  0.95433831247E+02  0.90709028224E+02 0.  0.
         13    1    3    3    0    0  0.57974725641E+01 -0.20661361932E+02 -0.26075202147E+02  0.33770251643E+02  0.10566000000E+00 0. -1.
         22    1    1    0    0    0  0.41251709073E+01 -0.55934726933E+01 -0.28830268353E+02  0.29656168753E+02  0.00000000000E+00 0.  1.
</event>
<event>
 5    1  0.1261138E-009  0.9118800E+02  0.7561462E-02  0.1125453E+00
         25   -1    0    0    0    0  0.00000000000E+00  0.00000000000E+00  0.99999998245E-14  0.12509000000E+03  0.12509000000E+03 0.  0.
        -13    1    3    3    0    0 -0.24718657559E+02  0.18635310710E+02  0.14626377986E+02  0.34237828988E+02  0.10566000000E+00 0. -1.
         23    2    1    0    0    0  0.19020972022E+02 -0.91593175533E+01 -0.19550490308E+02  0.96316537469E+02  0.91918242172E+02 0.  0.
         13    1    3    3    0    0  0.43739629581E+02 -0.27794628264E+02 -0.34176868295E+02  0.62078708481E+02  0.10566000000E+00 0.  1.
         22    1    1    0    0    0 -0.19020972022E+02  0.91593175533E+01  0.19550490308E+02  0.28773462531E+02  0.00000000000E+00 0.  1.
</event>
<event>
 5    1  0.1261138E-009  0.9118800E+02  0.7561462E-02  0.1125453E+00
         25   -1    0    0    0    0  0.00000000000E+00  0.00000000000E+00  0.99999998245E-14  0.12509000000E+03  0.12509000000E+03 0.  0.
        -13    1    3    3    0    0  0.47430918112E+01 -0.42746878237E+02  0.17297788418E+02  0.46357493107E+02  0.10566000000E+00 0.  1.
         23    2    1    0    0    0 -0.15046046323E+02  0.24886744394E+01  0.24476220020E+02  0.96251443225E+02  0.91829613774E+02 0.  0.
         13    1    3    3    0    0 -0.19789138134E+02  0.45235552677E+02  0.71784316014E+01  0.49893950118E+02  0.10566000000E+00 0. -1.
         22    1    1    0    0    0  0.15046046323E+02 -0.24886744394E+01 -0.24476220020E+02  0.28838556775E+02  0.00000000000E+00 0.  1.
</event>
<event>
 5    1  0.1261138E-009  0.9118800E+02  0.7561462E-02  0.1125453E+00
         25   -1    0    0    0    0  0.00000000000E+00  0.00000000000E+00  0.99999998245E-14  0.12509000000E+03  0.12509000000E+03 0.  0.
        -13    1    3    3    0    0  0.33437557529E+02 -0.27356425038E+02 -0.38701926923E+02  0.58002539220E+02  0.10566000000E+00 0. -1.
         23    2    1    0    0    0  0.96099704630E+01 -0.19164555333E+00 -0.27692461774E+02  0.95776851084E+02  0.91180834083E+02 0.  0.
         13    1    3    3    0    0 -0.23827587066E+02  0.27164779485E+02  0.11009465150E+02  0.37774311863E+02  0.10566000000E+00 0.  1.
         22    1    1    0    0    0 -0.96099704630E+01  0.19164555333E+00  0.27692461774E+02  0.29313148916E+02  0.00000000000E+00 0. -1.
</event>
<event>
 5    1  0.1261138E-009  0.9118800E+02  0.7561462E-02  0.1125453E+00
         25   -1    0    0    0    0  0.00000000000E+00  0.00000000000E+00  0.99999998245E-14  0.12509000000E+03  0.12509000000E+03 0.  0.
        -13    1    3    3    0    0 -0.23775777945E+02  0.35456425850E+02  0.34015227340E+02  0.54584728688E+02  0.10566000000E+00 0. -1.
         23    2    1    0    0    0  0.38633675182E+01  0.29103325016E+02  0.47274927223E+01  0.95353182365E+02  0.90597743152E+02 0.  0.
         13    1    3    3    0    0  0.27639145464E+02 -0.63531008341E+01 -0.29287734617E+02  0.40768453677E+02  0.10566000000E+00 0.  1.
         22    1    1    0    0    0 -0.38633675182E+01 -0.29103325016E+02 -0.47274927223E+01  0.29736817635E+02  0.00000000000E+00 0. -1.
</event>
<event>
 5    1  0.1261138E-009  0.9118800E+02  0.7561462E-02  0.1125453E+00
         25   -1    0    0    0    0  0.00000000000E+00  0.00000000000E+00  0.99999998245E-14  0.12509000000E+03  0.12509000000E+03 0.  0.
        -13    1    3    3    0    0  0.33480753645E+02  0.45399370842E+02  0.86149642544E+01  0.57063933536E+02  0.10566000000E+00 0.  1.
         23    2    1    0    0    0  0.94319661724E+01  0.24122406053E+02 -0.13333505974E+02  0.95958662214E+02  0.91429918586E+02 0.  0.
         13    1    3    3    0    0 -0.24048787472E+02 -0.21276964789E+02 -0.21948470228E+02  0.38894728678E+02  0.10566000000E+00 0. -1.
         22    1    1    0    0    0 -0.94319661724E+01 -0.24122406053E+02  0.13333505974E+02  0.29131337786E+02  0.00000000000E+00 0.  1.
</event>
<event>
 5    1  0.1261138E-009  0.9118800E+02  0.7561462E-02  0.1125453E+00
         25   -1    0    0    0    0  0.00000000000E+00  0.00000000000E+00  0.99999998245E-14  0.12509000000E+03  0.12509000000E+03 0.  0.
        -13    1    3    3    0    0 -0.15416258409E+02  0.52888954502E+02  0.29576191863E+02  0.62527312598E+02  0.10566000000E+00 0. -1.
         23    2    1    0    0    0 -0.71696685616E+01  0.27104254238E+02  0.15933744150E+02  0.92842070644E+02  0.87061593908E+02 0.  0.
         13    1    3    3    0    0  0.82465898473E+01 -0.25784700263E+02 -0.13642447713E+02  0.30314758046E+02  0.10566000000E+00 0.  1.
         22    1    1    0    0    0  0.71696685616E+01 -0.27104254238E+02 -0.15933744150E+02  0.32247929356E+02  0.00000000000E+00 0. -1.
</event>
<event>
 5    1  0.1261138E-009  0.9118800E+02  0.7561462E-02  0.1125453E+00
         25   -1    0    0    0    0  0.00000000000E+00  0.00000000000E+00  0.99999998245E-14  0.12509000000E+03  0.12509000000E+03 0.  0.
        -13    1    3    3    0    0 -0.38462674563E+01 -0.48697165332E+02  0.54593524029E+01  0.49153060712E+02  0.10566000000E+00 0. -1.
         23    2    1    0    0    0 -0.10841354710E+02 -0.13239783226E+02 -0.23885552679E+02  0.95707242155E+02  0.91085288287E+02 0.  0.
         13    1    3    3    0    0 -0.69950872533E+01  0.35457382106E+02 -0.29344905082E+02  0.46554181443E+02  0.10566000000E+00 0.  1.
         22    1    1    0    0    0  0.10841354710E+02  0.13239783226E+02  0.23885552679E+02  0.29382757845E+02  0.00000000000E+00 0. -1.
</event>
<event>
 5    1  0.1261138E-009  0.9118800E+02  0.7561462E-02  0.1125453E+00
         25   -1    0    0    0    0  0.00000000000E+00  0.00000000000E+00  0.99999998245E-14  0.12509000000E+03  0.12509000000E+03 0.  0.
        -13    1    3    3    0    0 -0.15710698141E+02  0.29142657851E+02  0.72984374626E+01  0.33902785964E+02  0.10566000000E+00 0.  1.
         23    2    1    0    0    0 -0.34610286967E+00 -0.24579844379E+02 -0.17377809103E+02  0.94985568663E+02  0.90088742183E+02 0.  0.
         13    1    3    3    0    0  0.15364595271E+02 -0.53722502230E+02 -0.24676246566E+02  0.61082782699E+02  0.10566000000E+00 0. -1.
         22    1    1    0    0    0  0.34610286967E+00  0.24579844379E+02  0.17377809103E+02  0.30104431337E+02  0.00000000000E+00 0. -1.
</event>
<event>
 5    1  0.1261138E-009  0.9118800E+02  0.7561462E-02  0.1125453E+00
         25   -1    0    0    0    0  0.00000000000E+00  0.00000000000E+00  0.99999998245E-14  0.12509000000E+03  0.12509000000E+03 0.  0.
        -13    1    3    3    0    0  0.19721474489E+02 -0.26736594344E+02  0.11425498412E+02  0.35133107052E+02  0.10566000000E+00 0.  1.
         23    2    1    0    0    0 -0.26700670530E+01  0.21066516045E+02 -0.19455442417E+02  0.96289972292E+02  0.91882082955E+02 0.  0.
         13    1    3    3    0    0 -0.22391541542E+02  0.47803110389E+02 -0.30880940828E+02  0.61156865240E+02  0.10566000000E+00 0. -1.
         22    1    1    0    0    0  0.26700670530E+01 -0.21066516045E+02  0.19455442417E+02  0.28800027708E+02  0.00000000000E+00 0. -1.
</event>
<event>
 5    1  0.1261138E-009  0.9118800E+02  0.7561462E-02  0.1125453E+00
         25   -1    0    0    0    0  0.00000000000E+00  0.00000000000E+00  0.99999998245E-14  0.12509000000E+03  0.12509000000E+03 0.  0.
        -13    1    3    3    0    0 -0.51380237458E+02  0.66595246186E+01  0.24644927527E+02  0.57373004857E+02  0.10566000000E+00 0.  1.
         23    2    1    0    0    0 -0.26589348383E+02 -0.12670213705E+02  0.20775023072E+02  0.89046563060E+02  0.81425800865E+02 0.  0.
         13    1    3    3    0    0  0.24790889075E+02 -0.19329738323E+02 -0.38699044552E+01  0.31673558204E+02  0.10566000000E+00 0. -1.
         22    1    1    0    0    0  0.26589348383E+02  0.12670213705E+02 -0.20775023072E+02  0.36043436940E+02  0.00000000000E+00 0.  1.
</event>
<event>
 5    1  0.1261138E-009  0.9118800E+02  0.7561462E-02  0.1125453E+00
         25   -1    0    0    0    0  0.00000000000E+00  0.00000000000E+00  0.99999998245E-14  0.12509000000E+03  0.12509000000E+03 0.  0.
        -13    1    3    3    0    0 -0.84686520690E+01 -0.37414376158E+01 -0.40769648990E+02  0.41807796714E+02  0.10566000000E+00 0. -1.
         23    2    1    0    0    0  0.28044660491E+02 -0.95538388627E+01 -0.19785290500E+01  0.95396677581E+02  0.90657777919E+02 0.  0.
         13    1    3    3    0    0  0.36513312560E+02 -0.58124012469E+01  0.38791119940E+02  0.53588880867E+02  0.10566000000E+00 0.  1.
         22    1    1    0    0    0 -0.28044660491E+02  0.95538388627E+01  0.19785290500E+01  0.29693322419E+02  0.00000000000E+00 0.  1.
</event>
<event>
 5    1  0.1261138E-009  0.9118800E+02  0.7561462E-02  0.1125453E+00
         25   -1    0    0    0    0  0.00000000000E+00  0.00000000000E+00  0.99999998245E-14  0.12509000000E+03  0.12509000000E+03 0.  0.
        -13    1    3    3    0    0  0.37168964048E+02 -0.23999924660E+02  0.81680949389E+01  0.44991746033E+02  0.10566000000E+00 0.  1.
         23    2    1    0    0    0  0.30770035400E+02 -0.91965584128E+01 -0.26646130398E+02  0.83360058348E+02  0.72163088192E+02 0.  0.
         13    1    3    3    0    0 -0.63989286488E+01  0.14803366247E+02 -0.34814225337E+02  0.38368312315E+02  0.10566000000E+00 0. -1.
         22    1    1    0    0    0 -0.30770035400E+02  0.91965584128E+01  0.26646130398E+02  0.41729941652E+02  0.00000000000E+00 0. -1.
</event>
<event>
 5    1  0.1261138E-009  0.9118800E+02  0.7561462E-02  0.1125453E+00
         25   -1    0    0    0    0  0.00000000000E+00  0.00000000000E+00  0.99999998245E-14  0.12509000000E+03  0.12509000000E+03 0.  0.
        -13    1    3    3    0    0 -0.74901782407E+01 -0.10684088343E+02  0.36405163541E+02  0.38672982951E+02  0.10566000000E+00 0.  1.
         23    2    1    0    0    0  0.28026094319E+02  0.89976343065E+01 -0.33073982562E+01  0.95469765884E+02  0.90758569451E+02 0.  0.
         13    1    3    3    0    0  0.35516272560E+02  0.19681722649E+02 -0.39712561798E+02  0.56796782933E+02  0.10566000000E+00 0. -1.
         22    1    1    0    0    0 -0.28026094319E+02 -0.89976343065E+01  0.33073982562E+01  0.29620234116E+02  0.00000000000E+00 0. -1.
</event>
<event>
 5    1  0.1261138E-009  0.9118800E+02  0.7561462E-02  0.1125453E+00
         25   -1    0    0    0    0  0.00000000000E+00  0.00000000000E+00  0.99999998245E-14  0.12509000000E+03  0.12509000000E+03 0.  0.
        -13    1    3    3    0    0 -0.44377737319E+02 -0.26326899328E+02 -0.19149413720E+02  0.55038172278E+02  0.10566000000E+00 0.  1.
         23    2    1    0    0    0 -0.14978734842E+02 -0.24234895998E+02  0.84050019242E+01  0.95385846437E+02  0.90642831828E+02 0.  0.
         13    1    3    3    0    0  0.29399002477E+02  0.20920033298E+01  0.27554415644E+02  0.40347674160E+02  0.10566000000E+00 0. -1.
         22    1    1    0    0    0  0.14978734842E+02  0.24234895998E+02 -0.84050019242E+01  0.29704153563E+02  0.00000000000E+00 0.  1.
</event>
<event>
 5    1  0.1261138E-009  0.9118800E+02  0.7561462E-02  0.1125453E+00
         25   -1    0    0    0    0  0.00000000000E+00  0.00000000000E+00  0.99999998245E-14  0.12509000000E+03  0.12509000000E+03 0.  0.
        -13    1    3    3    0    0 -0.15034388141E+02  0.23683046681E+00 -0.54341790590E+02  0.56383776780E+02  0.10566000000E+00 0.  1.
         23    2    1    0    0    0 -0.23272093193E+02  0.65161704600E+01 -0.15985070463E+02  0.96114609118E+02  0.91643029245E+02 0.  0.
         13    1    3    3    0    0 -0.82377050525E+01  0.62793399932E+01  0.38356720128E+02  0.39730832338E+02  0.10566000000E+00 0. -1.
         22    1    1    0    0    0  0.23272093193E+02 -0.65161704600E+01  0.15985070463E+02  0.28975390882E+02  0.00000000000E+00 0.  1.
</event>
<event>
 5    1  0.1261138E-009  0.9118800E+02  0.7561462E-02  0.1125453E+00
         25   -1    0    0    0    0  0.00000000000E+00  0.00000000000E+00  0.99999998245E-14  0.12509000000E+03  0.12509000000E+03 0.  0.
        -13    1    3    3    0    0  0.29826980694E+02  0.26806314337E+01 -0.54549321308E+02  0.62229206820E+02  0.10566000000E+00 0. -1.
         23    2    1    0    0    0  0.11747470121E+02  0.17528401212E+01 -0.30708172878E+02  0.92164821424E+02  0.86083023436E+02 0.  0.
         13    1    3    3    0    0 -0.18079510573E+02 -0.92779131250E+00  0.23841148430E+02  0.29935614605E+02  0.10566000000E+00 0.  1.
         22    1    1    0    0    0 -0.11747470121E+02 -0.17528401212E+01  0.30708172878E+02  0.32925178576E+02  0.00000000000E+00 0. -1.
</event>
<event>
 5    1  0.1261138E-009  0.9118800E+02  0.7561462E-02  0.1125453E+00
         25   -1    0    0    0    0  0.00000000000E+00  0.00000000000E+00  0.99999998245E-14  0.12509000000E+03  0.12509000000E+03 0.  0.
        -13    1    3    3    0    0  0.31460096926E+01 -0.54273328947E+02  0.17116395695E+01  0.54391474387E+02  0.10566000000E+00 0.  1.
         23    2    1    0    0    0 -0.23618047086E+01 -0.19432659399E+02 -0.21028841264E+02  0.96359901884E+02  0.91977237148E+02 0.  0.
         13    1    3    3    0    0 -0.55078144013E+01  0.34840669548E+02 -0.22740480834E+02  0.41968427497E+02  0.10566000000E+00 0. -1.
         22    1    1    0    0    0  0.23618047086E+01  0.19432659399E+02  0.21028841264E+02  0.28730098116E+02  0.00000000000E+00 0.  1.
</event>
<event>
 5    1  0.1261138E-009  0.9118800E+02  0.7561462E-02  0.1125453E+00
         25   -1    0    0    0    0  0.00000000000E+00  0.00000000000E+00  0.99999998245E-14  0.12509000000E+03  0.12509000000E+03 0.  0.
        -13    1    3    3    0    0  0.23647582547E+02 -0.27703232599E+02  0.16096403597E+02  0.39821886313E+02  0.10566000000E+00 0.  1.
         23    2    1    0    0    0 -0.21187144016E+02  0.93816150863E+01  0.13944643732E+02  0.98046278696E+02  0.94242824152E+02 0.  0.
         13    1    3    3    0    0 -0.44834726563E+02  0.37084847685E+02 -0.21517598650E+01  0.58224392383E+02  0.10566000000E+00 0. -1.
         22    1    1    0    0    0  0.21187144016E+02 -0.93816150863E+01 -0.13944643732E+02  0.27043721304E+02  0.00000000000E+00 0. -1.
</event>
<event>
 5    1  0.1261138E-009  0.9118800E+02  0.7561462E-02  0.1125453E+00
         25   -1    0    0    0    0  0.00000000000E+00  0.00000000000E+00  0.99999998245E-14  0.12509000000E+03  0.12509000000E+03 0.  0.
        -13    1    3    3    0    0  0.10742444711E+02  0.27119470797E+02  0.51489898945E+02  0.59178430801E+02  0.10566000000E+00 0.  1.
         23    2    1    0    0    0  0.16906641912E+02  0.16061984761E+02  0.16133340168E+02  0.96733227260E+02  0.92483569870E+02 0.  0.
         13    1    3    3    0    0  0.61641972016E+01 -0.11057486036E+02 -0.35356558776E+02  0.37554796459E+02  0.10566000000E+00 0. -1.
         22    1    1    0    0    0 -0.16906641912E+02 -0.16061984761E+02 -0.16133340168E+02  0.28356772740E+02  0.00000000000E+00 0.  1.
</event>
<event>
 5    1  0.1261138E-009  0.9118800E+02  0.7561462E-02  0.1125453E+00
         25   -1    0    0    0    0  0.00000000000E+00  0.00000000000E+00  0.99999998245E-14  0.12509000000E+03  0.12509000000E+03 0.  0.
        -13    1    3    3    0    0 -0.59776433793E+02 -0.13909856023E+02 -0.61270035441E+01  0.61678662988E+02  0.10566000000E+00 0. -1.
         23    2    1    0    0    0 -0.28760466414E+02 -0.36374317108E+01 -0.96392109305E+01  0.94539881749E+02  0.89467756851E+02 0.  0.
         13    1    3    3    0    0  0.31015967379E+02  0.10272424312E+02 -0.35122073864E+01  0.32861218761E+02  0.10566000000E+00 0.  1.
         22    1    1    0    0    0  0.28760466414E+02  0.36374317108E+01  0.96392109305E+01  0.30550118251E+02  0.00000000000E+00 0. -1.
</event>
<event>
 5    1  0.1261138E-009  0.9118800E+02  0.7561462E-02  0.1125453E+00
         25   -1    0    0    0    0  0.00000000000E+00  0.00000000000E+00  0.99999998245E-14  0.12509000000E+03  0.12509000000E+03 0.  0.
        -13    1    3    3    0    0  0.47830995219E+02 -0.93145835844E+01 -0.35618075513E+02  0.60359125559E+02  0.10566000000E+00 0.  1.
         23    2    1    0    0    0  0.24830699483E+02  0.69681993347E+01 -0.15267278146E+02  0.95119861182E+02  0.90275017421E+02 0.  0.
         13    1    3    3    0    0 -0.23000295736E+02  0.16282782919E+02  0.20350797366E+02  0.34760735622E+02  0.10566000000E+00 0. -1.
         22    1    1    0    0    0 -0.24830699483E+02 -0.69681993347E+01  0.15267278146E+02  0.29970138818E+02  0.00000000000E+00 0.  1.
</event>
<event>
 5    1  0.1261138E-009  0.9118800E+02  0.7561462E-02  0.1125453E+00
         25   -1    0    0    0    0  0.00000000000E+00  0.00000000000E+00  0.99999998245E-14  0.12509000000E+03  0.12509000000E+03 0.  0.
        -13    1    3    3    0    0  0.50015170078E+01  0.35961074051E+02 -0.15409450839E+01  0.36340056344E+02  0.10566000000E+00 0.  1.
         23    2    1    0    0    0 -0.10782342610E+02 -0.16138153216E+02 -0.23124018381E+02  0.94900281097E+02  0.89970240773E+02 0.  0.
         13    1    3    3    0    0 -0.15783859618E+02 -0.52099227266E+02 -0.21583073297E+02  0.58560224753E+02  0.10566000000E+00 0. -1.
         22    1    1    0    0    0  0.10782342610E+02  0.16138153216E+02  0.23124018381E+02  0.30189718903E+02  0.00000000000E+00 0. -1.
</event>
<event>
 5    1  0.1261138E-009  0.9118800E+02  0.7561462E-02  0.1125453E+00
         25   -1    0    0    0    0  0.00000000000E+00  0.00000000000E+00  0.99999998245E-14  0.12509000000E+03  0.12509000000E+03 0.  0.
        -13    1    3    3    0    0  0.26097829537E+02  0.21029454982E+02  0.24118132443E+02  0.41292010849E+02  0.10566000000E+00 0.  1.
         23    2    1    0    0    0 -0.20288267120E+02  0.17912930822E+02 -0.68742078807E+01  0.97166146266E+02  0.93067278744E+02 0.  0.
         13    1    3    3    0    0 -0.46386096657E+02 -0.31165241603E+01 -0.30992340323E+02  0.55874135417E+02  0.10566000000E+00 0. -1.
         22    1    1    0    0    0  0.20288267120E+02 -0.17912930822E+02  0.68742078807E+01  0.27923853734E+02  0.00000000000E+00 0. -1.
</event>
<event>
 5    1  0.1261138E-009  0.9118800E+02  0.7561462E-02  0.1125453E+00
         25   -1    0    0    0    0  0.00000000000E+00  0.00000000000E+00  0.99999998245E-14  0.12509000000E+03  0.12509000000E+03 0.  0.
        -13    1    3    3    0    0 -0.32449865962E+02  0.11643140118E+02 -0.49843257022E+02  0.60604603351E+02  0.10566000000E+00 0.  1.
         23    2    1    0    0    0 -0.66929120804E+01  0.11539837747E+01 -0.28854837079E+02  0.95446647060E+02  0.90726699827E+02 0.  0.
         13    1    3    3    0    0  0.25756953882E+02 -0.10489156344E+02  0.20988419943E+02  0.34842043709E+02  0.10566000000E+00 0. -1.
         22    1    1    0    0    0  0.66929120804E+01 -0.11539837747E+01  0.28854837079E+02  0.29643352940E+02  0.00000000000E+00 0.  1.
</event>
<event>
 5    1  0.1261138E-009  0.9118800E+02  0.7561462E-02  0.1125453E+00
         25   -1    0    0    0    0  0.00000000000E+00  0.00000000000E+00  0.99999998245E-14  0.12509000000E+03  0.12509000000E+03 0.  0.
        -13    1    3    3    0    0 -0.20178038370E+02  0.34858969529E+02  0.29702523268E+02  0.50045499714E+02  0.10566000000E+00 0. -1.
         23    2    1    0    0    0  0.88023475561E+01 -0.53218873138E-01  0.28313166809E+02  0.95440049418E+02  0.90717602832E+02 0.  0.
         13    1    3    3    0    0  0.28980385926E+02 -0.34912188402E+02 -0.13893564588E+01  0.45394549705E+02  0.10566000000E+00 0.  1.
         22    1    1    0    0    0 -0.88023475561E+01  0.53218873138E-01 -0.28313166809E+02  0.29649950582E+02  0.00000000000E+00 0. -1.
</event>
<event>
 5    1  0.1261138E-009  0.9118800E+02  0.7561462E-02  0.1125453E+00
         25   -1    0    0    0    0  0.00000000000E+00  0.00000000000E+00  0.99999998245E-14  0.12509000000E+03  0.12509000000E+03 0.  0.
        -13    1    3    3    0    0  0.51413825179E+01  0.35553797620E+01  0.54535087686E+02  0.54892271700E+02  0.10566000000E+00 0.  1.
         23    2    1    0    0    0  0.20646156119E+02  0.11692704992E+02  0.18338530222E+02  0.95101922315E+02  0.90250156924E+02 0.  0.
         13    1    3    3    0    0  0.15504773601E+02  0.81373252303E+01 -0.36196557463E+02  0.40209650615E+02  0.10566000000E+00 0. -1.
         22    1    1    0    0    0 -0.20646156119E+02 -0.11692704992E+02 -0.18338530222E+02  0.29988077685E+02  0.00000000000E+00 0.  1.
</event>
<event>
 5    1  0.1261138E-009  0.9118800E+02  0.7561462E-02  0.1125453E+00
         25   -1    0    0    0    0  0.00000000000E+00  0.00000000000E+00  0.99999998245E-14  0.12509000000E+03  0.12509000000E+03 0.  0.
        -13    1    3    3    0    0 -0.10164714025E+02 -0.33823075207E+02  0.51394100198E+02  0.62359333919E+02  0.10566000000E+00 0.  1.
         23    2    1    0    0    0 -0.41811441313E+01 -0.12410466160E+02  0.24983276833E+02  0.96882452112E+02  0.92685186354E+02 0.  0.
         13    1    3    3    0    0  0.59835698937E+01  0.21412609047E+02 -0.26410823365E+02  0.34523118193E+02  0.10566000000E+00 0. -1.
         22    1    1    0    0    0  0.41811441313E+01  0.12410466160E+02 -0.24983276833E+02  0.28207547888E+02  0.00000000000E+00 0.  1.
</event>
<event>
 5    1  0.1261138E-009  0.9118800E+02  0.7561462E-02  0.1125453E+00
         25   -1    0    0    0    0  0.00000000000E+00  0.00000000000E+00  0.99999998245E-14  0.12509000000E+03  0.12509000000E+03 0.  0.
        -13    1    3    3    0    0 -0.23752018686E+02  0.34579094810E+02  0.16240084861E+02  0.44984705288E+02  0.10566000000E+00 0. -1.
         23    2    1    0    0    0  0.14962614242E+02  0.20524546322E+02 -0.14006218765E+02  0.96084638586E+02  0.91602111228E+02 0.  0.
         13    1    3    3    0    0  0.38714632928E+02 -0.14054548488E+02 -0.30246303626E+02  0.51099933298E+02  0.10566000000E+00 0.  1.
         22    1    1    0    0    0 -0.14962614242E+02 -0.20524546322E+02  0.14006218765E+02  0.29005361414E+02  0.00000000000E+00 0.  1.
</event>
<event>
 5    1  0.1261138E-009  0.9118800E+02  0.7561462E-02  0.1125453E+00
         25   -1    0    0    0    0  0.00000000000E+00  0.00000000000E+00  0.99999998245E-14  0.12509000000E+03  0.12509000000E+03 0.  0.
        -13    1    3    3    0    0  0.11400627220E+02 -0.13546646964E+02 -0.34169898173E+02  0.38484789855E+02  0.10566000000E+00 0.  1.
         23    2    1    0    0    0 -0.53278792916E+01 -0.18636177878E+00  0.24018620567E+02  0.10048684649E+03  0.97428389887E+02 0.  0.
         13    1    3    3    0    0 -0.16728506512E+02  0.13360285185E+02  0.58188518740E+02  0.62002056640E+02  0.10566000000E+00 0. -1.
         22    1    1    0    0    0  0.53278792916E+01  0.18636177878E+00 -0.24018620567E+02  0.24603153506E+02  0.00000000000E+00 0. -1.
</event>
<event>
 5    1  0.1261138E-009  0.9118800E+02  0.7561462E-02  0.1125453E+00
         25   -1    0    0    0    0  0.00000000000E+00  0.00000000000E+00  0.99999998245E-14  0.12509000000E+03  0.12509000000E+03 0.  0.
        -13    1    3    3    0    0  0.18544121579E+02 -0.88898204410E+01  0.56998503881E+02  0.60594999474E+02  0.10566000000E+00 0.  1.
         23    2    1    0    0    0 -0.16709568651E+01 -0.12417806013E+01  0.29240943752E+02  0.95775039529E+02  0.91178348796E+02 0.  0.
         13    1    3    3    0    0 -0.20215078444E+02  0.76480398397E+01 -0.27757560128E+02  0.35180040054E+02  0.10566000000E+00 0. -1.
         22    1    1    0    0    0  0.16709568651E+01  0.12417806013E+01 -0.29240943752E+02  0.29314960471E+02  0.00000000000E+00 0.  1.
</event>
<event>
 5    1  0.1261138E-009  0.9118800E+02  0.7561462E-02  0.1125453E+00
         25   -1    0    0    0    0  0.00000000000E+00  0.00000000000E+00  0.99999998245E-14  0.12509000000E+03  0.12509000000E+03 0.  0.
        -13    1    3    3    0    0  0.19666359595E+02 -0.54263622515E+01 -0.57658010730E+02  0.61161004508E+02  0.10566000000E+00 0.  1.
         23    2    1    0    0    0  0.16648446922E+02  0.24766139091E+01 -0.24610798173E+02  0.95273967600E+02  0.90488303742E+02 0.  0.
         13    1    3    3    0    0 -0.30179126725E+01  0.79029761606E+01  0.33047212557E+02  0.34112963092E+02  0.10566000000E+00 0. -1.
         22    1    1    0    0    0 -0.16648446922E+02 -0.24766139091E+01  0.24610798173E+02  0.29816032400E+02  0.00000000000E+00 0.  1.
</event>
<event>
 5    1  0.1261138E-009  0.9118800E+02  0.7561462E-02  0.1125453E+00
         25   -1    0    0    0    0  0.00000000000E+00  0.00000000000E+00  0.99999998245E-14  0.12509000000E+03  0.12509000000E+03 0.  0.
        -13    1    3    3    0    0 -0.48405499198E+02  0.28765938405E+02 -0.13426983846E+02  0.57886670522E+02  0.10566000000E+00 0. -1.
         23    2    1    0    0    0 -0.23409041368E+02  0.48422580337E+01 -0.20960258484E+02  0.93297499055E+02  0.87713512150E+02 0.  0.
         13    1    3    3    0    0  0.24996457830E+02 -0.23923680372E+02 -0.75332746380E+01  0.35410828533E+02  0.10566000000E+00 0.  1.
         22    1    1    0    0    0  0.23409041368E+02 -0.48422580337E+01  0.20960258484E+02  0.31792500945E+02  0.00000000000E+00 0. -1.
</event>
<event>
 5    1  0.1261138E-009  0.9118800E+02  0.7561462E-02  0.1125453E+00
         25   -1    0    0    0    0  0.00000000000E+00  0.00000000000E+00  0.99999998245E-14  0.12509000000E+03  0.12509000000E+03 0.  0.
        -13    1    3    3    0    0  0.31699392347E+02 -0.35812476429E+02  0.30022225278E+02  0.56468842008E+02  0.10566000000E+00 0.  1.
         23    2    1    0    0    0  0.28368022637E+02 -0.38924017788E+01  0.81086500753E+01  0.95330199833E+02  0.90566005180E+02 0.  0.
         13    1    3    3    0    0 -0.33313697098E+01  0.31920074650E+02 -0.21913575203E+02  0.38861357825E+02  0.10566000000E+00 0. -1.
         22    1    1    0    0    0 -0.28368022637E+02  0.38924017788E+01 -0.81086500753E+01  0.29759800167E+02  0.00000000000E+00 0. -1.
</event>
<event>
 5    1  0.1261138E-009  0.9118800E+02  0.7561462E-02  0.1125453E+00
         25   -1    0    0    0    0  0.00000000000E+00  0.00000000000E+00  0.99999998245E-14  0.12509000000E+03  0.12509000000E+03 0.  0.
        -13    1    3    3    0    0 -0.72011793985E+01 -0.37978833890E+02  0.26172178038E+02  0.46682361505E+02  0.10566000000E+00 0.  1.
         23    2    1    0    0    0 -0.34339850768E+01 -0.14416576675E+02 -0.20906920280E+02  0.99463270749E+02  0.96105218255E+02 0.  0.
         13    1    3    3    0    0  0.37671943216E+01  0.23562257215E+02 -0.47079098318E+02  0.52780909244E+02  0.10566000000E+00 0. -1.
         22    1    1    0    0    0  0.34339850768E+01  0.14416576675E+02  0.20906920280E+02  0.25626729251E+02  0.00000000000E+00 0. -1.
</event>
<event>
 5    1  0.1261138E-009  0.9118800E+02  0.7561462E-02  0.1125453E+00
         25   -1    0    0    0    0  0.00000000000E+00  0.00000000000E+00  0.99999998245E-14  0.12509000000E+03  0.12509000000E+03 0.  0.
        -13    1    3    3    0    0 -0.34448955282E+02 -0.12757272760E+02 -0.15919325143E+02  0.40036415990E+02  0.10566000000E+00 0. -1.
         23    2    1    0    0    0  0.61761780480E+01 -0.29150279079E+02  0.13053847950E+02  0.92558678293E+02  0.86653459454E+02 0.  0.
         13    1    3    3    0    0  0.40625133330E+02 -0.16393006320E+02  0.28973173093E+02  0.52522262303E+02  0.10566000000E+00 0.  1.
         22    1    1    0    0    0 -0.61761780480E+01  0.29150279079E+02 -0.13053847950E+02  0.32531321707E+02  0.00000000000E+00 0.  1.
</event>
<event>
 5    1  0.1261138E-009  0.9118800E+02  0.7561462E-02  0.1125453E+00
         25   -1    0    0    0    0  0.00000000000E+00  0.00000000000E+00  0.99999998245E-14  0.12509000000E+03  0.12509000000E+03 0.  0.
        -13    1    3    3    0    0  0.20157394967E+02  0.38572561387E+02  0.25465351463E+02  0.50424779156E+02  0.10566000000E+00 0. -1.
         23    2    1    0    0    0  0.29515434506E+02  0.18544770155E+01  0.10574605523E+01  0.95497464084E+02  0.90796737081E+02 0.  0.
         13    1    3    3    0    0  0.93580395391E+01 -0.36718084371E+02 -0.24407890910E+02  0.45072684928E+02  0.10566000000E+00 0.  1.
         22    1    1    0    0    0 -0.29515434506E+02 -0.18544770155E+01 -0.10574605523E+01  0.29592535916E+02  0.00000000000E+00 0. -1.
</event>
<event>
 5    1  0.1261138E-009  0.9118800E+02  0.7561462E-02  0.1125453E+00
         25   -1    0    0    0    0  0.00000000000E+00  0.00000000000E+00  0.99999998245E-14  0.12509000000E+03  0.12509000000E+03 0.  0.
        -13    1    3    3    0    0 -0.21978554506E+02 -0.23554174656E+02  0.17026939363E+02  0.36438768228E+02  0.10566000000E+00 0.  1.
         23    2    1    0    0    0  0.82010004077E+01  0.26801455426E+02  0.87595250513E+01  0.95724991916E+02  0.91109661275E+02 0.  0.
         13    1    3    3    0    0  0.30179554914E+02  0.50355630082E+02 -0.82674143112E+01  0.59286223688E+02  0.10566000000E+00 0. -1.
         22    1    1    0    0    0 -0.82010004077E+01 -0.26801455426E+02 -0.87595250513E+01  0.29365008084E+02  0.00000000000E+00 0. -1.
</event>
<event>
 5    1  0.1261138E-009  0.9118800E+02  0.7561462E-02  0.1125453E+00
         25   -1    0    0    0    0  0.00000000000E+00  0.00000000000E+00  0.99999998245E-14  0.12509000000E+03  0.12509000000E+03 0.  0.
        -13    1    3    3    0    0  0.23565144802E+02 -0.25775785895E+02  0.98402575917E+01  0.36284280640E+02  0.10566000000E+00 0.  1.
         23    2    1    0    0    0 -0.28739777283E+02 -0.16770949502E+02  0.12791675613E+02  0.89440785276E+02  0.82029187247E+02 0.  0.
         13    1    3    3    0    0 -0.52304922085E+02  0.90048363926E+01  0.29514180209E+01  0.53156504636E+02  0.10566000000E+00 0. -1.
         22    1    1    0    0    0  0.28739777283E+02  0.16770949502E+02 -0.12791675613E+02  0.35649214724E+02  0.00000000000E+00 0. -1.
</event>
<event>
 5    1  0.1261138E-009  0.9118800E+02  0.7561462E-02  0.1125453E+00
         25   -1    0    0    0    0  0.00000000000E+00  0.00000000000E+00  0.99999998245E-14  0.12509000000E+03  0.12509000000E+03 0.  0.
        -13    1    3    3    0    0 -0.10014378116E+01  0.30266796721E+02 -0.35723273321E+02  0.46832096710E+02  0.10566000000E+00 0.  1.
         23    2    1    0    0    0  0.45851382209E+01  0.25610967104E+02  0.12937041164E+02  0.96032949864E+02  0.91531498934E+02 0.  0.
         13    1    3    3    0    0  0.55865760325E+01 -0.46558296169E+01  0.48660314486E+02  0.49200853154E+02  0.10566000000E+00 0. -1.
         22    1    1    0    0    0 -0.45851382209E+01 -0.25610967104E+02 -0.12937041164E+02  0.29057050136E+02  0.00000000000E+00 0.  1.
</event>
<event>
 5    1  0.1261138E-009  0.9118800E+02  0.7561462E-02  0.1125453E+00
         25   -1    0    0    0    0  0.00000000000E+00  0.00000000000E+00  0.99999998245E-14  0.12509000000E+03  0.12509000000E+03 0.  0.
        -13    1    3    3    0    0 -0.10478718022E+02  0.26471853565E+02 -0.24865456687E+02  0.37800326227E+02  0.10566000000E+00 0. -1.
         23    2    1    0    0    0  0.22514220812E+02 -0.16465151189E+02 -0.46392231357E+00  0.97193646002E+02  0.93104233292E+02 0.  0.
         13    1    3    3    0    0  0.32992938834E+02 -0.42937004754E+02  0.24401534373E+02  0.59393319776E+02  0.10566000000E+00 0.  1.
         22    1    1    0    0    0 -0.22514220812E+02  0.16465151189E+02  0.46392231357E+00  0.27896353998E+02  0.00000000000E+00 0.  1.
</event>
<event>
 5    1  0.1261138E-009  0.9118800E+02  0.7561462E-02  0.1125453E+00
         25   -1    0    0    0    0  0.00000000000E+00  0.00000000000E+00  0.99999998245E-14  0.12509000000E+03  0.12509000000E+03 0.  0.
        -13    1    3    3    0    0 -0.27538294118E+02 -0.10408243443E+01 -0.21445188245E+02  0.34919166959E+02  0.10566000000E+00 0. -1.
         23    2    1    0    0    0  0.78769539390E+01 -0.87984389995E+01  0.27111774795E+02  0.95517931004E+02  0.90824929830E+02 0.  0.
         13    1    3    3    0    0  0.35415248057E+02 -0.77576146551E+01  0.48556963040E+02  0.60598764045E+02  0.10566000000E+00 0.  1.
         22    1    1    0    0    0 -0.78769539390E+01  0.87984389995E+01 -0.27111774795E+02  0.29572068996E+02  0.00000000000E+00 0.  1.
</event>
<event>
 5    1  0.1261138E-009  0.9118800E+02  0.7561462E-02  0.1125453E+00
         25   -1    0    0    0    0  0.00000000000E+00  0.00000000000E+00  0.99999998245E-14  0.12509000000E+03  0.12509000000E+03 0.  0.
        -13    1    3    3    0    0 -0.26478374569E+02 -0.66997638653E+01 -0.27749674575E+02  0.38936445122E+02  0.10566000000E+00 0.  1.
         23    2    1    0    0    0  0.26324290981E+02  0.59671629533E+01 -0.12539666427E+02  0.95327295763E+02  0.90561993983E+02 0.  0.
         13    1    3    3    0    0  0.52802665550E+02  0.12666926819E+02  0.15210008149E+02  0.56390850642E+02  0.10566000000E+00 0. -1.
         22    1    1    0    0    0 -0.26324290981E+02 -0.59671629533E+01  0.12539666427E+02  0.29762704237E+02  0.00000000000E+00 0. -1.
</event>
<event>
 5    1  0.1261138E-009  0.9118800E+02  0.7561462E-02  0.1125453E+00
         25   -1    0    0    0    0  0.00000000000E+00  0.00000000000E+00  0.99999998245E-14  0.12509000000E+03  0.12509000000E+03 0.  0.
        -13    1    3    3    0    0  0.17493223784E+02 -0.26585454298E+02 -0.11834893109E+02  0.33954014748E+02  0.10566000000E+00 0.  1.
         23    2    1    0    0    0 -0.31242559055E+01  0.29575564960E+02  0.17335842799E+01  0.95299391880E+02  0.90523443155E+02 0.  0.
         13    1    3    3    0    0 -0.20617479689E+02  0.56161019258E+02  0.13568477389E+02  0.61345377132E+02  0.10566000000E+00 0. -1.
         22    1    1    0    0    0  0.31242559055E+01 -0.29575564960E+02 -0.17335842799E+01  0.29790608120E+02  0.00000000000E+00 0. -1.
</event>
<event>
 5    1  0.1261138E-009  0.9118800E+02  0.7561462E-02  0.1125453E+00
         25   -1    0    0    0    0  0.00000000000E+00  0.00000000000E+00  0.99999998245E-14  0.12509000000E+03  0.12509000000E+03 0.  0.
        -13    1    3    3    0    0  0.22796659918E+02  0.17985800663E+02  0.17822615631E+02  0.34071007042E+02  0.10566000000E+00 0.  1.
         23    2    1    0    0    0 -0.29593262023E+02  0.88007032270E+01 -0.79987898881E+01  0.93196518312E+02  0.87569383071E+02 0.  0.
         13    1    3    3    0    0 -0.52389921942E+02 -0.91850974361E+01 -0.25821405519E+02  0.59125511270E+02  0.10566000000E+00 0. -1.
         22    1    1    0    0    0  0.29593262023E+02 -0.88007032270E+01  0.79987898881E+01  0.31893481688E+02  0.00000000000E+00 0. -1.
</event>
<event>
 5    1  0.1261138E-009  0.9118800E+02  0.7561462E-02  0.1125453E+00
         25   -1    0    0    0    0  0.00000000000E+00  0.00000000000E+00  0.99999998245E-14  0.12509000000E+03  0.12509000000E+03 0.  0.
        -13    1    3    3    0    0  0.56076314144E+02  0.85299195600E+01  0.19990310446E+02  0.60140969492E+02  0.10566000000E+00 0.  1.
         23    2    1    0    0    0  0.23098881253E+02 -0.40998158969E+01  0.18017988262E+02  0.95509352500E+02  0.90813114187E+02 0.  0.
         13    1    3    3    0    0 -0.32977432891E+02 -0.12629735457E+02 -0.19723221843E+01  0.35368383008E+02  0.10566000000E+00 0. -1.
         22    1    1    0    0    0 -0.23098881253E+02  0.40998158969E+01 -0.18017988262E+02  0.29580647500E+02  0.00000000000E+00 0.  1.
</event>
<event>
 5    1  0.1261138E-009  0.9118800E+02  0.7561462E-02  0.1125453E+00
         25   -1    0    0    0    0  0.00000000000E+00  0.00000000000E+00  0.99999998245E-14  0.12509000000E+03  0.12509000000E+03 0.  0.
        -13    1    3    3    0    0 -0.45405389014E+02  0.17260772083E+02  0.33763651605E+02  0.59157239102E+02  0.10566000000E+00 0. -1.
         23    2    1    0    0    0 -0.22988590103E+02 -0.65662344204E+01  0.14838037879E+02  0.96951803940E+02  0.92778737919E+02 0.  0.
         13    1    3    3    0    0  0.22416798912E+02 -0.23827006504E+02 -0.18925613726E+02  0.37794564838E+02  0.10566000000E+00 0.  1.
         22    1    1    0    0    0  0.22988590103E+02  0.65662344204E+01 -0.14838037879E+02  0.28138196060E+02  0.00000000000E+00 0. -1.
</event>
<event>
 5    1  0.1261138E-009  0.9118800E+02  0.7561462E-02  0.1125453E+00
         25   -1    0    0    0    0  0.00000000000E+00  0.00000000000E+00  0.99999998245E-14  0.12509000000E+03  0.12509000000E+03 0.  0.
        -13    1    3    3    0    0 -0.17056689060E+02  0.18442872606E+02 -0.35540627645E+02  0.43522609861E+02  0.10566000000E+00 0.  1.
         23    2    1    0    0    0 -0.12463771548E+02 -0.25773516184E+02 -0.10163362542E+02  0.94710505668E+02  0.89705998729E+02 0.  0.
         13    1    3    3    0    0  0.45929175120E+01 -0.44216388791E+02  0.25377265103E+02  0.51187895807E+02  0.10566000000E+00 0. -1.
         22    1    1    0    0    0  0.12463771548E+02  0.25773516184E+02  0.10163362542E+02  0.30379494332E+02  0.00000000000E+00 0. -1.
</event>
<event>
 5    1  0.1261138E-009  0.9118800E+02  0.7561462E-02  0.1125453E+00
         25   -1    0    0    0    0  0.00000000000E+00  0.00000000000E+00  0.99999998245E-14  0.12509000000E+03  0.12509000000E+03 0.  0.
        -13    1    3    3    0    0  0.26059478635E+02 -0.33302631981E+02 -0.22171649903E+02  0.47746779442E+02  0.10566000000E+00 0.  1.
         23    2    1    0    0    0  0.23884770401E+02  0.27283264596E+01  0.12669886237E+02  0.97915525955E+02  0.94069113865E+02 0.  0.
         13    1    3    3    0    0 -0.21747082338E+01  0.36030958441E+02  0.34841536140E+02  0.50168746513E+02  0.10566000000E+00 0. -1.
         22    1    1    0    0    0 -0.23884770401E+02 -0.27283264596E+01 -0.12669886237E+02  0.27174474045E+02  0.00000000000E+00 0. -1.
</event>
<event>
 5    1  0.1261138E-009  0.9118800E+02  0.7561462E-02  0.1125453E+00
         25   -1    0    0    0    0  0.00000000000E+00  0.00000000000E+00  0.99999998245E-14  0.12509000000E+03  0.12509000000E+03 0.  0.
        -13    1    3    3    0    0 -0.20332294209E+02  0.26449119827E+02  0.22744370995E+00  0.33361969698E+02  0.10566000000E+00 0. -1.
         23    2    1    0    0    0  0.15659357872E+02 -0.21141744830E+02  0.14963481998E+02  0.94822944363E+02  0.89862651423E+02 0.  0.
         13    1    3    3    0    0  0.35991652081E+02 -0.47590864658E+02  0.14736038288E+02  0.61460974665E+02  0.10566000000E+00 0.  1.
         22    1    1    0    0    0 -0.15659357872E+02  0.21141744830E+02 -0.14963481998E+02  0.30267055637E+02  0.00000000000E+00 0.  1.
</event>
<event>
 5    1  0.1261138E-009  0.9118800E+02  0.7561462E-02  0.1125453E+00
         25   -1    0    0    0    0  0.00000000000E+00  0.00000000000E+00  0.99999998245E-14  0.12509000000E+03  0.12509000000E+03 0.  0.
        -13    1    3    3    0    0 -0.29792184915E+01 -0.26511198104E+02 -0.27401975674E+02  0.38243938116E+02  0.10566000000E+00 0. -1.
         23    2    1    0    0    0 -0.24103867766E+02  0.10192408763E+02  0.12192191232E+02  0.96219060204E+02  0.91785491129E+02 0.  0.
         13    1    3    3    0    0 -0.21124649275E+02  0.36703606867E+02  0.39594166906E+02  0.57975122088E+02  0.10566000000E+00 0.  1.
         22    1    1    0    0    0  0.24103867766E+02 -0.10192408763E+02 -0.12192191232E+02  0.28870939796E+02  0.00000000000E+00 0.  1.
</event>
<event>
 5    1  0.1261138E-009  0.9118800E+02  0.7561462E-02  0.1125453E+00
         25   -1    0    0    0    0  0.00000000000E+00  0.00000000000E+00  0.99999998245E-14  0.12509000000E+03  0.12509000000E+03 0.  0.
        -13    1    3    3    0    0 -0.15305270053E+02 -0.57208139601E+02  0.15119554143E+02  0.61119838101E+02  0.10566000000E+00 0.  1.
         23    2    1    0    0    0 -0.13719647100E+01 -0.28931730980E+02 -0.10208669640E+00  0.96125577576E+02  0.91657999640E+02 0.  0.
         13    1    3    3    0    0  0.13933305343E+02  0.28276408622E+02 -0.15221640839E+02  0.35005739475E+02  0.10566000000E+00 0. -1.
         22    1    1    0    0    0  0.13719647100E+01  0.28931730980E+02  0.10208669640E+00  0.28964422424E+02  0.00000000000E+00 0.  1.
</event>
<event>
 5    1  0.1261138E-009  0.9118800E+02  0.7561462E-02  0.1125453E+00
         25   -1    0    0    0    0  0.00000000000E+00  0.00000000000E+00  0.99999998245E-14  0.12509000000E+03  0.12509000000E+03 0.  0.
        -13    1    3    3    0    0 -0.17863766318E+02 -0.31310264705E+02 -0.41354303756E+02  0.54860153355E+02  0.10566000000E+00 0. -1.
         23    2    1    0    0    0  0.20067676031E+01 -0.31500171244E+02 -0.10002790729E+02  0.91978918365E+02  0.85812456535E+02 0.  0.
         13    1    3    3    0    0  0.19870533921E+02 -0.18990653915E+00  0.31351513027E+02  0.37118765010E+02  0.10566000000E+00 0.  1.
         22    1    1    0    0    0 -0.20067676031E+01  0.31500171244E+02  0.10002790729E+02  0.33111081635E+02  0.00000000000E+00 0. -1.
</event>
<event>
 5    1  0.1261138E-009  0.9118800E+02  0.7561462E-02  0.1125453E+00
         25   -1    0    0    0    0  0.00000000000E+00  0.00000000000E+00  0.99999998245E-14  0.12509000000E+03  0.12509000000E+03 0.  0.
        -13    1    3    3    0    0  0.21209843969E+02  0.26633098402E+02 -0.17800771974E+01  0.34093390129E+02  0.10566000000E+00 0.  1.
         23    2    1    0    0    0  0.36085845623E+01 -0.20927145963E+02 -0.27006650047E+02  0.90734120337E+02  0.83978295564E+02 0.  0.
         13    1    3    3    0    0 -0.17601259406E+02 -0.47560244364E+02 -0.25226572849E+02  0.56640730207E+02  0.10566000000E+00 0. -1.
         22    1    1    0    0    0 -0.36085845623E+01  0.20927145963E+02  0.27006650047E+02  0.34355879663E+02  0.00000000000E+00 0. -1.
</event>
<event>
 5    1  0.1261138E-009  0.9118800E+02  0.7561462E-02  0.1125453E+00
         25   -1    0    0    0    0  0.00000000000E+00  0.00000000000E+00  0.99999998245E-14  0.12509000000E+03  0.12509000000E+03 0.  0.
        -13    1    3    3    0    0 -0.25035112255E+02 -0.25403563678E+02  0.30353489591E+02  0.46834211721E+02  0.10566000000E+00 0.  1.
         23    2    1    0    0    0 -0.27794664402E+02  0.13820327620E+02  0.49257559616E+01  0.93660588670E+02  0.88229802071E+02 0.  0.
         13    1    3    3    0    0 -0.27595521466E+01  0.39223891298E+02 -0.25427733629E+02  0.46826376949E+02  0.10566000000E+00 0. -1.
         22    1    1    0    0    0  0.27794664402E+02 -0.13820327620E+02 -0.49257559616E+01  0.31429411330E+02  0.00000000000E+00 0.  1.
</event>
<event>
 5    1  0.1261138E-009  0.9118800E+02  0.7561462E-02  0.1125453E+00
         25   -1    0    0    0    0  0.00000000000E+00  0.00000000000E+00  0.99999998245E-14  0.12509000000E+03  0.12509000000E+03 0.  0.
        -13    1    3    3    0    0  0.29859589215E+02  0.52953027053E+02 -0.98334391579E+01  0.61581862849E+02  0.10566000000E+00 0. -1.
         23    2    1    0    0    0  0.73705285936E+01  0.27761164593E+02 -0.17029462642E+01  0.96316627286E+02  0.91918364403E+02 0.  0.
         13    1    3    3    0    0 -0.22489060621E+02 -0.25191862460E+02  0.81304928937E+01  0.34734764438E+02  0.10566000000E+00 0.  1.
         22    1    1    0    0    0 -0.73705285936E+01 -0.27761164593E+02  0.17029462642E+01  0.28773372714E+02  0.00000000000E+00 0. -1.
</event>
<event>
 5    1  0.1261138E-009  0.9118800E+02  0.7561462E-02  0.1125453E+00
         25   -1    0    0    0    0  0.00000000000E+00  0.00000000000E+00  0.99999998245E-14  0.12509000000E+03  0.12509000000E+03 0.  0.
        -13    1    3    3    0    0  0.30552395069E+02 -0.11058750639E+02 -0.12002347184E+02  0.34638307004E+02  0.10566000000E+00 0. -1.
         23    2    1    0    0    0 -0.25572336722E+02  0.51359969620E+01 -0.18058008241E+02  0.93365962869E+02  0.87811095487E+02 0.  0.
         13    1    3    3    0    0 -0.56124731791E+02  0.16194747601E+02 -0.60556610573E+01  0.58727655865E+02  0.10566000000E+00 0.  1.
         22    1    1    0    0    0  0.25572336722E+02 -0.51359969620E+01  0.18058008241E+02  0.31724037131E+02  0.00000000000E+00 0.  1.
</event>
<event>
 5    1  0.1261138E-009  0.9118800E+02  0.7561462E-02  0.1125453E+00
         25   -1    0    0    0    0  0.00000000000E+00  0.00000000000E+00  0.99999998245E-14  0.12509000000E+03  0.12509000000E+03 0.  0.
        -13    1    3    3    0    0 -0.17980310398E+02  0.39377270636E+02  0.50563635355E+01  0.43582553631E+02  0.10566000000E+00 0.  1.
         23    2    1    0    0    0  0.25318705098E+02  0.12481983217E+02 -0.70960793529E+01  0.95983453056E+02  0.91463829930E+02 0.  0.
         13    1    3    3    0    0  0.43299015496E+02 -0.26895287419E+02 -0.12152442888E+02  0.52400899424E+02  0.10566000000E+00 0. -1.
         22    1    1    0    0    0 -0.25318705098E+02 -0.12481983217E+02  0.70960793529E+01  0.29106546944E+02  0.00000000000E+00 0. -1.
</event>
<event>
 5    1  0.1261138E-009  0.9118800E+02  0.7561462E-02  0.1125453E+00
         25   -1    0    0    0    0  0.00000000000E+00  0.00000000000E+00  0.99999998245E-14  0.12509000000E+03  0.12509000000E+03 0.  0.
        -13    1    3    3    0    0  0.33231691118E+02  0.83025105562E+01  0.74237409572E+00  0.34261337677E+02  0.10566000000E+00 0.  1.
         23    2    1    0    0    0 -0.22472159583E+02 -0.98631162320E+01 -0.16714011032E+02  0.95397624162E+02  0.90659084006E+02 0.  0.
         13    1    3    3    0    0 -0.55703850700E+02 -0.18165626788E+02 -0.17456385128E+02  0.61136286485E+02  0.10566000000E+00 0. -1.
         22    1    1    0    0    0  0.22472159583E+02  0.98631162320E+01  0.16714011032E+02  0.29692375838E+02  0.00000000000E+00 0. -1.
</event>
<event>
 5    1  0.1261138E-009  0.9118800E+02  0.7561462E-02  0.1125453E+00
         25   -1    0    0    0    0  0.00000000000E+00  0.00000000000E+00  0.99999998245E-14  0.12509000000E+03  0.12509000000E+03 0.  0.
        -13    1    3    3    0    0  0.42203747944E+02 -0.14110816036E+00  0.40448831756E+02  0.58457637709E+02  0.10566000000E+00 0. -1.
         23    2    1    0    0    0  0.28422434500E+02  0.10024657696E+02  0.10101267160E+02  0.93303774319E+02  0.87722460973E+02 0.  0.
         13    1    3    3    0    0 -0.13781313445E+02  0.10165765856E+02 -0.30347564596E+02  0.34846136610E+02  0.10566000000E+00 0.  1.
         22    1    1    0    0    0 -0.28422434500E+02 -0.10024657696E+02 -0.10101267160E+02  0.31786225681E+02  0.00000000000E+00 0. -1.
</event>
<event>
 5    1  0.1261138E-009  0.9118800E+02  0.7561462E-02  0.1125453E+00
         25   -1    0    0    0    0  0.00000000000E+00  0.00000000000E+00  0.99999998245E-14  0.12509000000E+03  0.12509000000E+03 0.  0.
        -13    1    3    3    0    0 -0.13826743456E+02  0.16043139892E+01  0.59377206735E+02  0.60987019125E+02  0.10566000000E+00 0.  1.
         23    2    1    0    0    0  0.27084287500E+01  0.20429825060E+01  0.31540773218E+02  0.93367299311E+02  0.87812999275E+02 0.  0.
         13    1    3    3    0    0  0.16535172206E+02  0.43866851676E+00 -0.27836433517E+02  0.32380280187E+02  0.10566000000E+00 0. -1.
         22    1    1    0    0    0 -0.27084287500E+01 -0.20429825060E+01 -0.31540773218E+02  0.31722700689E+02  0.00000000000E+00 0.  1.
</event>
<event>
 5    1  0.1261138E-009  0.9118800E+02  0.7561462E-02  0.1125453E+00
         25   -1    0    0    0    0  0.00000000000E+00  0.00000000000E+00  0.99999998245E-14  0.12509000000E+03  0.12509000000E+03 0.  0.
        -13    1    3    3    0    0  0.23166257455E+02  0.57469320826E+01  0.34662957978E+02  0.42086037265E+02  0.10566000000E+00 0. -1.
         23    2    1    0    0    0 -0.86373868057E+01  0.27455133665E+02 -0.32514244182E+01  0.96125183823E+02  0.91657462265E+02 0.  0.
         13    1    3    3    0    0 -0.31803644260E+02  0.21708201583E+02 -0.37914382397E+02  0.54039146558E+02  0.10566000000E+00 0.  1.
         22    1    1    0    0    0  0.86373868057E+01 -0.27455133665E+02  0.32514244182E+01  0.28964816177E+02  0.00000000000E+00 0. -1.
</event>
<event>
 5    1  0.1261138E-009  0.9118800E+02  0.7561462E-02  0.1125453E+00
         25   -1    0    0    0    0  0.00000000000E+00  0.00000000000E+00  0.99999998245E-14  0.12509000000E+03  0.12509000000E+03 0.  0.
        -13    1    3    3    0    0 -0.25248945332E+02  0.48262806239E+02  0.13769901213E+02  0.56182106136E+02  0.10566000000E+00 0.  1.
         23    2    1    0    0    0 -0.22739949937E+02  0.17147418912E+02 -0.94445577941E+01  0.95084351025E+02  0.90225799190E+02 0.  0.
         13    1    3    3    0    0  0.25089953946E+01 -0.31115387327E+02 -0.23214459007E+02  0.38902244889E+02  0.10566000000E+00 0. -1.
         22    1    1    0    0    0  0.22739949937E+02 -0.17147418912E+02  0.94445577941E+01  0.30005648975E+02  0.00000000000E+00 0.  1.
</event>
<event>
 5    1  0.1261138E-009  0.9118800E+02  0.7561462E-02  0.1125453E+00
         25   -1    0    0    0    0  0.00000000000E+00  0.00000000000E+00  0.99999998245E-14  0.12509000000E+03  0.12509000000E+03 0.  0.
        -13    1    3    3    0    0 -0.21559928596E+02  0.41796745871E+00  0.45813691444E+02  0.50635073868E+02  0.10566000000E+00 0.  1.
         23    2    1    0    0    0 -0.28675369507E+02  0.33971171447E+01  0.90673197370E+00  0.96199873934E+02  0.91759339366E+02 0.  0.
         13    1    3    3    0    0 -0.71154409111E+01  0.29791496860E+01 -0.44906959470E+02  0.45564800066E+02  0.10566000000E+00 0. -1.
         22    1    1    0    0    0  0.28675369507E+02 -0.33971171447E+01 -0.90673197370E+00  0.28890126066E+02  0.00000000000E+00 0.  1.
</event>
<event>
 5    1  0.1261138E-009  0.9118800E+02  0.7561462E-02  0.1125453E+00
         25   -1    0    0    0    0  0.00000000000E+00  0.00000000000E+00  0.99999998245E-14  0.12509000000E+03  0.12509000000E+03 0.  0.
        -13    1    3    3    0    0 -0.54976946998E+02 -0.28350608722E+02 -0.48153887435E+01  0.62043701122E+02  0.10566000000E+00 0. -1.
         23    2    1    0    0    0 -0.23979259672E+02 -0.15405366952E+02 -0.71125639876E+01  0.95714520569E+02  0.91095283390E+02 0.  0.
         13    1    3    3    0    0  0.30997687326E+02  0.12945241770E+02 -0.22971752441E+01  0.33670819446E+02  0.10566000000E+00 0.  1.
         22    1    1    0    0    0  0.23979259672E+02  0.15405366952E+02  0.71125639876E+01  0.29375479431E+02  0.00000000000E+00 0. -1.
</event>
<event>
 5    1  0.1261138E-009  0.9118800E+02  0.7561462E-02  0.1125453E+00
         25   -1    0    0    0    0  0.00000000000E+00  0.00000000000E+00  0.99999998245E-14  0.12509000000E+03  0.12509000000E+03 0.  0.
        -13    1    3    3    0    0 -0.41605283626E+02  0.23810488430E+01  0.11034780197E+01  0.41688101983E+02  0.10566000000E+00 0.  1.
         23    2    1    0    0    0 -0.23119499874E+01 -0.17338500593E+02  0.27153328088E+02  0.92790279540E+02  0.86987148679E+02 0.  0.
         13    1    3    3    0    0  0.39293333639E+02 -0.19719549436E+02  0.26049850068E+02  0.51102177556E+02  0.10566000000E+00 0. -1.
         22    1    1    0    0    0  0.23119499874E+01  0.17338500593E+02 -0.27153328088E+02  0.32299720460E+02  0.00000000000E+00 0. -1.
</event>
<event>
 5    1  0.1261138E-009  0.9118800E+02  0.7561462E-02  0.1125453E+00
         25   -1    0    0    0    0  0.00000000000E+00  0.00000000000E+00  0.99999998245E-14  0.12509000000E+03  0.12509000000E+03 0.  0.
        -13    1    3    3    0    0 -0.27544715362E+02  0.50821700603E+02  0.88915124992E+01  0.58486124467E+02  0.10566000000E+00 0.  1.
         23    2    1    0    0    0  0.62899640163E+00  0.27217788234E+02  0.11928979894E+02  0.95366201553E+02  0.90615717205E+02 0.  0.
         13    1    3    3    0    0  0.28173711763E+02 -0.23603912370E+02  0.30374673945E+01  0.36880077086E+02  0.10566000000E+00 0. -1.
         22    1    1    0    0    0 -0.62899640163E+00 -0.27217788234E+02 -0.11928979894E+02  0.29723798447E+02  0.00000000000E+00 0.  1.
</event>
<event>
 5    1  0.1261138E-009  0.9118800E+02  0.7561462E-02  0.1125453E+00
         25   -1    0    0    0    0  0.00000000000E+00  0.00000000000E+00  0.99999998245E-14  0.12509000000E+03  0.12509000000E+03 0.  0.
        -13    1    3    3    0    0  0.51020441698E+01  0.49829754365E+02  0.83825898145E+01  0.50786949612E+02  0.10566000000E+00 0.  1.
         23    2    1    0    0    0 -0.78897344097E+01  0.12892212779E+02 -0.20626808191E+02  0.99518095974E+02  0.96176551980E+02 0.  0.
         13    1    3    3    0    0 -0.12991778580E+02 -0.36937541587E+02 -0.29009398005E+02  0.48731146362E+02  0.10566000000E+00 0. -1.
         22    1    1    0    0    0  0.78897344097E+01 -0.12892212779E+02  0.20626808191E+02  0.25571904026E+02  0.00000000000E+00 0. -1.
</event>
<event>
 5    1  0.1261138E-009  0.9118800E+02  0.7561462E-02  0.1125453E+00
         25   -1    0    0    0    0  0.00000000000E+00  0.00000000000E+00  0.99999998245E-14  0.12509000000E+03  0.12509000000E+03 0.  0.
        -13    1    3    3    0    0 -0.29698576092E+02 -0.10219923973E+02 -0.18922448323E+02  0.36667730806E+02  0.10566000000E+00 0.  1.
         23    2    1    0    0    0 -0.19177432979E+00  0.12755294201E+02  0.26604707699E+02  0.95585004163E+02  0.90917260416E+02 0.  0.
         13    1    3    3    0    0  0.29506801762E+02  0.22975218174E+02  0.45527156022E+02  0.58917273357E+02  0.10566000000E+00 0. -1.
         22    1    1    0    0    0  0.19177432979E+00 -0.12755294201E+02 -0.26604707699E+02  0.29504995837E+02  0.00000000000E+00 0. -1.
</event>
<event>
 5    1  0.1261138E-009  0.9118800E+02  0.7561462E-02  0.1125453E+00
         25   -1    0    0    0    0  0.00000000000E+00  0.00000000000E+00  0.99999998245E-14  0.12509000000E+03  0.12509000000E+03 0.  0.
        -13    1    3    3    0    0  0.13341332005E+02  0.28959796061E+02 -0.32040952082E+01  0.32045878326E+02  0.10566000000E+00 0. -1.
         23    2    1    0    0    0 -0.24391047935E+02 -0.19359620949E+02  0.36587929256E+01  0.93735496203E+02  0.88335940251E+02 0.  0.
         13    1    3    3    0    0 -0.37732379940E+02 -0.48319417011E+02  0.68628881338E+01  0.61689617877E+02  0.10566000000E+00 0.  1.
         22    1    1    0    0    0  0.24391047935E+02  0.19359620949E+02 -0.36587929256E+01  0.31354503797E+02  0.00000000000E+00 0.  1.
</event>
<event>
 5    1  0.1261138E-009  0.9118800E+02  0.7561462E-02  0.1125453E+00
         25   -1    0    0    0    0  0.00000000000E+00  0.00000000000E+00  0.99999998245E-14  0.12509000000E+03  0.12509000000E+03 0.  0.
        -13    1    3    3    0    0  0.75356860385E+01  0.32881040780E+02 -0.48034137206E+02  0.58696157524E+02  0.10566000000E+00 0.  1.
         23    2    1    0    0    0  0.53718864436E+01  0.60785335696E+01 -0.36055032134E+02  0.88133659860E+02  0.80011067508E+02 0.  0.
         13    1    3    3    0    0 -0.21637995949E+01 -0.26802507210E+02  0.11979105072E+02  0.29437502337E+02  0.10566000000E+00 0. -1.
         22    1    1    0    0    0 -0.53718864436E+01 -0.60785335696E+01  0.36055032134E+02  0.36956340140E+02  0.00000000000E+00 0.  1.
</event>
<event>
 5    1  0.1261138E-009  0.9118800E+02  0.7561462E-02  0.1125453E+00
         25   -1    0    0    0    0  0.00000000000E+00  0.00000000000E+00  0.99999998245E-14  0.12509000000E+03  0.12509000000E+03 0.  0.
        -13    1    3    3    0    0  0.52021602658E+02  0.64019641267E+00 -0.24309426526E+01  0.52082412010E+02  0.10566000000E+00 0.  1.
         23    2    1    0    0    0  0.15685566505E+02 -0.22099783997E+02  0.91534861091E+01  0.96485389231E+02  0.92147743205E+02 0.  0.
         13    1    3    3    0    0 -0.36336036153E+02 -0.22739980410E+02  0.11584428762E+02  0.44402977221E+02  0.10566000000E+00 0. -1.
         22    1    1    0    0    0 -0.15685566505E+02  0.22099783997E+02 -0.91534861091E+01  0.28604610769E+02  0.00000000000E+00 0. -1.
</event>
<event>
 5    1  0.1261138E-009  0.9118800E+02  0.7561462E-02  0.1125453E+00
         25   -1    0    0    0    0  0.00000000000E+00  0.00000000000E+00  0.99999998245E-14  0.12509000000E+03  0.12509000000E+03 0.  0.
        -13    1    3    3    0    0 -0.22548886617E+02  0.48147151309E+02  0.55854543749E+01  0.53458478574E+02  0.10566000000E+00 0. -1.
         23    2    1    0    0    0 -0.29158180436E+02  0.11487830340E+02 -0.73662268309E+01  0.92896351092E+02  0.87139549094E+02 0.  0.
         13    1    3    3    0    0 -0.66092938188E+01 -0.36659320969E+02 -0.12951681206E+02  0.39437872518E+02  0.10566000000E+00 0.  1.
         22    1    1    0    0    0  0.29158180436E+02 -0.11487830340E+02  0.73662268309E+01  0.32193648908E+02  0.00000000000E+00 0.  1.
</event>
<event>
 5    1  0.1261138E-009  0.9118800E+02  0.7561462E-02  0.1125453E+00
         25   -1    0    0    0    0  0.00000000000E+00  0.00000000000E+00  0.99999998245E-14  0.12509000000E+03  0.12509000000E+03 0.  0.
        -13    1    3    3    0    0  0.30098501226E+02 -0.22072538662E+02 -0.15889185332E+02  0.40565923059E+02  0.10566000000E+00 0.  1.
         23    2    1    0    0    0 -0.17624311459E+02  0.62583704782E+01 -0.21786312986E+02  0.96377163342E+02  0.92000709915E+02 0.  0.
         13    1    3    3    0    0 -0.47722812685E+02  0.28330909140E+02 -0.58971276534E+01  0.55811240283E+02  0.10566000000E+00 0. -1.
         22    1    1    0    0    0  0.17624311459E+02 -0.62583704782E+01  0.21786312986E+02  0.28712836658E+02  0.00000000000E+00 0. -1.
</event>
<event>
 5    1  0.1261138E-009  0.9118800E+02  0.7561462E-02  0.1125453E+00
         25   -1    0    0    0    0  0.00000000000E+00  0.00000000000E+00  0.99999998245E-14  0.12509000000E+03  0.12509000000E+03 0.  0.
        -13    1    3    3    0    0 -0.84113721186E+01 -0.38341784578E+02  0.25401342735E+02  0.46755566538E+02  0.10566000000E+00 0.  1.
         23    2    1    0    0    0  0.34728476416E+01  0.77807298859E+01  0.29330948493E+02  0.94546506948E+02  0.89477019442E+02 0.  0.
         13    1    3    3    0    0  0.11884219760E+02  0.46122514464E+02  0.39296057581E+01  0.47790940409E+02  0.10566000000E+00 0. -1.
         22    1    1    0    0    0 -0.34728476416E+01 -0.77807298859E+01 -0.29330948493E+02  0.30543493052E+02  0.00000000000E+00 0.  1.
</event>
<event>
 5    1  0.1261138E-009  0.9118800E+02  0.7561462E-02  0.1125453E+00
         25   -1    0    0    0    0  0.00000000000E+00  0.00000000000E+00  0.99999998245E-14  0.12509000000E+03  0.12509000000E+03 0.  0.
        -13    1    3    3    0    0  0.55649834525E+02 -0.32677602040E+01  0.12907507750E+02  0.57220601707E+02  0.10566000000E+00 0.  1.
         23    2    1    0    0    0  0.25753366467E+02  0.15041694395E+02 -0.17393528307E+01  0.95215030495E+02  0.90406793048E+02 0.  0.
         13    1    3    3    0    0 -0.29896468057E+02  0.18309454599E+02 -0.14646860581E+02  0.37994428788E+02  0.10566000000E+00 0. -1.
         22    1    1    0    0    0 -0.25753366467E+02 -0.15041694395E+02  0.17393528307E+01  0.29874969505E+02  0.00000000000E+00 0.  1.
</event>
<event>
 5    1  0.1261138E-009  0.9118800E+02  0.7561462E-02  0.1125453E+00
         25   -1    0    0    0    0  0.00000000000E+00  0.00000000000E+00  0.99999998245E-14  0.12509000000E+03  0.12509000000E+03 0.  0.
        -13    1    3    3    0    0 -0.34993209247E+01  0.23588804995E+02 -0.42338501340E+02  0.48592559387E+02  0.10566000000E+00 0. -1.
         23    2    1    0    0    0  0.13675824858E+02  0.25973319088E+02  0.14612781728E+01  0.95699919634E+02  0.91075231507E+02 0.  0.
         13    1    3    3    0    0  0.17175145783E+02  0.23845140936E+01  0.43799779512E+02  0.47107360248E+02  0.10566000000E+00 0.  1.
         22    1    1    0    0    0 -0.13675824858E+02 -0.25973319088E+02 -0.14612781728E+01  0.29390080366E+02  0.00000000000E+00 0.  1.
</event>
<event>
 5    1  0.1261138E-009  0.9118800E+02  0.7561462E-02  0.1125453E+00
         25   -1    0    0    0    0  0.00000000000E+00  0.00000000000E+00  0.99999998245E-14  0.12509000000E+03  0.12509000000E+03 0.  0.
        -13    1    3    3    0    0 -0.71438727393E+01 -0.25684570822E+02  0.26122915914E+02  0.37324924593E+02  0.10566000000E+00 0.  1.
         23    2    1    0    0    0 -0.14972841842E+02  0.18106648249E+01 -0.24996917376E+02  0.95895644754E+02  0.91343660451E+02 0.  0.
         13    1    3    3    0    0 -0.78289691027E+01  0.27495235647E+02 -0.51119833290E+02  0.58570720160E+02  0.10566000000E+00 0. -1.
         22    1    1    0    0    0  0.14972841842E+02 -0.18106648249E+01  0.24996917376E+02  0.29194355246E+02  0.00000000000E+00 0. -1.
</event>
<event>
 5    1  0.1261138E-009  0.9118800E+02  0.7561462E-02  0.1125453E+00
         25   -1    0    0    0    0  0.00000000000E+00  0.00000000000E+00  0.99999998245E-14  0.12509000000E+03  0.12509000000E+03 0.  0.
        -13    1    3    3    0    0 -0.12165705572E+02  0.51921607604E+02  0.91942220219E+01  0.54114717138E+02  0.10566000000E+00 0.  1.
         23    2    1    0    0    0  0.15680934018E+02  0.25130883557E+02 -0.45350221028E+01  0.95123027755E+02  0.90279405092E+02 0.  0.
         13    1    3    3    0    0  0.27846639591E+02 -0.26790724047E+02 -0.13729244125E+02  0.41008310618E+02  0.10566000000E+00 0. -1.
         22    1    1    0    0    0 -0.15680934018E+02 -0.25130883557E+02  0.45350221028E+01  0.29966972245E+02  0.00000000000E+00 0. -1.
</event>
<event>
 5    1  0.1261138E-009  0.9118800E+02  0.7561462E-02  0.1125453E+00
         25   -1    0    0    0    0  0.00000000000E+00  0.00000000000E+00  0.99999998245E-14  0.12509000000E+03  0.12509000000E+03 0.  0.
        -13    1    3    3    0    0 -0.11049710097E+02  0.43960773598E+02  0.35918437647E+02  0.57834168409E+02  0.10566000000E+00 0. -1.
         23    2    1    0    0    0 -0.16818767664E+02  0.91440234294E+01  0.22394254953E+02  0.95628384886E+02  0.90976926914E+02 0.  0.
         13    1    3    3    0    0 -0.57690575670E+01 -0.34816750169E+02 -0.13524182693E+02  0.37794216477E+02  0.10566000000E+00 0.  1.
         22    1    1    0    0    0  0.16818767664E+02 -0.91440234294E+01 -0.22394254953E+02  0.29461615114E+02  0.00000000000E+00 0. -1.
</event>
<event>
 5    1  0.1261138E-009  0.9118800E+02  0.7561462E-02  0.1125453E+00
         25   -1    0    0    0    0  0.00000000000E+00  0.00000000000E+00  0.99999998245E-14  0.12509000000E+03  0.12509000000E+03 0.  0.
        -13    1    3    3    0    0 -0.28372386747E+02 -0.47455562004E+01  0.22898853280E+02  0.36767938193E+02  0.10566000000E+00 0. -1.
         23    2    1    0    0    0  0.31122303152E+01 -0.13840065259E+02 -0.25905636020E+02  0.95554676038E+02  0.90875523389E+02 0.  0.
         13    1    3    3    0    0  0.31484617062E+02 -0.90945090586E+01 -0.48804489301E+02  0.58786737845E+02  0.10566000000E+00 0.  1.
         22    1    1    0    0    0 -0.31122303152E+01  0.13840065259E+02  0.25905636020E+02  0.29535323962E+02  0.00000000000E+00 0.  1.
</event>
<event>
 5    1  0.1261138E-009  0.9118800E+02  0.7561462E-02  0.1125453E+00
         25   -1    0    0    0    0  0.00000000000E+00  0.00000000000E+00  0.99999998245E-14  0.12509000000E+03  0.12509000000E+03 0.  0.
        -13    1    3    3    0    0 -0.36442130395E+02  0.13144021877E+02 -0.37131483158E+02  0.53661460886E+02  0.10566000000E+00 0.  1.
         23    2    1    0    0    0 -0.19816330958E+02 -0.17256401368E+02 -0.17964707060E+02  0.93259180649E+02  0.87658848468E+02 0.  0.
         13    1    3    3    0    0  0.16625799437E+02 -0.30400423246E+02  0.19166776097E+02  0.39597719763E+02  0.10566000000E+00 0. -1.
         22    1    1    0    0    0  0.19816330958E+02  0.17256401368E+02  0.17964707060E+02  0.31830819351E+02  0.00000000000E+00 0.  1.
</event>
<event>
 5    1  0.1261138E-009  0.9118800E+02  0.7561462E-02  0.1125453E+00
         25   -1    0    0    0    0  0.00000000000E+00  0.00000000000E+00  0.99999998245E-14  0.12509000000E+03  0.12509000000E+03 0.  0.
        -13    1    3    3    0    0 -0.18018228763E+02  0.37544572551E+02  0.22884124146E+02  0.47517847150E+02  0.10566000000E+00 0.  1.
         23    2    1    0    0    0 -0.76559612765E+01  0.26530833838E+02 -0.18682776157E+02  0.91750158787E+02  0.85478340095E+02 0.  0.
         13    1    3    3    0    0  0.10362267486E+02 -0.11013738713E+02 -0.41566900303E+02  0.44232311637E+02  0.10566000000E+00 0. -1.
         22    1    1    0    0    0  0.76559612765E+01 -0.26530833838E+02  0.18682776157E+02  0.33339841213E+02  0.00000000000E+00 0.  1.
</event>
<event>
 5    1  0.1261138E-009  0.9118800E+02  0.7561462E-02  0.1125453E+00
         25   -1    0    0    0    0  0.00000000000E+00  0.00000000000E+00  0.99999998245E-14  0.12509000000E+03  0.12509000000E+03 0.  0.
        -13    1    3    3    0    0  0.54705179366E+01 -0.38643846464E+02 -0.11783844726E+02  0.40769395343E+02  0.10566000000E+00 0.  1.
         23    2    1    0    0    0  0.24779226810E+02 -0.55537281831E+01  0.21727532160E+02  0.91669353211E+02  0.85360006363E+02 0.  0.
         13    1    3    3    0    0  0.19308708873E+02  0.33090118281E+02  0.33511376886E+02  0.50899957869E+02  0.10566000000E+00 0. -1.
         22    1    1    0    0    0 -0.24779226810E+02  0.55537281831E+01 -0.21727532160E+02  0.33420646789E+02  0.00000000000E+00 0. -1.
</event>
<event>
 5    1  0.1261138E-009  0.9118800E+02  0.7561462E-02  0.1125453E+00
         25   -1    0    0    0    0  0.00000000000E+00  0.00000000000E+00  0.99999998245E-14  0.12509000000E+03  0.12509000000E+03 0.  0.
        -13    1    3    3    0    0 -0.12444496274E+02 -0.44051129682E+01  0.55797877173E+02  0.57338335944E+02  0.10566000000E+00 0. -1.
         23    2    1    0    0    0 -0.13338402523E+02 -0.15946281178E+02  0.15799252314E+02  0.98978446256E+02  0.95472087985E+02 0.  0.
         13    1    3    3    0    0 -0.89390624934E+00 -0.11541168210E+02 -0.39998624860E+02  0.41640110311E+02  0.10566000000E+00 0.  1.
         22    1    1    0    0    0  0.13338402523E+02  0.15946281178E+02 -0.15799252314E+02  0.26111553744E+02  0.00000000000E+00 0. -1.
</event>
<event>
 5    1  0.1261138E-009  0.9118800E+02  0.7561462E-02  0.1125453E+00
         25   -1    0    0    0    0  0.00000000000E+00  0.00000000000E+00  0.99999998245E-14  0.12509000000E+03  0.12509000000E+03 0.  0.
        -13    1    3    3    0    0  0.49998587790E+02  0.33212895674E+01  0.12280518817E+02  0.51591782794E+02  0.10566000000E+00 0. -1.
         23    2    1    0    0    0  0.12772363841E+02  0.35348186660E+01  0.29606204259E+02  0.92653052675E+02  0.86789588191E+02 0.  0.
         13    1    3    3    0    0 -0.37226223949E+02  0.21352909864E+00  0.17325685443E+02  0.41061269882E+02  0.10566000000E+00 0.  1.
         22    1    1    0    0    0 -0.12772363841E+02 -0.35348186660E+01 -0.29606204259E+02  0.32436947325E+02  0.00000000000E+00 0. -1.
</event>
<event>
 5    1  0.1261138E-009  0.9118800E+02  0.7561462E-02  0.1125453E+00
         25   -1    0    0    0    0  0.00000000000E+00  0.00000000000E+00  0.99999998245E-14  0.12509000000E+03  0.12509000000E+03 0.  0.
        -13    1    3    3    0    0 -0.24139054678E+02  0.22315652824E+02 -0.98134085665E+01  0.34307382200E+02  0.10566000000E+00 0. -1.
         23    2    1    0    0    0  0.15919168319E+02 -0.18801464587E+02 -0.20912537918E+02  0.92775154607E+02  0.86965395874E+02 0.  0.
         13    1    3    3    0    0  0.40058222997E+02 -0.41117117410E+02 -0.11099129352E+02  0.58467772407E+02  0.10566000000E+00 0.  1.
         22    1    1    0    0    0 -0.15919168319E+02  0.18801464587E+02  0.20912537918E+02  0.32314845393E+02  0.00000000000E+00 0.  1.
</event>
<event>
 5    1  0.1261138E-009  0.9118800E+02  0.7561462E-02  0.1125453E+00
         25   -1    0    0    0    0  0.00000000000E+00  0.00000000000E+00  0.99999998245E-14  0.12509000000E+03  0.12509000000E+03 0.  0.
        -13    1    3    3    0    0  0.22928098264E+02 -0.24657794815E+02  0.40233296569E+02  0.52463643144E+02  0.10566000000E+00 0.  1.
         23    2    1    0    0    0  0.16408971058E+02  0.12696228251E+02  0.23000678885E+02  0.94114529509E+02  0.88871057676E+02 0.  0.
         13    1    3    3    0    0 -0.65191272056E+01  0.37354023065E+02 -0.17232617684E+02  0.41650886364E+02  0.10566000000E+00 0. -1.
         22    1    1    0    0    0 -0.16408971058E+02 -0.12696228251E+02 -0.23000678885E+02  0.30975470491E+02  0.00000000000E+00 0.  1.
</event>
<event>
 5    1  0.1261138E-009  0.9118800E+02  0.7561462E-02  0.1125453E+00
         25   -1    0    0    0    0  0.00000000000E+00  0.00000000000E+00  0.99999998245E-14  0.12509000000E+03  0.12509000000E+03 0.  0.
        -13    1    3    3    0    0 -0.38864122924E+02 -0.12130785267E+01 -0.47585777947E+02  0.61451680506E+02  0.10566000000E+00 0.  1.
         23    2    1    0    0    0 -0.19140958834E+02 -0.84506276066E+01 -0.19827213123E+02  0.96264528759E+02  0.91847437117E+02 0.  0.
         13    1    3    3    0    0  0.19723164090E+02 -0.72375490799E+01  0.27758564823E+02  0.34812848253E+02  0.10566000000E+00 0. -1.
         22    1    1    0    0    0  0.19140958834E+02  0.84506276066E+01  0.19827213123E+02  0.28825471241E+02  0.00000000000E+00 0.  1.
</event>
<event>
 5    1  0.1261138E-009  0.9118800E+02  0.7561462E-02  0.1125453E+00
         25   -1    0    0    0    0  0.00000000000E+00  0.00000000000E+00  0.99999998245E-14  0.12509000000E+03  0.12509000000E+03 0.  0.
        -13    1    3    3    0    0 -0.85075521201E+01  0.37260891669E+02 -0.33231140325E+02  0.50646543242E+02  0.10566000000E+00 0.  1.
         23    2    1    0    0    0 -0.47829862378E+01  0.58974891953E+00 -0.37072004060E+02  0.87706069680E+02  0.79339753041E+02 0.  0.
         13    1    3    3    0    0  0.37245658823E+01 -0.36671142749E+02 -0.38408637348E+01  0.37059526438E+02  0.10566000000E+00 0. -1.
         22    1    1    0    0    0  0.47829862378E+01 -0.58974891953E+00  0.37072004060E+02  0.37383930320E+02  0.00000000000E+00 0.  1.
</event>
<event>
 5    1  0.1261138E-009  0.9118800E+02  0.7561462E-02  0.1125453E+00
         25   -1    0    0    0    0  0.00000000000E+00  0.00000000000E+00  0.99999998245E-14  0.12509000000E+03  0.12509000000E+03 0.  0.
        -13    1    3    3    0    0 -0.32647698649E+02  0.29728081849E+02 -0.48481025628E+01  0.44420111887E+02  0.10566000000E+00 0. -1.
         23    2    1    0    0    0 -0.10500976705E+02 -0.54755784549E+01  0.26210651214E+02  0.96328033651E+02  0.91933885803E+02 0.  0.
         13    1    3    3    0    0  0.22146721945E+02 -0.35203660304E+02  0.31058753777E+02  0.51907921765E+02  0.10566000000E+00 0.  1.
         22    1    1    0    0    0  0.10500976705E+02  0.54755784549E+01 -0.26210651214E+02  0.28761966349E+02  0.00000000000E+00 0. -1.
</event>
<event>
 5    1  0.1261138E-009  0.9118800E+02  0.7561462E-02  0.1125453E+00
         25   -1    0    0    0    0  0.00000000000E+00  0.00000000000E+00  0.99999998245E-14  0.12509000000E+03  0.12509000000E+03 0.  0.
        -13    1    3    3    0    0 -0.12342396685E+02 -0.83764472388E+00  0.50762884205E+02  0.52248617029E+02  0.10566000000E+00 0. -1.
         23    2    1    0    0    0 -0.10089651929E+00  0.23615533095E+02  0.15627867552E+02  0.96771563820E+02  0.92535408015E+02 0.  0.
         13    1    3    3    0    0  0.12241500166E+02  0.24453177818E+02 -0.35135016653E+02  0.44522946791E+02  0.10566000000E+00 0.  1.
         22    1    1    0    0    0  0.10089651929E+00 -0.23615533095E+02 -0.15627867552E+02  0.28318436180E+02  0.00000000000E+00 0.  1.
</event>
<event>
 5    1  0.1261138E-009  0.9118800E+02  0.7561462E-02  0.1125453E+00
         25   -1    0    0    0    0  0.00000000000E+00  0.00000000000E+00  0.99999998245E-14  0.12509000000E+03  0.12509000000E+03 0.  0.
        -13    1    3    3    0    0  0.73906295949E+01 -0.30713422240E+02 -0.43269414765E+02  0.53574146094E+02  0.10566000000E+00 0.  1.
         23    2    1    0    0    0  0.26008605673E+02 -0.14983282567E+02 -0.13150364587E+02  0.92319915863E+02  0.86308101883E+02 0.  0.
         13    1    3    3    0    0  0.18617976078E+02  0.15730139672E+02  0.30119050179E+02  0.38745769770E+02  0.10566000000E+00 0. -1.
         22    1    1    0    0    0 -0.26008605673E+02  0.14983282567E+02  0.13150364587E+02  0.32770084137E+02  0.00000000000E+00 0. -1.
</event>
<event>
 5    1  0.1261138E-009  0.9118800E+02  0.7561462E-02  0.1125453E+00
         25   -1    0    0    0    0  0.00000000000E+00  0.00000000000E+00  0.99999998245E-14  0.12509000000E+03  0.12509000000E+03 0.  0.
        -13    1    3    3    0    0  0.32314159695E+02 -0.33292410771E+01  0.20023575093E+02  0.38160758463E+02  0.10566000000E+00 0.  1.
         23    2    1    0    0    0  0.12114575973E+00  0.28774563119E+02 -0.12146995037E+02  0.93856369929E+02  0.88506940568E+02 0.  0.
         13    1    3    3    0    0 -0.32193013935E+02  0.32103804197E+02 -0.32170570129E+02  0.55695611466E+02  0.10566000000E+00 0. -1.
         22    1    1    0    0    0 -0.12114575973E+00 -0.28774563119E+02  0.12146995037E+02  0.31233630071E+02  0.00000000000E+00 0. -1.
</event>
<event>
 5    1  0.1261138E-009  0.9118800E+02  0.7561462E-02  0.1125453E+00
         25   -1    0    0    0    0  0.00000000000E+00  0.00000000000E+00  0.99999998245E-14  0.12509000000E+03  0.12509000000E+03 0.  0.
        -13    1    3    3    0    0 -0.38008032384E+02  0.41042477043E+02  0.22096864356E+02  0.60144642537E+02  0.10566000000E+00 0. -1.
         23    2    1    0    0    0 -0.25391110763E+02  0.97934756412E+01  0.12186091059E+02  0.95271859780E+02  0.90485389868E+02 0.  0.
         13    1    3    3    0    0  0.12616921622E+02 -0.31249001401E+02 -0.99107732974E+01  0.35127217242E+02  0.10566000000E+00 0.  1.
         22    1    1    0    0    0  0.25391110763E+02 -0.97934756412E+01 -0.12186091059E+02  0.29818140220E+02  0.00000000000E+00 0. -1.
</event>
<event>
 5    1  0.1261138E-009  0.9118800E+02  0.7561462E-02  0.1125453E+00
         25   -1    0    0    0    0  0.00000000000E+00  0.00000000000E+00  0.99999998245E-14  0.12509000000E+03  0.12509000000E+03 0.  0.
        -13    1    3    3    0    0  0.98190322470E+01  0.12437354832E+02  0.58018724255E+02  0.60143866833E+02  0.10566000000E+00 0.  1.
         23    2    1    0    0    0 -0.72730878559E+01  0.93012681861E+01  0.23744844457E+02  0.98571534073E+02  0.94937444112E+02 0.  0.
         13    1    3    3    0    0 -0.17092120103E+02 -0.31360866455E+01 -0.34273879798E+02  0.38427667240E+02  0.10566000000E+00 0. -1.
         22    1    1    0    0    0  0.72730878559E+01 -0.93012681861E+01 -0.23744844457E+02  0.26518465927E+02  0.00000000000E+00 0.  1.
</event>
<event>
 5    1  0.1261138E-009  0.9118800E+02  0.7561462E-02  0.1125453E+00
         25   -1    0    0    0    0  0.00000000000E+00  0.00000000000E+00  0.99999998245E-14  0.12509000000E+03  0.12509000000E+03 0.  0.
        -13    1    3    3    0    0  0.19806121655E+02  0.58482136535E+01  0.54469446538E+02  0.58253032781E+02  0.10566000000E+00 0. -1.
         23    2    1    0    0    0 -0.60233900224E+01 -0.27300793870E+01  0.28361883885E+02  0.95967310935E+02  0.91441750584E+02 0.  0.
         13    1    3    3    0    0 -0.25829511678E+02 -0.85782930404E+01 -0.26107562653E+02  0.37714278154E+02  0.10566000000E+00 0.  1.
         22    1    1    0    0    0  0.60233900224E+01  0.27300793870E+01 -0.28361883885E+02  0.29122689065E+02  0.00000000000E+00 0. -1.
</event>
<event>
 5    1  0.1261138E-009  0.9118800E+02  0.7561462E-02  0.1125453E+00
         25   -1    0    0    0    0  0.00000000000E+00  0.00000000000E+00  0.99999998245E-14  0.12509000000E+03  0.12509000000E+03 0.  0.
        -13    1    3    3    0    0 -0.21126895867E+01 -0.36830631406E+02  0.29891563075E+02  0.47481318159E+02  0.10566000000E+00 0. -1.
         23    2    1    0    0    0  0.25864488527E+01 -0.22142459752E+02 -0.17135368660E+02  0.96972405852E+02  0.92806510527E+02 0.  0.
         13    1    3    3    0    0  0.46991384394E+01  0.14688171653E+02 -0.47026931735E+02  0.49491087693E+02  0.10566000000E+00 0.  1.
         22    1    1    0    0    0 -0.25864488527E+01  0.22142459752E+02  0.17135368660E+02  0.28117594148E+02  0.00000000000E+00 0. -1.
</event>
<event>
 5    1  0.1261138E-009  0.9118800E+02  0.7561462E-02  0.1125453E+00
         25   -1    0    0    0    0  0.00000000000E+00  0.00000000000E+00  0.99999998245E-14  0.12509000000E+03  0.12509000000E+03 0.  0.
        -13    1    3    3    0    0 -0.56504405838E+02 -0.10972181915E+02 -0.17075386622E+02  0.60039292529E+02  0.10566000000E+00 0. -1.
         23    2    1    0    0    0 -0.19658351354E+02 -0.10411086668E+02 -0.17330939598E+02  0.96890656552E+02  0.92696258587E+02 0.  0.
         13    1    3    3    0    0  0.36846054484E+02  0.56109524697E+00 -0.25555297649E+00  0.36851364022E+02  0.10566000000E+00 0.  1.
         22    1    1    0    0    0  0.19658351354E+02  0.10411086668E+02  0.17330939598E+02  0.28199343448E+02  0.00000000000E+00 0. -1.
</event>
<event>
 5    1  0.1261138E-009  0.9118800E+02  0.7561462E-02  0.1125453E+00
         25   -1    0    0    0    0  0.00000000000E+00  0.00000000000E+00  0.99999998245E-14  0.12509000000E+03  0.12509000000E+03 0.  0.
        -13    1    3    3    0    0 -0.43278213353E+02 -0.16154055496E+02 -0.30690791545E+02  0.55460734846E+02  0.10566000000E+00 0.  1.
         23    2    1    0    0    0 -0.20645597267E+02  0.13835175375E+02 -0.13913403944E+02  0.96607802517E+02  0.92313768928E+02 0.  0.
         13    1    3    3    0    0  0.22632616086E+02  0.29989230871E+02  0.16777387601E+02  0.41147067671E+02  0.10566000000E+00 0. -1.
         22    1    1    0    0    0  0.20645597267E+02 -0.13835175375E+02  0.13913403944E+02  0.28482197483E+02  0.00000000000E+00 0.  1.
</event>
<event>
 5    1  0.1261138E-009  0.9118800E+02  0.7561462E-02  0.1125453E+00
         25   -1    0    0    0    0  0.00000000000E+00  0.00000000000E+00  0.99999998245E-14  0.12509000000E+03  0.12509000000E+03 0.  0.
        -13    1    3    3    0    0  0.24245504952E+02 -0.33169467898E+02 -0.24707801389E+02  0.47943140537E+02  0.10566000000E+00 0. -1.
         23    2    1    0    0    0  0.16063316815E+02  0.12852612223E+02 -0.22301599021E+02  0.94748920472E+02  0.89759550041E+02 0.  0.
         13    1    3    3    0    0 -0.81821881363E+01  0.46022080122E+02  0.24062023686E+01  0.46805779935E+02  0.10566000000E+00 0.  1.
         22    1    1    0    0    0 -0.16063316815E+02 -0.12852612223E+02  0.22301599021E+02  0.30341079528E+02  0.00000000000E+00 0. -1.
</event>
<event>
 5    1  0.1261138E-009  0.9118800E+02  0.7561462E-02  0.1125453E+00
         25   -1    0    0    0    0  0.00000000000E+00  0.00000000000E+00  0.99999998245E-14  0.12509000000E+03  0.12509000000E+03 0.  0.
        -13    1    3    3    0    0 -0.59288099810E+02 -0.50947666071E+01 -0.35115599198E+01  0.59610214251E+02  0.10566000000E+00 0.  1.
         23    2    1    0    0    0 -0.16519594230E+02  0.10811767839E+02 -0.16265399151E+01  0.10527997856E+03  0.10339940491E+03 0.  0.
         13    1    3    3    0    0  0.42768505580E+02  0.15906534446E+02  0.18850200047E+01  0.45669764310E+02  0.10566000000E+00 0. -1.
         22    1    1    0    0    0  0.16519594230E+02 -0.10811767839E+02  0.16265399151E+01  0.19810021440E+02  0.00000000000E+00 0.  1.
</event>
<event>
 5    1  0.1261138E-009  0.9118800E+02  0.7561462E-02  0.1125453E+00
         25   -1    0    0    0    0  0.00000000000E+00  0.00000000000E+00  0.99999998245E-14  0.12509000000E+03  0.12509000000E+03 0.  0.
        -13    1    3    3    0    0 -0.30189913896E+02 -0.22566098562E+02 -0.17756841919E+02  0.41665048954E+02  0.10566000000E+00 0.  1.
         23    2    1    0    0    0  0.22344126721E+02 -0.35988334216E+01 -0.15679783615E+02  0.97556979549E+02  0.93591116264E+02 0.  0.
         13    1    3    3    0    0  0.52534040617E+02  0.18967265140E+02  0.20770583041E+01  0.55891930596E+02  0.10566000000E+00 0. -1.
         22    1    1    0    0    0 -0.22344126721E+02  0.35988334216E+01  0.15679783615E+02  0.27533020451E+02  0.00000000000E+00 0. -1.
</event>
<event>
 5    1  0.1261138E-009  0.9118800E+02  0.7561462E-02  0.1125453E+00
         25   -1    0    0    0    0  0.00000000000E+00  0.00000000000E+00  0.99999998245E-14  0.12509000000E+03  0.12509000000E+03 0.  0.
        -13    1    3    3    0    0 -0.11844094972E+02 -0.97838795644E+01 -0.63505066075E+01  0.16623687414E+02  0.10566000000E+00 0.  1.
         23    2    1    0    0    0  0.23399644423E+02  0.40554339885E+02 -0.34622363993E+01  0.78141252163E+02  0.62464953103E+02 0.  0.
         13    1    3    3    0    0  0.35243739394E+02  0.50338219449E+02  0.28882702082E+01  0.61517564749E+02  0.10566000000E+00 0. -1.
         22    1    1    0    0    0 -0.23399644423E+02 -0.40554339885E+02  0.34622363993E+01  0.46948747837E+02  0.00000000000E+00 0. -1.
</event>
<event>
 5    1  0.1261138E-009  0.9118800E+02  0.7561462E-02  0.1125453E+00
         25   -1    0    0    0    0  0.00000000000E+00  0.00000000000E+00  0.99999998245E-14  0.12509000000E+03  0.12509000000E+03 0.  0.
        -13    1    3    3    0    0  0.47174894275E+02 -0.29825391598E+02  0.26912378648E+02  0.61962181389E+02  0.10566000000E+00 0. -1.
         23    2    1    0    0    0  0.27345811314E+02 -0.12971298579E+02  0.91482582180E+01  0.93471356581E+02  0.87961104412E+02 0.  0.
         13    1    3    3    0    0 -0.19829082962E+02  0.16854093019E+02 -0.17764120430E+02  0.31509175192E+02  0.10566000000E+00 0.  1.
         22    1    1    0    0    0 -0.27345811314E+02  0.12971298579E+02 -0.91482582180E+01  0.31618643419E+02  0.00000000000E+00 0. -1.
</event>
<event>
 5    1  0.1261138E-009  0.9118800E+02  0.7561462E-02  0.1125453E+00
         25   -1    0    0    0    0  0.00000000000E+00  0.00000000000E+00  0.99999998245E-14  0.12509000000E+03  0.12509000000E+03 0.  0.
        -13    1    3    3    0    0 -0.12633013921E+02 -0.23858970310E+02 -0.37438424259E+02  0.46157234320E+02  0.10566000000E+00 0.  1.
         23    2    1    0    0    0 -0.20994686988E+02  0.69016431680E+01  0.79347490301E+01  0.10160873508E+03  0.98858308917E+02 0.  0.
         13    1    3    3    0    0 -0.83616730673E+01  0.30760613478E+02  0.45373173289E+02  0.55451500759E+02  0.10566000000E+00 0. -1.
         22    1    1    0    0    0  0.20994686988E+02 -0.69016431680E+01 -0.79347490301E+01  0.23481264922E+02  0.00000000000E+00 0.  1.
</event>
<event>
 5    1  0.1261138E-009  0.9118800E+02  0.7561462E-02  0.1125453E+00
         25   -1    0    0    0    0  0.00000000000E+00  0.00000000000E+00  0.99999998245E-14  0.12509000000E+03  0.12509000000E+03 0.  0.
        -13    1    3    3    0    0 -0.33563600881E+02  0.25334697933E+02  0.14077301103E+02  0.44345730278E+02  0.10566000000E+00 0.  1.
         23    2    1    0    0    0  0.53560072762E+01 -0.62809452734E+01  0.27601766528E+02  0.96280373086E+02  0.91869013484E+02 0.  0.
         13    1    3    3    0    0  0.38919608157E+02 -0.31615643207E+02  0.13524465425E+02  0.51934642808E+02  0.10566000000E+00 0. -1.
         22    1    1    0    0    0 -0.53560072762E+01  0.62809452734E+01 -0.27601766528E+02  0.28809626914E+02  0.00000000000E+00 0. -1.
</event>
<event>
 5    1  0.1261138E-009  0.9118800E+02  0.7561462E-02  0.1125453E+00
         25   -1    0    0    0    0  0.00000000000E+00  0.00000000000E+00  0.99999998245E-14  0.12509000000E+03  0.12509000000E+03 0.  0.
        -13    1    3    3    0    0  0.31633524438E+02 -0.50922375441E+01 -0.16089806120E+02  0.35853922751E+02  0.10566000000E+00 0.  1.
         23    2    1    0    0    0 -0.12425001584E+02 -0.45914425497E+01  0.25443459654E+02  0.96404957761E+02  0.92038493212E+02 0.  0.
         13    1    3    3    0    0 -0.44058526023E+02  0.50079499441E+00  0.41533265775E+02  0.60551035011E+02  0.10566000000E+00 0. -1.
         22    1    1    0    0    0  0.12425001584E+02  0.45914425497E+01 -0.25443459654E+02  0.28685042239E+02  0.00000000000E+00 0. -1.
</event>
<event>
 5    1  0.1261138E-009  0.9118800E+02  0.7561462E-02  0.1125453E+00
         25   -1    0    0    0    0  0.00000000000E+00  0.00000000000E+00  0.99999998245E-14  0.12509000000E+03  0.12509000000E+03 0.  0.
        -13    1    3    3    0    0 -0.78357467686E+01 -0.38268545684E+02 -0.73905576310E+01  0.39755653967E+02  0.10566000000E+00 0.  1.
         23    2    1    0    0    0 -0.21633463059E+02  0.17040377489E+02 -0.66282762120E+01  0.96764830372E+02  0.92526305246E+02 0.  0.
         13    1    3    3    0    0 -0.13797716290E+02  0.55308923173E+02  0.76228141906E+00  0.57009176405E+02  0.10566000000E+00 0. -1.
         22    1    1    0    0    0  0.21633463059E+02 -0.17040377489E+02  0.66282762120E+01  0.28325169628E+02  0.00000000000E+00 0. -1.
</event>
<event>
 5    1  0.1261138E-009  0.9118800E+02  0.7561462E-02  0.1125453E+00
         25   -1    0    0    0    0  0.00000000000E+00  0.00000000000E+00  0.99999998245E-14  0.12509000000E+03  0.12509000000E+03 0.  0.
        -13    1    3    3    0    0  0.26677020691E+02  0.69989780682E+01 -0.20081497902E+02  0.34116372154E+02  0.10566000000E+00 0.  1.
         23    2    1    0    0    0 -0.14405699763E+02  0.59883367727E+01  0.25316920161E+02  0.95352299863E+02  0.90596524656E+02 0.  0.
         13    1    3    3    0    0 -0.41082720454E+02 -0.10106412955E+01  0.45398418063E+02  0.61235927709E+02  0.10566000000E+00 0. -1.
         22    1    1    0    0    0  0.14405699763E+02 -0.59883367727E+01 -0.25316920161E+02  0.29737700137E+02  0.00000000000E+00 0. -1.
</event>
<event>
 5    1  0.1261138E-009  0.9118800E+02  0.7561462E-02  0.1125453E+00
         25   -1    0    0    0    0  0.00000000000E+00  0.00000000000E+00  0.99999998245E-14  0.12509000000E+03  0.12509000000E+03 0.  0.
        -13    1    3    3    0    0  0.23467420235E-02 -0.53340861343E+02  0.30191900629E+02  0.61292817866E+02  0.10566000000E+00 0. -1.
         23    2    1    0    0    0 -0.83268627116E+01 -0.23431097723E+02  0.16638830864E+02  0.95170045528E+02  0.90344528833E+02 0.  0.
         13    1    3    3    0    0 -0.83292094537E+01  0.29909763620E+02 -0.13553069765E+02  0.33877227662E+02  0.10566000000E+00 0.  1.
         22    1    1    0    0    0  0.83268627116E+01  0.23431097723E+02 -0.16638830864E+02  0.29919954472E+02  0.00000000000E+00 0. -1.
</event>
<event>
 5    1  0.1261138E-009  0.9118800E+02  0.7561462E-02  0.1125453E+00
         25   -1    0    0    0    0  0.00000000000E+00  0.00000000000E+00  0.99999998245E-14  0.12509000000E+03  0.12509000000E+03 0.  0.
        -13    1    3    3    0    0 -0.13251342434E+02 -0.31922568276E+02  0.47393659862E+02  0.58658491293E+02  0.10566000000E+00 0.  1.
         23    2    1    0    0    0 -0.13849957128E+02 -0.22345296689E+02  0.10497554742E+02  0.96782187436E+02  0.92549767978E+02 0.  0.
         13    1    3    3    0    0 -0.59861469460E+00  0.95772715866E+01 -0.36896105120E+02  0.38123696144E+02  0.10566000000E+00 0. -1.
         22    1    1    0    0    0  0.13849957128E+02  0.22345296689E+02 -0.10497554742E+02  0.28307812564E+02  0.00000000000E+00 0.  1.
</event>
<event>
 5    1  0.1261138E-009  0.9118800E+02  0.7561462E-02  0.1125453E+00
         25   -1    0    0    0    0  0.00000000000E+00  0.00000000000E+00  0.99999998245E-14  0.12509000000E+03  0.12509000000E+03 0.  0.
        -13    1    3    3    0    0  0.58693576003E+01 -0.24924576757E+02  0.28787416069E+02  0.38528046578E+02  0.10566000000E+00 0.  1.
         23    2    1    0    0    0 -0.24117435966E+02  0.79595068788E+01 -0.10226549258E+02  0.97711417549E+02  0.93797304558E+02 0.  0.
         13    1    3    3    0    0 -0.29986793566E+02  0.32884083636E+02 -0.39013965327E+02  0.59183370971E+02  0.10566000000E+00 0. -1.
         22    1    1    0    0    0  0.24117435966E+02 -0.79595068788E+01  0.10226549258E+02  0.27378582451E+02  0.00000000000E+00 0. -1.
</event>
<event>
 5    1  0.1261138E-009  0.9118800E+02  0.7561462E-02  0.1125453E+00
         25   -1    0    0    0    0  0.00000000000E+00  0.00000000000E+00  0.99999998245E-14  0.12509000000E+03  0.12509000000E+03 0.  0.
        -13    1    3    3    0    0  0.93848291636E+01  0.42360940245E+02 -0.34521834460E+02  0.55446302811E+02  0.10566000000E+00 0.  1.
         23    2    1    0    0    0  0.16245169696E+02  0.31315530538E+01 -0.22723006067E+02  0.96982222292E+02  0.92819740750E+02 0.  0.
         13    1    3    3    0    0  0.68603405323E+01 -0.39229387191E+02  0.11798828393E+02  0.41535919481E+02  0.10566000000E+00 0. -1.
         22    1    1    0    0    0 -0.16245169696E+02 -0.31315530538E+01  0.22723006067E+02  0.28107777708E+02  0.00000000000E+00 0.  1.
</event>
<event>
 5    1  0.1261138E-009  0.9118800E+02  0.7561462E-02  0.1125453E+00
         25   -1    0    0    0    0  0.00000000000E+00  0.00000000000E+00  0.99999998245E-14  0.12509000000E+03  0.12509000000E+03 0.  0.
        -13    1    3    3    0    0  0.33149087357E+02  0.13410294434E+01 -0.80158728371E+01  0.34131008393E+02  0.10566000000E+00 0. -1.
         23    2    1    0    0    0 -0.21118395996E+02 -0.25559393444E+01  0.20490523957E+02  0.95553902638E+02  0.90874458798E+02 0.  0.
         13    1    3    3    0    0 -0.54267483353E+02 -0.38969687878E+01  0.28506396794E+02  0.61422894245E+02  0.10566000000E+00 0.  1.
         22    1    1    0    0    0  0.21118395996E+02  0.25559393444E+01 -0.20490523957E+02  0.29536097362E+02  0.00000000000E+00 0.  1.
</event>
<event>
 5    1  0.1261138E-009  0.9118800E+02  0.7561462E-02  0.1125453E+00
         25   -1    0    0    0    0  0.00000000000E+00  0.00000000000E+00  0.99999998245E-14  0.12509000000E+03  0.12509000000E+03 0.  0.
        -13    1    3    3    0    0  0.11384588357E+02 -0.60319440071E+02 -0.40786727905E+01  0.61519837762E+02  0.10566000000E+00 0.  1.
         23    2    1    0    0    0 -0.24550173921E+01 -0.28924403887E+02 -0.87457662874E-01  0.96061464049E+02  0.91570459078E+02 0.  0.
         13    1    3    3    0    0 -0.13839605749E+02  0.31395036184E+02  0.39912151276E+01  0.34541626286E+02  0.10566000000E+00 0. -1.
         22    1    1    0    0    0  0.24550173921E+01  0.28924403887E+02  0.87457662874E-01  0.29028535951E+02  0.00000000000E+00 0.  1.
</event>
<event>
 5    1  0.1261138E-009  0.9118800E+02  0.7561462E-02  0.1125453E+00
         25   -1    0    0    0    0  0.00000000000E+00  0.00000000000E+00  0.99999998245E-14  0.12509000000E+03  0.12509000000E+03 0.  0.
        -13    1    3    3    0    0  0.37055370082E+02 -0.19098743521E+02  0.23988114000E+01  0.41756770902E+02  0.10566000000E+00 0. -1.
         23    2    1    0    0    0 -0.95999114396E+01 -0.13518911344E+02  0.25933511278E+02  0.94309059943E+02  0.89144447480E+02 0.  0.
         13    1    3    3    0    0 -0.46655281522E+02  0.55798321772E+01  0.23534699878E+02  0.52552289041E+02  0.10566000000E+00 0.  1.
         22    1    1    0    0    0  0.95999114396E+01  0.13518911344E+02 -0.25933511278E+02  0.30780940057E+02  0.00000000000E+00 0.  1.
</event>
<event>
 5    1  0.1261138E-009  0.9118800E+02  0.7561462E-02  0.1125453E+00
         25   -1    0    0    0    0  0.00000000000E+00  0.00000000000E+00  0.99999998245E-14  0.12509000000E+03  0.12509000000E+03 0.  0.
        -13    1    3    3    0    0  0.96735103786E+01 -0.47547322172E+01  0.49234950161E+02  0.50401148428E+02  0.10566000000E+00 0.  1.
         23    2    1    0    0    0 -0.18184924813E+02  0.13597532587E+02  0.17804258127E+02  0.96235607087E+02  0.91808039305E+02 0.  0.
         13    1    3    3    0    0 -0.27858435192E+02  0.18352264804E+02 -0.31430692034E+02  0.45834458659E+02  0.10566000000E+00 0. -1.
         22    1    1    0    0    0  0.18184924813E+02 -0.13597532587E+02 -0.17804258127E+02  0.28854392913E+02  0.00000000000E+00 0.  1.
</event>
<event>
 5    1  0.1261138E-009  0.9118800E+02  0.7561462E-02  0.1125453E+00
         25   -1    0    0    0    0  0.00000000000E+00  0.00000000000E+00  0.99999998245E-14  0.12509000000E+03  0.12509000000E+03 0.  0.
        -13    1    3    3    0    0 -0.28188816813E+02 -0.27900460517E+02 -0.45221476655E+02  0.60150130550E+02  0.10566000000E+00 0. -1.
         23    2    1    0    0    0 -0.23332359993E+02 -0.12715974220E+02 -0.14361447603E+02  0.94884930881E+02  0.89948896091E+02 0.  0.
         13    1    3    3    0    0  0.48564568200E+01  0.15184486297E+02  0.30860029052E+02  0.34734800331E+02  0.10566000000E+00 0.  1.
         22    1    1    0    0    0  0.23332359993E+02  0.12715974220E+02  0.14361447603E+02  0.30205069119E+02  0.00000000000E+00 0. -1.
</event>
<event>
 5    1  0.1261138E-009  0.9118800E+02  0.7561462E-02  0.1125453E+00
         25   -1    0    0    0    0  0.00000000000E+00  0.00000000000E+00  0.99999998245E-14  0.12509000000E+03  0.12509000000E+03 0.  0.
        -13    1    3    3    0    0 -0.23645096593E+02 -0.33573880022E+02 -0.85642162858E+01  0.41948217808E+02  0.10566000000E+00 0.  1.
         23    2    1    0    0    0 -0.14531961509E+02  0.90961307643E+01  0.23432650836E+02  0.96055423623E+02  0.91562207171E+02 0.  0.
         13    1    3    3    0    0  0.91131350839E+01  0.42670010786E+02  0.31996867121E+02  0.54107205816E+02  0.10566000000E+00 0. -1.
         22    1    1    0    0    0  0.14531961509E+02 -0.90961307643E+01 -0.23432650836E+02  0.29034576377E+02  0.00000000000E+00 0. -1.
</event>
<event>
 5    1  0.1261138E-009  0.9118800E+02  0.7561462E-02  0.1125453E+00
         25   -1    0    0    0    0  0.00000000000E+00  0.00000000000E+00  0.99999998245E-14  0.12509000000E+03  0.12509000000E+03 0.  0.
        -13    1    3    3    0    0  0.44341636446E+02 -0.28063033980E+02  0.87919173363E+01  0.53207363902E+02  0.10566000000E+00 0.  1.
         23    2    1    0    0    0  0.73176051008E+01 -0.26499641985E+02  0.19032258232E+02  0.91653414900E+02  0.85336646522E+02 0.  0.
         13    1    3    3    0    0 -0.37024031346E+02  0.15633919947E+01  0.10240340896E+02  0.38446050998E+02  0.10566000000E+00 0. -1.
         22    1    1    0    0    0 -0.73176051008E+01  0.26499641985E+02 -0.19032258232E+02  0.33436585100E+02  0.00000000000E+00 0. -1.
</event>
<event>
 5    1  0.1261138E-009  0.9118800E+02  0.7561462E-02  0.1125453E+00
         25   -1    0    0    0    0  0.00000000000E+00  0.00000000000E+00  0.99999998245E-14  0.12509000000E+03  0.12509000000E+03 0.  0.
        -13    1    3    3    0    0  0.54963303075E+01 -0.16267644857E+02  0.36295000530E+02  0.40152012945E+02  0.10566000000E+00 0.  1.
         23    2    1    0    0    0 -0.22435787842E+02  0.10709874024E+02 -0.79190592306E+01  0.98998287201E+02  0.95498080567E+02 0.  0.
         13    1    3    3    0    0 -0.27932118149E+02  0.26977518881E+02 -0.44214059761E+02  0.58846274256E+02  0.10566000000E+00 0. -1.
         22    1    1    0    0    0  0.22435787842E+02 -0.10709874024E+02  0.79190592306E+01  0.26091712799E+02  0.00000000000E+00 0. -1.
</event>
<event>
 5    1  0.1261138E-009  0.9118800E+02  0.7561462E-02  0.1125453E+00
         25   -1    0    0    0    0  0.00000000000E+00  0.00000000000E+00  0.99999998245E-14  0.12509000000E+03  0.12509000000E+03 0.  0.
        -13    1    3    3    0    0 -0.12120722401E+02 -0.30177796220E+02  0.15591741717E+02  0.36065563492E+02  0.10566000000E+00 0.  1.
         23    2    1    0    0    0  0.13581975247E+01  0.10467542215E+02 -0.26778353979E+02  0.96306421655E+02  0.91904474698E+02 0.  0.
         13    1    3    3    0    0  0.13478919926E+02  0.40645338435E+02 -0.42370095695E+02  0.60240858163E+02  0.10566000000E+00 0. -1.
         22    1    1    0    0    0 -0.13581975247E+01 -0.10467542215E+02  0.26778353979E+02  0.28783578345E+02  0.00000000000E+00 0. -1.
</event>
<event>
 5    1  0.1261138E-009  0.9118800E+02  0.7561462E-02  0.1125453E+00
         25   -1    0    0    0    0  0.00000000000E+00  0.00000000000E+00  0.99999998245E-14  0.12509000000E+03  0.12509000000E+03 0.  0.
        -13    1    3    3    0    0 -0.36999962185E+02 -0.32101646375E+02  0.30833658003E+02  0.57881245076E+02  0.10566000000E+00 0.  1.
         23    2    1    0    0    0 -0.27472609780E+02 -0.15277101799E+02  0.74526717600E+00  0.93646565858E+02  0.88209918639E+02 0.  0.
         13    1    3    3    0    0  0.95273524050E+01  0.16824544576E+02 -0.30088390827E+02  0.35765320782E+02  0.10566000000E+00 0. -1.
         22    1    1    0    0    0  0.27472609780E+02  0.15277101799E+02 -0.74526717600E+00  0.31443434142E+02  0.00000000000E+00 0.  1.
</event>
<event>
 5    1  0.1261138E-009  0.9118800E+02  0.7561462E-02  0.1125453E+00
         25   -1    0    0    0    0  0.00000000000E+00  0.00000000000E+00  0.99999998245E-14  0.12509000000E+03  0.12509000000E+03 0.  0.
        -13    1    3    3    0    0 -0.25766639599E+02  0.18144129288E+02 -0.13733010790E+02  0.34376385692E+02  0.10566000000E+00 0.  1.
         23    2    1    0    0    0  0.21158393919E+02 -0.40713491200E+01  0.19508011494E+02  0.96024280856E+02  0.91519650811E+02 0.  0.
         13    1    3    3    0    0  0.46925033519E+02 -0.22215478408E+02  0.33241022284E+02  0.61647895164E+02  0.10566000000E+00 0. -1.
         22    1    1    0    0    0 -0.21158393919E+02  0.40713491200E+01 -0.19508011494E+02  0.29065719144E+02  0.00000000000E+00 0. -1.
</event>
<event>
 5    1  0.1261138E-009  0.9118800E+02  0.7561462E-02  0.1125453E+00
         25   -1    0    0    0    0  0.00000000000E+00  0.00000000000E+00  0.99999998245E-14  0.12509000000E+03  0.12509000000E+03 0.  0.
        -13    1    3    3    0    0 -0.14864192000E+02 -0.27196073912E+02 -0.48171885843E+02  0.57280995014E+02  0.10566000000E+00 0.  1.
         23    2    1    0    0    0  0.83672797273E+01 -0.47623641677E+01 -0.28292524929E+02  0.95204243370E+02  0.90391866372E+02 0.  0.
         13    1    3    3    0    0  0.23231471727E+02  0.22433709744E+02  0.19879360914E+02  0.37923248356E+02  0.10566000000E+00 0. -1.
         22    1    1    0    0    0 -0.83672797273E+01  0.47623641677E+01  0.28292524929E+02  0.29885756630E+02  0.00000000000E+00 0.  1.
</event>
<event>
 5    1  0.1261138E-009  0.9118800E+02  0.7561462E-02  0.1125453E+00
         25   -1    0    0    0    0  0.00000000000E+00  0.00000000000E+00  0.99999998245E-14  0.12509000000E+03  0.12509000000E+03 0.  0.
        -13    1    3    3    0    0 -0.31665348563E+02 -0.20099024248E+02  0.27269866531E+01  0.37604689808E+02  0.10566000000E+00 0.  1.
         23    2    1    0    0    0  0.22511545581E+02  0.54937116153E+01 -0.11548439965E+02  0.99199518789E+02  0.95761304871E+02 0.  0.
         13    1    3    3    0    0  0.54176894143E+02  0.25592735863E+02 -0.14275426618E+02  0.61594828981E+02  0.10566000000E+00 0. -1.
         22    1    1    0    0    0 -0.22511545581E+02 -0.54937116153E+01  0.11548439965E+02  0.25890481211E+02  0.00000000000E+00 0. -1.
</event>
<event>
 5    1  0.1261138E-009  0.9118800E+02  0.7561462E-02  0.1125453E+00
         25   -1    0    0    0    0  0.00000000000E+00  0.00000000000E+00  0.99999998245E-14  0.12509000000E+03  0.12509000000E+03 0.  0.
        -13    1    3    3    0    0  0.13133192621E+02  0.28910189739E+02  0.18261132098E+02  0.36630041342E+02  0.10566000000E+00 0.  1.
         23    2    1    0    0    0  0.11384087494E+02 -0.20040981958E+02 -0.16543550438E+02  0.96718756336E+02  0.92463994940E+02 0.  0.
         13    1    3    3    0    0 -0.17491051267E+01 -0.48951171696E+02 -0.34804682537E+02  0.60088714995E+02  0.10566000000E+00 0. -1.
         22    1    1    0    0    0 -0.11384087494E+02  0.20040981958E+02  0.16543550438E+02  0.28371243664E+02  0.00000000000E+00 0. -1.
</event>
<event>
 5    1  0.1261138E-009  0.9118800E+02  0.7561462E-02  0.1125453E+00
         25   -1    0    0    0    0  0.00000000000E+00  0.00000000000E+00  0.99999998245E-14  0.12509000000E+03  0.12509000000E+03 0.  0.
        -13    1    3    3    0    0 -0.26980894635E+02  0.23996158291E+02 -0.42324217993E+02  0.55633936413E+02  0.10566000000E+00 0.  1.
         23    2    1    0    0    0 -0.34011228124E+01  0.27133805570E+02 -0.95640116879E+01  0.96119646866E+02  0.91649905363E+02 0.  0.
         13    1    3    3    0    0  0.23579771823E+02  0.31376472798E+01  0.32760206306E+02  0.40485710453E+02  0.10566000000E+00 0. -1.
         22    1    1    0    0    0  0.34011228124E+01 -0.27133805570E+02  0.95640116879E+01  0.28970353134E+02  0.00000000000E+00 0.  1.
</event>
<event>
 5    1  0.1261138E-009  0.9118800E+02  0.7561462E-02  0.1125453E+00
         25   -1    0    0    0    0  0.00000000000E+00  0.00000000000E+00  0.99999998245E-14  0.12509000000E+03  0.12509000000E+03 0.  0.
        -13    1    3    3    0    0 -0.36759662144E+01  0.35035375180E+02 -0.23320472924E+02  0.42247436171E+02  0.10566000000E+00 0. -1.
         23    2    1    0    0    0 -0.23234966339E+02 -0.10737153799E+02  0.42413100528E+01  0.99145080585E+02  0.95690167524E+02 0.  0.
         13    1    3    3    0    0 -0.19559000125E+02 -0.45772528978E+02  0.27561782977E+02  0.56897644414E+02  0.10566000000E+00 0.  1.
         22    1    1    0    0    0  0.23234966339E+02  0.10737153799E+02 -0.42413100528E+01  0.25944919415E+02  0.00000000000E+00 0.  1.
</event>
<event>
 5    1  0.1261138E-009  0.9118800E+02  0.7561462E-02  0.1125453E+00
         25   -1    0    0    0    0  0.00000000000E+00  0.00000000000E+00  0.99999998245E-14  0.12509000000E+03  0.12509000000E+03 0.  0.
        -13    1    3    3    0    0 -0.25634370794E+02 -0.33473454922E+02  0.43389019792E+02  0.60499680602E+02  0.10566000000E+00 0.  1.
         23    2    1    0    0    0 -0.64769919528E+01 -0.23893667885E+02  0.14713988033E+02  0.96291384867E+02  0.91884006040E+02 0.  0.
         13    1    3    3    0    0  0.19157378841E+02  0.95797870367E+01 -0.28675031760E+02  0.35791704265E+02  0.10566000000E+00 0. -1.
         22    1    1    0    0    0  0.64769919528E+01  0.23893667885E+02 -0.14713988033E+02  0.28798615133E+02  0.00000000000E+00 0.  1.
</event>
<event>
 5    1  0.1261138E-009  0.9118800E+02  0.7561462E-02  0.1125453E+00
         25   -1    0    0    0    0  0.00000000000E+00  0.00000000000E+00  0.99999998245E-14  0.12509000000E+03  0.12509000000E+03 0.  0.
        -13    1    3    3    0    0 -0.14164270875E+02 -0.25655577739E+02  0.26250663194E+02  0.39343915930E+02  0.10566000000E+00 0. -1.
         23    2    1    0    0    0  0.10108743783E+01  0.26849448127E+02  0.10721039245E+02  0.96161546633E+02  0.91707075172E+02 0.  0.
         13    1    3    3    0    0  0.15175145253E+02  0.52505025866E+02 -0.15529623949E+02  0.56817630703E+02  0.10566000000E+00 0.  1.
         22    1    1    0    0    0 -0.10108743783E+01 -0.26849448127E+02 -0.10721039245E+02  0.28928453367E+02  0.00000000000E+00 0. -1.
</event>
<event>
 5    1  0.1261138E-009  0.9118800E+02  0.7561462E-02  0.1125453E+00
         25   -1    0    0    0    0  0.00000000000E+00  0.00000000000E+00  0.99999998245E-14  0.12509000000E+03  0.12509000000E+03 0.  0.
        -13    1    3    3    0    0  0.29431003817E+02 -0.96113071688E+01 -0.39274790542E+02  0.50010814304E+02  0.10566000000E+00 0. -1.
         23    2    1    0    0    0  0.27007519252E+02 -0.12895752802E+02  0.52347844987E+01  0.94707282787E+02  0.89701504490E+02 0.  0.
         13    1    3    3    0    0 -0.24234845645E+01 -0.32844456330E+01  0.44509575041E+02  0.44696468483E+02  0.10566000000E+00 0.  1.
         22    1    1    0    0    0 -0.27007519252E+02  0.12895752802E+02 -0.52347844987E+01  0.30382717213E+02  0.00000000000E+00 0. -1.
</event>
<event>
 5    1  0.1261138E-009  0.9118800E+02  0.7561462E-02  0.1125453E+00
         25   -1    0    0    0    0  0.00000000000E+00  0.00000000000E+00  0.99999998245E-14  0.12509000000E+03  0.12509000000E+03 0.  0.
        -13    1    3    3    0    0  0.40354250270E+02  0.24755932040E+02 -0.31693931177E+00  0.47343777844E+02  0.10566000000E+00 0.  1.
         23    2    1    0    0    0  0.11191007191E+02 -0.21780284551E+01 -0.27408286944E+02  0.95405043489E+02  0.90669320500E+02 0.  0.
         13    1    3    3    0    0 -0.29163243079E+02 -0.26933960495E+02 -0.27091347632E+02  0.48061265645E+02  0.10566000000E+00 0. -1.
         22    1    1    0    0    0 -0.11191007191E+02  0.21780284551E+01  0.27408286944E+02  0.29684956511E+02  0.00000000000E+00 0. -1.
</event>
<event>
 5    1  0.1261138E-009  0.9118800E+02  0.7561462E-02  0.1125453E+00
         25   -1    0    0    0    0  0.00000000000E+00  0.00000000000E+00  0.99999998245E-14  0.12509000000E+03  0.12509000000E+03 0.  0.
        -13    1    3    3    0    0  0.20754705880E+02 -0.53418334749E+02 -0.18809560607E+02  0.60316556912E+02  0.10566000000E+00 0. -1.
         23    2    1    0    0    0 -0.11220515320E+01 -0.17268574240E+02 -0.13975762122E+02  0.10284624621E+03  0.10041198024E+03 0.  0.
         13    1    3    3    0    0 -0.21876757412E+02  0.36149760508E+02  0.48337984852E+01  0.42529689295E+02  0.10566000000E+00 0.  1.
         22    1    1    0    0    0  0.11220515320E+01  0.17268574240E+02  0.13975762122E+02  0.22243753793E+02  0.00000000000E+00 0. -1.
</event>
<event>
 5    1  0.1261138E-009  0.9118800E+02  0.7561462E-02  0.1125453E+00
         25   -1    0    0    0    0  0.00000000000E+00  0.00000000000E+00  0.99999998245E-14  0.12509000000E+03  0.12509000000E+03 0.  0.
        -13    1    3    3    0    0 -0.31054678674E+02  0.16763682714E+02 -0.25283776811E+02  0.43413070146E+02  0.10566000000E+00 0.  1.
         23    2    1    0    0    0  0.53950252612E+01  0.26064701719E+02  0.11562433088E+02  0.96069923636E+02  0.91582014584E+02 0.  0.
         13    1    3    3    0    0  0.36449703935E+02  0.93010190046E+01  0.36846209899E+02  0.52656853490E+02  0.10566000000E+00 0. -1.
         22    1    1    0    0    0 -0.53950252612E+01 -0.26064701719E+02 -0.11562433088E+02  0.29020076364E+02  0.00000000000E+00 0. -1.
</event>
<event>
 5    1  0.1261138E-009  0.9118800E+02  0.7561462E-02  0.1125453E+00
         25   -1    0    0    0    0  0.00000000000E+00  0.00000000000E+00  0.99999998245E-14  0.12509000000E+03  0.12509000000E+03 0.  0.
        -13    1    3    3    0    0 -0.41524813189E+02  0.19231434712E+02  0.94629663014E+01  0.46730258792E+02  0.10566000000E+00 0.  1.
         23    2    1    0    0    0 -0.72870219535E+01  0.13657073647E+02 -0.25036940961E+02  0.95654226488E+02  0.91012451252E+02 0.  0.
         13    1    3    3    0    0  0.34237791236E+02 -0.55743610654E+01 -0.34499907262E+02  0.48923967696E+02  0.10566000000E+00 0. -1.
         22    1    1    0    0    0  0.72870219535E+01 -0.13657073647E+02  0.25036940961E+02  0.29435773512E+02  0.00000000000E+00 0.  1.
</event>
<event>
 5    1  0.1261138E-009  0.9118800E+02  0.7561462E-02  0.1125453E+00
         25   -1    0    0    0    0  0.00000000000E+00  0.00000000000E+00  0.99999998245E-14  0.12509000000E+03  0.12509000000E+03 0.  0.
        -13    1    3    3    0    0 -0.17529667349E+02  0.19536355684E+02 -0.33237865777E+02  0.42352394457E+02  0.10566000000E+00 0.  1.
         23    2    1    0    0    0 -0.16331993686E+02 -0.24521164497E+02 -0.37291108767E+01  0.95392730866E+02  0.90652332061E+02 0.  0.
         13    1    3    3    0    0  0.11976736628E+01 -0.44057520181E+02  0.29508754900E+02  0.53040336410E+02  0.10566000000E+00 0. -1.
         22    1    1    0    0    0  0.16331993686E+02  0.24521164497E+02  0.37291108767E+01  0.29697269134E+02  0.00000000000E+00 0.  1.
</event>
<event>
 5    1  0.1261138E-009  0.9118800E+02  0.7561462E-02  0.1125453E+00
         25   -1    0    0    0    0  0.00000000000E+00  0.00000000000E+00  0.99999998245E-14  0.12509000000E+03  0.12509000000E+03 0.  0.
        -13    1    3    3    0    0 -0.14535686853E+02  0.18157907053E+02 -0.24107990165E+02  0.33499285585E+02  0.10566000000E+00 0.  1.
         23    2    1    0    0    0 -0.20779948131E+01 -0.20161758193E+02  0.22297437860E+02  0.94957122756E+02  0.90049235816E+02 0.  0.
         13    1    3    3    0    0  0.12457692040E+02 -0.38319665246E+02  0.46405428025E+02  0.61457837171E+02  0.10566000000E+00 0. -1.
         22    1    1    0    0    0  0.20779948131E+01  0.20161758193E+02 -0.22297437860E+02  0.30132877244E+02  0.00000000000E+00 0. -1.
</event>
<event>
 5    1  0.1261138E-009  0.9118800E+02  0.7561462E-02  0.1125453E+00
         25   -1    0    0    0    0  0.00000000000E+00  0.00000000000E+00  0.99999998245E-14  0.12509000000E+03  0.12509000000E+03 0.  0.
        -13    1    3    3    0    0  0.23692438588E+01 -0.78275061568E+01 -0.48326372047E+02  0.49013595750E+02  0.10566000000E+00 0.  1.
         23    2    1    0    0    0 -0.26471526490E+02 -0.42055779660E+01 -0.11515078316E+02  0.95917656430E+02  0.91373799230E+02 0.  0.
         13    1    3    3    0    0 -0.28840770349E+02  0.36219281909E+01  0.36811293731E+02  0.46904060681E+02  0.10566000000E+00 0. -1.
         22    1    1    0    0    0  0.26471526490E+02  0.42055779660E+01  0.11515078316E+02  0.29172343570E+02  0.00000000000E+00 0.  1.
</event>
<event>
 5    1  0.1261138E-009  0.9118800E+02  0.7561462E-02  0.1125453E+00
         25   -1    0    0    0    0  0.00000000000E+00  0.00000000000E+00  0.99999998245E-14  0.12509000000E+03  0.12509000000E+03 0.  0.
        -13    1    3    3    0    0 -0.38098241357E+02  0.46868314102E+02 -0.15709825073E+02  0.62409331266E+02  0.10566000000E+00 0. -1.
         23    2    1    0    0    0 -0.15194799137E+02  0.21825565383E+02 -0.47268882638E+01  0.98079248479E+02  0.94286575314E+02 0.  0.
         13    1    3    3    0    0  0.22903442220E+02 -0.25042748719E+02  0.10982936809E+02  0.35669917212E+02  0.10566000000E+00 0.  1.
         22    1    1    0    0    0  0.15194799137E+02 -0.21825565383E+02  0.47268882638E+01  0.27010751521E+02  0.00000000000E+00 0. -1.
</event>
<event>
 5    1  0.1261138E-009  0.9118800E+02  0.7561462E-02  0.1125453E+00
         25   -1    0    0    0    0  0.00000000000E+00  0.00000000000E+00  0.99999998245E-14  0.12509000000E+03  0.12509000000E+03 0.  0.
        -13    1    3    3    0    0  0.32428849164E+02  0.14250250463E+02  0.15867565293E+02  0.38813537441E+02  0.10566000000E+00 0.  1.
         23    2    1    0    0    0 -0.11728031290E+02  0.10820423051E+02 -0.22564487954E+02  0.97453350609E+02  0.93452507485E+02 0.  0.
         13    1    3    3    0    0 -0.44156880454E+02 -0.34298274119E+01 -0.38432053248E+02  0.58639813168E+02  0.10566000000E+00 0. -1.
         22    1    1    0    0    0  0.11728031290E+02 -0.10820423051E+02  0.22564487954E+02  0.27636649391E+02  0.00000000000E+00 0. -1.
</event>
<event>
 5    1  0.1261138E-009  0.9118800E+02  0.7561462E-02  0.1125453E+00
         25   -1    0    0    0    0  0.00000000000E+00  0.00000000000E+00  0.99999998245E-14  0.12509000000E+03  0.12509000000E+03 0.  0.
        -13    1    3    3    0    0  0.52307215590E+02 -0.23812044502E+02  0.11135077463E+02  0.58541091382E+02  0.10566000000E+00 0. -1.
         23    2    1    0    0    0  0.20454054875E+02 -0.55295095410E+01  0.19594804083E+02  0.96229989888E+02  0.91800385458E+02 0.  0.
         13    1    3    3    0    0 -0.31853160714E+02  0.18282534960E+02  0.84597266193E+01  0.37688898506E+02  0.10566000000E+00 0.  1.
         22    1    1    0    0    0 -0.20454054875E+02  0.55295095410E+01 -0.19594804083E+02  0.28860010112E+02  0.00000000000E+00 0. -1.
</event>
<event>
 5    1  0.1261138E-009  0.9118800E+02  0.7561462E-02  0.1125453E+00
         25   -1    0    0    0    0  0.00000000000E+00  0.00000000000E+00  0.99999998245E-14  0.12509000000E+03  0.12509000000E+03 0.  0.
        -13    1    3    3    0    0  0.38650014545E+02  0.86063395466E+01  0.61587758945E+01  0.40072863503E+02  0.10566000000E+00 0. -1.
         23    2    1    0    0    0 -0.29322558360E+01 -0.28329670465E+02 -0.30427394976E+01  0.96446909793E+02  0.92095492789E+02 0.  0.
         13    1    3    3    0    0 -0.41582270381E+02 -0.36936010011E+02 -0.92015153922E+01  0.56374046291E+02  0.10566000000E+00 0.  1.
         22    1    1    0    0    0  0.29322558360E+01  0.28329670465E+02  0.30427394976E+01  0.28643090207E+02  0.00000000000E+00 0.  1.
</event>
<event>
 5    1  0.1261138E-009  0.9118800E+02  0.7561462E-02  0.1125453E+00
         25   -1    0    0    0    0  0.00000000000E+00  0.00000000000E+00  0.99999998245E-14  0.12509000000E+03  0.12509000000E+03 0.  0.
        -13    1    3    3    0    0 -0.26374365343E+02  0.49525341904E+02  0.44196057299E+01  0.56284195977E+02  0.10566000000E+00 0.  1.
         23    2    1    0    0    0 -0.16763950250E+02  0.17694491725E+02 -0.16580306544E+02  0.95610657563E+02  0.90952549218E+02 0.  0.
         13    1    3    3    0    0  0.96104150930E+01 -0.31830850179E+02 -0.20999912274E+02  0.39326461586E+02  0.10566000000E+00 0. -1.
         22    1    1    0    0    0  0.16763950250E+02 -0.17694491725E+02  0.16580306544E+02  0.29479342437E+02  0.00000000000E+00 0.  1.
</event>
<event>
 5    1  0.1261138E-009  0.9118800E+02  0.7561462E-02  0.1125453E+00
         25   -1    0    0    0    0  0.00000000000E+00  0.00000000000E+00  0.99999998245E-14  0.12509000000E+03  0.12509000000E+03 0.  0.
        -13    1    3    3    0    0  0.25005957975E+02 -0.41238410898E+02  0.18898062808E+02  0.51798189250E+02  0.10566000000E+00 0.  1.
         23    2    1    0    0    0 -0.13766184352E+02 -0.25428388138E+02  0.86995664600E+01  0.94894086178E+02  0.89961627264E+02 0.  0.
         13    1    3    3    0    0 -0.38772142327E+02  0.15810022759E+02 -0.10198496348E+02  0.43095896929E+02  0.10566000000E+00 0. -1.
         22    1    1    0    0    0  0.13766184352E+02  0.25428388138E+02 -0.86995664600E+01  0.30195913822E+02  0.00000000000E+00 0.  1.
</event>
<event>
 5    1  0.1261138E-009  0.9118800E+02  0.7561462E-02  0.1125453E+00
         25   -1    0    0    0    0  0.00000000000E+00  0.00000000000E+00  0.99999998245E-14  0.12509000000E+03  0.12509000000E+03 0.  0.
        -13    1    3    3    0    0  0.27378690081E+02  0.37363273747E+02 -0.19645599105E+02  0.50314685966E+02  0.10566000000E+00 0.  1.
         23    2    1    0    0    0  0.10741797736E+02  0.98146362898E+01 -0.35888514166E+02  0.86364055813E+02  0.77194892210E+02 0.  0.
         13    1    3    3    0    0 -0.16636892345E+02 -0.27548637457E+02 -0.16242915061E+02  0.36049369847E+02  0.10566000000E+00 0. -1.
         22    1    1    0    0    0 -0.10741797736E+02 -0.98146362898E+01  0.35888514166E+02  0.38725944187E+02  0.00000000000E+00 0.  1.
</event>
<event>
 5    1  0.1261138E-009  0.9118800E+02  0.7561462E-02  0.1125453E+00
         25   -1    0    0    0    0  0.00000000000E+00  0.00000000000E+00  0.99999998245E-14  0.12509000000E+03  0.12509000000E+03 0.  0.
        -13    1    3    3    0    0  0.49560967568E+01  0.20762442241E+02  0.48560470578E+02  0.53045003248E+02  0.10566000000E+00 0.  1.
         23    2    1    0    0    0  0.19015196793E+02 -0.84241339327E+01  0.17895097807E+02  0.97653195027E+02  0.93719625649E+02 0.  0.
         13    1    3    3    0    0  0.14059100036E+02 -0.29186576173E+02 -0.30665372771E+02  0.44608191779E+02  0.10566000000E+00 0. -1.
         22    1    1    0    0    0 -0.19015196793E+02  0.84241339327E+01 -0.17895097807E+02  0.27436804973E+02  0.00000000000E+00 0.  1.
</event>
<event>
 5    1  0.1261138E-009  0.9118800E+02  0.7561462E-02  0.1125453E+00
         25   -1    0    0    0    0  0.00000000000E+00  0.00000000000E+00  0.99999998245E-14  0.12509000000E+03  0.12509000000E+03 0.  0.
        -13    1    3    3    0    0  0.24995371508E+02  0.38701121007E+02 -0.23144563437E+02  0.51557999813E+02  0.10566000000E+00 0.  1.
         23    2    1    0    0    0  0.28813066813E+02  0.33248050470E+01  0.33112045691E+01  0.95897342988E+02  0.91345986056E+02 0.  0.
         13    1    3    3    0    0  0.38176953044E+01 -0.35376315960E+02  0.26455768006E+02  0.44339343174E+02  0.10566000000E+00 0. -1.
         22    1    1    0    0    0 -0.28813066813E+02 -0.33248050470E+01 -0.33112045691E+01  0.29192657012E+02  0.00000000000E+00 0. -1.
</event>
<event>
 5    1  0.1261138E-009  0.9118800E+02  0.7561462E-02  0.1125453E+00
         25   -1    0    0    0    0  0.00000000000E+00  0.00000000000E+00  0.99999998245E-14  0.12509000000E+03  0.12509000000E+03 0.  0.
        -13    1    3    3    0    0  0.13015902002E+02 -0.39412339251E+02 -0.24460494391E+02  0.48177516956E+02  0.10566000000E+00 0. -1.
         23    2    1    0    0    0 -0.14341336204E+02 -0.25862302252E+02  0.96765676991E+01  0.93974592815E+02  0.88673871746E+02 0.  0.
         13    1    3    3    0    0 -0.27357238206E+02  0.13550037000E+02  0.34137062090E+02  0.45797075858E+02  0.10566000000E+00 0.  1.
         22    1    1    0    0    0  0.14341336204E+02  0.25862302252E+02 -0.96765676991E+01  0.31115407185E+02  0.00000000000E+00 0. -1.
</event>
<event>
 5    1  0.1261138E-009  0.9118800E+02  0.7561462E-02  0.1125453E+00
         25   -1    0    0    0    0  0.00000000000E+00  0.00000000000E+00  0.99999998245E-14  0.12509000000E+03  0.12509000000E+03 0.  0.
        -13    1    3    3    0    0  0.85313615064E+00  0.12806060503E+02  0.52398229262E+02  0.53947276305E+02  0.10566000000E+00 0. -1.
         23    2    1    0    0    0  0.51876716955E+00 -0.15606225659E+02  0.33661218955E+02  0.87983382528E+02  0.79775776655E+02 0.  0.
         13    1    3    3    0    0 -0.33436898109E+00 -0.28412286161E+02 -0.18737010308E+02  0.34036106223E+02  0.10566000000E+00 0.  1.
         22    1    1    0    0    0 -0.51876716955E+00  0.15606225659E+02 -0.33661218955E+02  0.37106617472E+02  0.00000000000E+00 0. -1.
</event>
<event>
 5    1  0.1261138E-009  0.9118800E+02  0.7561462E-02  0.1125453E+00
         25   -1    0    0    0    0  0.00000000000E+00  0.00000000000E+00  0.99999998245E-14  0.12509000000E+03  0.12509000000E+03 0.  0.
        -13    1    3    3    0    0 -0.23250986360E+02 -0.79299080340E+01  0.37097430237E+02  0.44494070418E+02  0.10566000000E+00 0.  1.
         23    2    1    0    0    0  0.22851199959E+02  0.48243568983E+01  0.16037157085E+02  0.96759059910E+02  0.92518503599E+02 0.  0.
         13    1    3    3    0    0  0.46102186319E+02  0.12754264932E+02 -0.21060273152E+02  0.52264989492E+02  0.10566000000E+00 0. -1.
         22    1    1    0    0    0 -0.22851199959E+02 -0.48243568983E+01 -0.16037157085E+02  0.28330940090E+02  0.00000000000E+00 0. -1.
</event>
<event>
 5    1  0.1261138E-009  0.9118800E+02  0.7561462E-02  0.1125453E+00
         25   -1    0    0    0    0  0.00000000000E+00  0.00000000000E+00  0.99999998245E-14  0.12509000000E+03  0.12509000000E+03 0.  0.
        -13    1    3    3    0    0 -0.35538385245E+02 -0.27572904466E+02 -0.21979847626E+02  0.50063627038E+02  0.10566000000E+00 0.  1.
         23    2    1    0    0    0  0.80283715345E+01 -0.24863468459E+02 -0.16815195889E+02  0.94019151507E+02  0.88736707309E+02 0.  0.
         13    1    3    3    0    0  0.43566756779E+02  0.27094360067E+01  0.51646517373E+01  0.43955524469E+02  0.10566000000E+00 0. -1.
         22    1    1    0    0    0 -0.80283715345E+01  0.24863468459E+02  0.16815195889E+02  0.31070848493E+02  0.00000000000E+00 0. -1.
</event>
<event>
 5    1  0.1261138E-009  0.9118800E+02  0.7561462E-02  0.1125453E+00
         25   -1    0    0    0    0  0.00000000000E+00  0.00000000000E+00  0.99999998245E-14  0.12509000000E+03  0.12509000000E+03 0.  0.
        -13    1    3    3    0    0  0.45589932550E+01 -0.38433115338E+02  0.11648764312E+02  0.40417739275E+02  0.10566000000E+00 0.  1.
         23    2    1    0    0    0 -0.13257421384E+02  0.11547332448E+02  0.24425136159E+02  0.94995359534E+02  0.90102335975E+02 0.  0.
         13    1    3    3    0    0 -0.17816414639E+02  0.49980447786E+02  0.12776371847E+02  0.54577620258E+02  0.10566000000E+00 0. -1.
         22    1    1    0    0    0  0.13257421384E+02 -0.11547332448E+02 -0.24425136159E+02  0.30094640466E+02  0.00000000000E+00 0. -1.
</event>
<event>
 5    1  0.1261138E-009  0.9118800E+02  0.7561462E-02  0.1125453E+00
         25   -1    0    0    0    0  0.00000000000E+00  0.00000000000E+00  0.99999998245E-14  0.12509000000E+03  0.12509000000E+03 0.  0.
        -13    1    3    3    0    0  0.13864310587E+02  0.80017353696E+01  0.38040172557E+02  0.41271209931E+02  0.10566000000E+00 0. -1.
         23    2    1    0    0    0 -0.26462236586E+02  0.28262787710E+01 -0.20867075468E+01  0.98395578014E+02  0.94705319848E+02 0.  0.
         13    1    3    3    0    0 -0.40326547173E+02 -0.51754565986E+01 -0.40126880104E+02  0.57124368082E+02  0.10566000000E+00 0.  1.
         22    1    1    0    0    0  0.26462236586E+02 -0.28262787710E+01  0.20867075468E+01  0.26694421986E+02  0.00000000000E+00 0.  1.
</event>
<event>
 5    1  0.1261138E-009  0.9118800E+02  0.7561462E-02  0.1125453E+00
         25   -1    0    0    0    0  0.00000000000E+00  0.00000000000E+00  0.99999998245E-14  0.12509000000E+03  0.12509000000E+03 0.  0.
        -13    1    3    3    0    0  0.30507880433E+02 -0.11794038568E+02 -0.19970784777E+01  0.32769339339E+02  0.10566000000E+00 0. -1.
         23    2    1    0    0    0 -0.23451562657E+02  0.18967276124E+02  0.36187365623E+00  0.94926042913E+02  0.90006051553E+02 0.  0.
         13    1    3    3    0    0 -0.53959443089E+02  0.30761314692E+02  0.23589521340E+01  0.62156703574E+02  0.10566000000E+00 0.  1.
         22    1    1    0    0    0  0.23451562657E+02 -0.18967276124E+02 -0.36187365623E+00  0.30163957087E+02  0.00000000000E+00 0.  1.
</event>
<event>
 5    1  0.1261138E-009  0.9118800E+02  0.7561462E-02  0.1125453E+00
         25   -1    0    0    0    0  0.00000000000E+00  0.00000000000E+00  0.99999998245E-14  0.12509000000E+03  0.12509000000E+03 0.  0.
        -13    1    3    3    0    0  0.16450996683E+02  0.49006736491E+02 -0.26077259171E+02  0.57899310214E+02  0.10566000000E+00 0. -1.
         23    2    1    0    0    0 -0.72024265693E+01  0.21460859179E+02 -0.20338695808E+02  0.94658010707E+02  0.89632767549E+02 0.  0.
         13    1    3    3    0    0 -0.23653423252E+02 -0.27545877312E+02  0.57385633628E+01  0.36758700493E+02  0.10566000000E+00 0.  1.
         22    1    1    0    0    0  0.72024265693E+01 -0.21460859179E+02  0.20338695808E+02  0.30431989293E+02  0.00000000000E+00 0. -1.
</event>
<event>
 5    1  0.1261138E-009  0.9118800E+02  0.7561462E-02  0.1125453E+00
         25   -1    0    0    0    0  0.00000000000E+00  0.00000000000E+00  0.99999998245E-14  0.12509000000E+03  0.12509000000E+03 0.  0.
        -13    1    3    3    0    0  0.53108257527E+02 -0.79891960240E+01 -0.27917593490E+02  0.60528649918E+02  0.10566000000E+00 0.  1.
         23    2    1    0    0    0  0.19110415781E+02 -0.93629060194E+01 -0.20883814700E+02  0.95273801099E+02  0.90488073573E+02 0.  0.
         13    1    3    3    0    0 -0.33997841745E+02 -0.13737099955E+01  0.70337787902E+01  0.34745151181E+02  0.10566000000E+00 0. -1.
         22    1    1    0    0    0 -0.19110415781E+02  0.93629060194E+01  0.20883814700E+02  0.29816198901E+02  0.00000000000E+00 0.  1.
</event>
<event>
 5    1  0.1261138E-009  0.9118800E+02  0.7561462E-02  0.1125453E+00
         25   -1    0    0    0    0  0.00000000000E+00  0.00000000000E+00  0.99999998245E-14  0.12509000000E+03  0.12509000000E+03 0.  0.
        -13    1    3    3    0    0  0.16604201101E+02 -0.32883121940E+02  0.32550869876E+02  0.49158615689E+02  0.10566000000E+00 0.  1.
         23    2    1    0    0    0  0.65439444953E+01 -0.25816683251E+02 -0.12364799582E+02  0.95726542909E+02  0.91111790702E+02 0.  0.
         13    1    3    3    0    0 -0.10060256605E+02  0.70664386884E+01 -0.44915669458E+02  0.46567927220E+02  0.10566000000E+00 0. -1.
         22    1    1    0    0    0 -0.65439444953E+01  0.25816683251E+02  0.12364799582E+02  0.29363457091E+02  0.00000000000E+00 0.  1.
</event>
<event>
 5    1  0.1261138E-009  0.9118800E+02  0.7561462E-02  0.1125453E+00
         25   -1    0    0    0    0  0.00000000000E+00  0.00000000000E+00  0.99999998245E-14  0.12509000000E+03  0.12509000000E+03 0.  0.
        -13    1    3    3    0    0  0.40233006637E+02  0.22526021304E+01  0.13158472430E+02  0.42390159237E+02  0.10566000000E+00 0. -1.
         23    2    1    0    0    0  0.55879186999E+01 -0.12553683241E+01 -0.28118740304E+02  0.96393931605E+02  0.92023506285E+02 0.  0.
         13    1    3    3    0    0 -0.34645087937E+02 -0.35079704545E+01 -0.41277212734E+02  0.54003772368E+02  0.10566000000E+00 0.  1.
         22    1    1    0    0    0 -0.55879186999E+01  0.12553683241E+01  0.28118740304E+02  0.28696068395E+02  0.00000000000E+00 0.  1.
</event>
<event>
 5    1  0.1261138E-009  0.9118800E+02  0.7561462E-02  0.1125453E+00
         25   -1    0    0    0    0  0.00000000000E+00  0.00000000000E+00  0.99999998245E-14  0.12509000000E+03  0.12509000000E+03 0.  0.
        -13    1    3    3    0    0 -0.42196317789E+02 -0.40067954429E+02 -0.20788757219E+02  0.61791211331E+02  0.10566000000E+00 0.  1.
         23    2    1    0    0    0 -0.24766219777E+02 -0.14158104483E+02 -0.88758452965E+01  0.95213618118E+02  0.90404838813E+02 0.  0.
         13    1    3    3    0    0  0.17430098011E+02  0.25909849946E+02  0.11912911923E+02  0.33422406787E+02  0.10566000000E+00 0. -1.
         22    1    1    0    0    0  0.24766219777E+02  0.14158104483E+02  0.88758452965E+01  0.29876381882E+02  0.00000000000E+00 0.  1.
</event>
<event>
 5    1  0.1261138E-009  0.9118800E+02  0.7561462E-02  0.1125453E+00
         25   -1    0    0    0    0  0.00000000000E+00  0.00000000000E+00  0.99999998245E-14  0.12509000000E+03  0.12509000000E+03 0.  0.
        -13    1    3    3    0    0  0.23633784294E+02  0.27616280311E+02  0.11815717416E+02  0.38220897953E+02  0.10566000000E+00 0.  1.
         23    2    1    0    0    0 -0.18492480979E+02 -0.10668935199E+02 -0.12753663151E+02  0.10022126552E+03  0.97086807069E+02 0.  0.
         13    1    3    3    0    0 -0.42126265272E+02 -0.38285215510E+02 -0.24569380568E+02  0.62000367563E+02  0.10566000000E+00 0. -1.
         22    1    1    0    0    0  0.18492480979E+02  0.10668935199E+02  0.12753663151E+02  0.24868734483E+02  0.00000000000E+00 0. -1.
</event>
<event>
 5    1  0.1261138E-009  0.9118800E+02  0.7561462E-02  0.1125453E+00
         25   -1    0    0    0    0  0.00000000000E+00  0.00000000000E+00  0.99999998245E-14  0.12509000000E+03  0.12509000000E+03 0.  0.
        -13    1    3    3    0    0 -0.67060018006E-01 -0.14415922547E+02  0.51669848189E+02  0.53643337852E+02  0.10566000000E+00 0.  1.
         23    2    1    0    0    0 -0.21539855426E+01 -0.26228483126E+02  0.10112925507E+02  0.96897017839E+02  0.92704842500E+02 0.  0.
         13    1    3    3    0    0 -0.20869255245E+01 -0.11812560579E+02 -0.41556922682E+02  0.43253679987E+02  0.10566000000E+00 0. -1.
         22    1    1    0    0    0  0.21539855426E+01  0.26228483126E+02 -0.10112925507E+02  0.28192982161E+02  0.00000000000E+00 0.  1.
</event>
<event>
 5    1  0.1261138E-009  0.9118800E+02  0.7561462E-02  0.1125453E+00
         25   -1    0    0    0    0  0.00000000000E+00  0.00000000000E+00  0.99999998245E-14  0.12509000000E+03  0.12509000000E+03 0.  0.
        -13    1    3    3    0    0  0.19255305184E+01  0.38463538860E+02 -0.89252584252E+01  0.39532554830E+02  0.10566000000E+00 0. -1.
         23    2    1    0    0    0 -0.12817166913E+02 -0.17202578676E+02 -0.17048664235E+02  0.97688076108E+02  0.93766170769E+02 0.  0.
         13    1    3    3    0    0 -0.14742697431E+02 -0.55666117536E+02 -0.81234058101E+01  0.58155521278E+02  0.10566000000E+00 0.  1.
         22    1    1    0    0    0  0.12817166913E+02  0.17202578676E+02  0.17048664235E+02  0.27401923892E+02  0.00000000000E+00 0.  1.
</event>
<event>
 5    1  0.1261138E-009  0.9118800E+02  0.7561462E-02  0.1125453E+00
         25   -1    0    0    0    0  0.00000000000E+00  0.00000000000E+00  0.99999998245E-14  0.12509000000E+03  0.12509000000E+03 0.  0.
        -13    1    3    3    0    0 -0.14833980798E+02  0.20206074541E+02  0.25617383681E+02  0.35841232476E+02  0.10566000000E+00 0.  1.
         23    2    1    0    0    0  0.19872415954E+02  0.76437509964E+01 -0.20921137233E+02  0.95239810247E+02  0.90441072681E+02 0.  0.
         13    1    3    3    0    0  0.34706396752E+02 -0.12562323545E+02 -0.46538520915E+02  0.59398577772E+02  0.10566000000E+00 0. -1.
         22    1    1    0    0    0 -0.19872415954E+02 -0.76437509964E+01  0.20921137233E+02  0.29850189753E+02  0.00000000000E+00 0. -1.
</event>
<event>
 5    1  0.1261138E-009  0.9118800E+02  0.7561462E-02  0.1125453E+00
         25   -1    0    0    0    0  0.00000000000E+00  0.00000000000E+00  0.99999998245E-14  0.12509000000E+03  0.12509000000E+03 0.  0.
        -13    1    3    3    0    0  0.26617960419E+02 -0.18370006463E+02  0.13981921248E+02  0.35234617071E+02  0.10566000000E+00 0. -1.
         23    2    1    0    0    0 -0.24322278662E+02 -0.54711460235E+00 -0.15016561437E+02  0.96500321948E+02  0.92168012048E+02 0.  0.
         13    1    3    3    0    0 -0.50940239081E+02  0.17822891861E+02 -0.28998482686E+02  0.61265704877E+02  0.10566000000E+00 0.  1.
         22    1    1    0    0    0  0.24322278662E+02  0.54711460235E+00  0.15016561437E+02  0.28589678052E+02  0.00000000000E+00 0.  1.
</event>
<event>
 5    1  0.1261138E-009  0.9118800E+02  0.7561462E-02  0.1125453E+00
         25   -1    0    0    0    0  0.00000000000E+00  0.00000000000E+00  0.99999998245E-14  0.12509000000E+03  0.12509000000E+03 0.  0.
        -13    1    3    3    0    0 -0.27704445047E+02 -0.16513278781E+02 -0.50712471049E+02  0.60099838065E+02  0.10566000000E+00 0. -1.
         23    2    1    0    0    0 -0.16896586772E+02 -0.17253332953E+02 -0.16875235925E+02  0.95629081310E+02  0.90977884468E+02 0.  0.
         13    1    3    3    0    0  0.10807858275E+02 -0.74005417186E+00  0.33837235125E+02  0.35529243245E+02  0.10566000000E+00 0.  1.
         22    1    1    0    0    0  0.16896586772E+02  0.17253332953E+02  0.16875235925E+02  0.29460918690E+02  0.00000000000E+00 0. -1.
</event>
<event>
 5    1  0.1261138E-009  0.9118800E+02  0.7561462E-02  0.1125453E+00
         25   -1    0    0    0    0  0.00000000000E+00  0.00000000000E+00  0.99999998245E-14  0.12509000000E+03  0.12509000000E+03 0.  0.
        -13    1    3    3    0    0  0.56154190787E+02  0.11661854627E+02  0.64580016375E+01  0.57714893619E+02  0.10566000000E+00 0.  1.
         23    2    1    0    0    0  0.25741355172E+02 -0.45060801074E+01 -0.11476923872E+02  0.96548067592E+02  0.92232789452E+02 0.  0.
         13    1    3    3    0    0 -0.30412835615E+02 -0.16167934735E+02 -0.17934925509E+02  0.38833173973E+02  0.10566000000E+00 0. -1.
         22    1    1    0    0    0 -0.25741355172E+02  0.45060801074E+01  0.11476923872E+02  0.28541932408E+02  0.00000000000E+00 0.  1.
</event>
<event>
 5    1  0.1261138E-009  0.9118800E+02  0.7561462E-02  0.1125453E+00
         25   -1    0    0    0    0  0.00000000000E+00  0.00000000000E+00  0.99999998245E-14  0.12509000000E+03  0.12509000000E+03 0.  0.
        -13    1    3    3    0    0  0.30552162979E+02  0.59419494550E+01  0.17121531223E+02  0.35523223693E+02  0.10566000000E+00 0.  1.
         23    2    1    0    0    0 -0.15713863950E+02  0.13002249539E+02 -0.20947922020E+02  0.95853046495E+02  0.91285305894E+02 0.  0.
         13    1    3    3    0    0 -0.46266026929E+02  0.70603000841E+01 -0.38069453243E+02  0.60329822802E+02  0.10566000000E+00 0. -1.
         22    1    1    0    0    0  0.15713863950E+02 -0.13002249539E+02  0.20947922020E+02  0.29236953505E+02  0.00000000000E+00 0. -1.
</event>
<event>
 5    1  0.1261138E-009  0.9118800E+02  0.7561462E-02  0.1125453E+00
         25   -1    0    0    0    0  0.00000000000E+00  0.00000000000E+00  0.99999998245E-14  0.12509000000E+03  0.12509000000E+03 0.  0.
        -13    1    3    3    0    0  0.81260550619E+01 -0.20911919361E+02 -0.32060409774E+02  0.39130834149E+02  0.10566000000E+00 0.  1.
         23    2    1    0    0    0  0.31061424540E+01 -0.21196480212E+02  0.22558112619E+02  0.93980397957E+02  0.88682060536E+02 0.  0.
         13    1    3    3    0    0 -0.50199126079E+01 -0.28456085134E+00  0.54618522394E+02  0.54849563808E+02  0.10566000000E+00 0. -1.
         22    1    1    0    0    0 -0.31061424540E+01  0.21196480212E+02 -0.22558112619E+02  0.31109602043E+02  0.00000000000E+00 0. -1.
</event>
<event>
 5    1  0.1261138E-009  0.9118800E+02  0.7561462E-02  0.1125453E+00
         25   -1    0    0    0    0  0.00000000000E+00  0.00000000000E+00  0.99999998245E-14  0.12509000000E+03  0.12509000000E+03 0.  0.
        -13    1    3    3    0    0 -0.46899759352E+02 -0.27879606003E+02 -0.14571888868E+02  0.56473099502E+02  0.10566000000E+00 0.  1.
         23    2    1    0    0    0 -0.26283449957E+02 -0.57926853129E+01  0.10959727626E+02  0.96029880000E+02  0.91527303458E+02 0.  0.
         13    1    3    3    0    0  0.20616309394E+02  0.22086920690E+02  0.25531616493E+02  0.39556780498E+02  0.10566000000E+00 0. -1.
         22    1    1    0    0    0  0.26283449957E+02  0.57926853129E+01 -0.10959727626E+02  0.29060120000E+02  0.00000000000E+00 0.  1.
</event>
<event>
 5    1  0.1261138E-009  0.9118800E+02  0.7561462E-02  0.1125453E+00
         25   -1    0    0    0    0  0.00000000000E+00  0.00000000000E+00  0.99999998245E-14  0.12509000000E+03  0.12509000000E+03 0.  0.
        -13    1    3    3    0    0  0.22587779583E+02 -0.13542184616E+02  0.15454587402E+02  0.30536109550E+02  0.10566000000E+00 0.  1.
         23    2    1    0    0    0 -0.20239869567E+02  0.25180632365E+02 -0.61861796067E+01  0.92196453755E+02  0.86128977124E+02 0.  0.
         13    1    3    3    0    0 -0.42827649151E+02  0.38722816981E+02 -0.21640767008E+02  0.61660344205E+02  0.10566000000E+00 0. -1.
         22    1    1    0    0    0  0.20239869567E+02 -0.25180632365E+02  0.61861796067E+01  0.32893546245E+02  0.00000000000E+00 0. -1.
</event>
<event>
 5    1  0.1261138E-009  0.9118800E+02  0.7561462E-02  0.1125453E+00
         25   -1    0    0    0    0  0.00000000000E+00  0.00000000000E+00  0.99999998245E-14  0.12509000000E+03  0.12509000000E+03 0.  0.
        -13    1    3    3    0    0 -0.16789975958E+02 -0.79607221784E+01  0.38610870678E+02  0.42849584465E+02  0.10566000000E+00 0. -1.
         23    2    1    0    0    0 -0.21964991887E+02  0.16467585688E+02 -0.86544559361E+01  0.96305597026E+02  0.91903352301E+02 0.  0.
         13    1    3    3    0    0 -0.51750159297E+01  0.24428307866E+02 -0.47265326614E+02  0.53456012562E+02  0.10566000000E+00 0.  1.
         22    1    1    0    0    0  0.21964991887E+02 -0.16467585688E+02  0.86544559361E+01  0.28784402974E+02  0.00000000000E+00 0.  1.
</event>
<event>
 5    1  0.1261138E-009  0.9118800E+02  0.7561462E-02  0.1125453E+00
         25   -1    0    0    0    0  0.00000000000E+00  0.00000000000E+00  0.99999998245E-14  0.12509000000E+03  0.12509000000E+03 0.  0.
        -13    1    3    3    0    0 -0.21018962753E+02  0.11588947070E+02  0.29326581233E+02  0.37896701970E+02  0.10566000000E+00 0.  1.
         23    2    1    0    0    0  0.12377981499E+02 -0.27810856831E+02  0.98906571934E+01  0.93082449588E+02  0.87406287748E+02 0.  0.
         13    1    3    3    0    0  0.33396944252E+02 -0.39399803901E+02 -0.19435924039E+02  0.55185747618E+02  0.10566000000E+00 0. -1.
         22    1    1    0    0    0 -0.12377981499E+02  0.27810856831E+02 -0.98906571934E+01  0.32007550412E+02  0.00000000000E+00 0. -1.
</event>
<event>
 5    1  0.1261138E-009  0.9118800E+02  0.7561462E-02  0.1125453E+00
         25   -1    0    0    0    0  0.00000000000E+00  0.00000000000E+00  0.99999998245E-14  0.12509000000E+03  0.12509000000E+03 0.  0.
        -13    1    3    3    0    0  0.23318154432E+02  0.11373781002E+02  0.35407700526E+02  0.43895508210E+02  0.10566000000E+00 0.  1.
         23    2    1    0    0    0  0.24670149039E+02 -0.17894210653E+02 -0.54066749080E+01  0.94137598444E+02  0.88903522308E+02 0.  0.
         13    1    3    3    0    0  0.13519946071E+01 -0.29267991655E+02 -0.40814375434E+02  0.50242090234E+02  0.10566000000E+00 0. -1.
         22    1    1    0    0    0 -0.24670149039E+02  0.17894210653E+02  0.54066749080E+01  0.30952401556E+02  0.00000000000E+00 0. -1.
</event>
<event>
 5    1  0.1261138E-009  0.9118800E+02  0.7561462E-02  0.1125453E+00
         25   -1    0    0    0    0  0.00000000000E+00  0.00000000000E+00  0.99999998245E-14  0.12509000000E+03  0.12509000000E+03 0.  0.
        -13    1    3    3    0    0 -0.95794999684E+01 -0.15183181176E+00  0.33272781304E+02  0.34624832307E+02  0.10566000000E+00 0. -1.
         23    2    1    0    0    0  0.13356207311E+02 -0.14920313538E+02 -0.21434772339E+02  0.95756512396E+02  0.91152927387E+02 0.  0.
         13    1    3    3    0    0  0.22935707279E+02 -0.14768481726E+02 -0.54707553643E+02  0.61131680089E+02  0.10566000000E+00 0.  1.
         22    1    1    0    0    0 -0.13356207311E+02  0.14920313538E+02  0.21434772339E+02  0.29333487604E+02  0.00000000000E+00 0.  1.
</event>
<event>
 5    1  0.1261138E-009  0.9118800E+02  0.7561462E-02  0.1125453E+00
         25   -1    0    0    0    0  0.00000000000E+00  0.00000000000E+00  0.99999998245E-14  0.12509000000E+03  0.12509000000E+03 0.  0.
        -13    1    3    3    0    0  0.27520346920E+01 -0.31662665629E+02  0.15198665802E+02  0.35229372629E+02  0.10566000000E+00 0.  1.
         23    2    1    0    0    0  0.15794574013E+02  0.98441767279E+01  0.36835029734E+02  0.83820207182E+02  0.72956365952E+02 0.  0.
         13    1    3    3    0    0  0.13042539321E+02  0.41506842356E+02  0.21636363932E+02  0.48590834553E+02  0.10566000000E+00 0. -1.
         22    1    1    0    0    0 -0.15794574013E+02 -0.98441767279E+01 -0.36835029734E+02  0.41269792818E+02  0.00000000000E+00 0. -1.
</event>
<event>
 5    1  0.1261138E-009  0.9118800E+02  0.7561462E-02  0.1125453E+00
         25   -1    0    0    0    0  0.00000000000E+00  0.00000000000E+00  0.99999998245E-14  0.12509000000E+03  0.12509000000E+03 0.  0.
        -13    1    3    3    0    0 -0.10581973904E+01  0.31220149535E+02 -0.24507466605E+02  0.39704465770E+02  0.10566000000E+00 0.  1.
         23    2    1    0    0    0  0.19040609806E+02  0.69504912549E+01  0.21546823804E+02  0.95507576730E+02  0.90810668131E+02 0.  0.
         13    1    3    3    0    0  0.20098807197E+02 -0.24269658280E+02  0.46054290408E+02  0.55803110960E+02  0.10566000000E+00 0. -1.
         22    1    1    0    0    0 -0.19040609806E+02 -0.69504912549E+01 -0.21546823804E+02  0.29582423270E+02  0.00000000000E+00 0. -1.
</event>
<event>
 5    1  0.1261138E-009  0.9118800E+02  0.7561462E-02  0.1125453E+00
         25   -1    0    0    0    0  0.00000000000E+00  0.00000000000E+00  0.99999998245E-14  0.12509000000E+03  0.12509000000E+03 0.  0.
        -13    1    3    3    0    0  0.30625244867E+02 -0.16367422355E+02  0.24260060325E+02  0.42359884664E+02  0.10566000000E+00 0.  1.
         23    2    1    0    0    0 -0.12261283868E+02  0.13051817995E+02  0.24958277118E+02  0.94371851752E+02  0.89232515214E+02 0.  0.
         13    1    3    3    0    0 -0.42886528735E+02  0.29419240350E+02  0.69821679376E+00  0.52011967089E+02  0.10566000000E+00 0. -1.
         22    1    1    0    0    0  0.12261283868E+02 -0.13051817995E+02 -0.24958277118E+02  0.30718148248E+02  0.00000000000E+00 0. -1.
</event>
<event>
 5    1  0.1261138E-009  0.9118800E+02  0.7561462E-02  0.1125453E+00
         25   -1    0    0    0    0  0.00000000000E+00  0.00000000000E+00  0.99999998245E-14  0.12509000000E+03  0.12509000000E+03 0.  0.
        -13    1    3    3    0    0 -0.12384276209E+01  0.19011212503E+02 -0.53682025528E+02  0.56962539731E+02  0.10566000000E+00 0.  1.
         23    2    1    0    0    0  0.33103544133E+01 -0.92852206663E+01 -0.27853160304E+02  0.95543895213E+02  0.90860682390E+02 0.  0.
         13    1    3    3    0    0  0.45487820342E+01 -0.28296433169E+02  0.25828865223E+02  0.38581355482E+02  0.10566000000E+00 0. -1.
         22    1    1    0    0    0 -0.33103544133E+01  0.92852206663E+01  0.27853160304E+02  0.29546104787E+02  0.00000000000E+00 0.  1.
</event>
<event>
 5    1  0.1261138E-009  0.9118800E+02  0.7561462E-02  0.1125453E+00
         25   -1    0    0    0    0  0.00000000000E+00  0.00000000000E+00  0.99999998245E-14  0.12509000000E+03  0.12509000000E+03 0.  0.
        -13    1    3    3    0    0 -0.81134917050E+01 -0.47792999856E+02 -0.30403286093E+02  0.57222115936E+02  0.10566000000E+00 0.  1.
         23    2    1    0    0    0  0.10178786016E+02 -0.18750788765E+02 -0.25416821243E+02  0.91905446874E+02  0.85705289212E+02 0.  0.
         13    1    3    3    0    0  0.18292277721E+02  0.29042211091E+02  0.49864648501E+01  0.34683330939E+02  0.10566000000E+00 0. -1.
         22    1    1    0    0    0 -0.10178786016E+02  0.18750788765E+02  0.25416821243E+02  0.33184553126E+02  0.00000000000E+00 0.  1.
</event>
<event>
 5    1  0.1261138E-009  0.9118800E+02  0.7561462E-02  0.1125453E+00
         25   -1    0    0    0    0  0.00000000000E+00  0.00000000000E+00  0.99999998245E-14  0.12509000000E+03  0.12509000000E+03 0.  0.
        -13    1    3    3    0    0  0.43715793555E+02 -0.25964304051E+01  0.44888568623E+00  0.43795259097E+02  0.10566000000E+00 0.  1.
         23    2    1    0    0    0 -0.13729651922E+02 -0.14912087964E+02  0.85280881805E+01  0.10309904737E+03  0.10072641944E+03 0.  0.
         13    1    3    3    0    0 -0.57445445477E+02 -0.12315657559E+02  0.80792024943E+01  0.59303788278E+02  0.10566000000E+00 0. -1.
         22    1    1    0    0    0  0.13729651922E+02  0.14912087964E+02 -0.85280881805E+01  0.21990952625E+02  0.00000000000E+00 0. -1.
</event>
<event>
 5    1  0.1261138E-009  0.9118800E+02  0.7561462E-02  0.1125453E+00
         25   -1    0    0    0    0  0.00000000000E+00  0.00000000000E+00  0.99999998245E-14  0.12509000000E+03  0.12509000000E+03 0.  0.
        -13    1    3    3    0    0 -0.14254625972E+02  0.32965947621E+02 -0.13933862550E+02  0.38524171032E+02  0.10566000000E+00 0.  1.
         23    2    1    0    0    0  0.22079376057E+02 -0.11334797187E+02 -0.15478429894E+02  0.95840072371E+02  0.91267525472E+02 0.  0.
         13    1    3    3    0    0  0.36334002029E+02 -0.44300744807E+02 -0.15445673435E+01  0.57315901338E+02  0.10566000000E+00 0. -1.
         22    1    1    0    0    0 -0.22079376057E+02  0.11334797187E+02  0.15478429894E+02  0.29249927629E+02  0.00000000000E+00 0. -1.
</event>
<event>
 5    1  0.1261138E-009  0.9118800E+02  0.7561462E-02  0.1125453E+00
         25   -1    0    0    0    0  0.00000000000E+00  0.00000000000E+00  0.99999998245E-14  0.12509000000E+03  0.12509000000E+03 0.  0.
        -13    1    3    3    0    0  0.22404916917E+02  0.20194827829E+02  0.29275518131E+02  0.42034253877E+02  0.10566000000E+00 0.  1.
         23    2    1    0    0    0  0.46092151381E+00 -0.25494273550E+02  0.17772627873E+02  0.94008868521E+02  0.88722210447E+02 0.  0.
         13    1    3    3    0    0 -0.21943995404E+02 -0.45689101379E+02 -0.11502890258E+02  0.51974614644E+02  0.10566000000E+00 0. -1.
         22    1    1    0    0    0 -0.46092151381E+00  0.25494273550E+02 -0.17772627873E+02  0.31081131479E+02  0.00000000000E+00 0. -1.
</event>
<event>
 5    1  0.1261138E-009  0.9118800E+02  0.7561462E-02  0.1125453E+00
         25   -1    0    0    0    0  0.00000000000E+00  0.00000000000E+00  0.99999998245E-14  0.12509000000E+03  0.12509000000E+03 0.  0.
        -13    1    3    3    0    0  0.26517324260E+02 -0.17898632065E+02  0.30262389073E+02  0.44038084338E+02  0.10566000000E+00 0.  1.
         23    2    1    0    0    0 -0.20530352693E+02 -0.19110080157E+02  0.13105865414E+02  0.94131087655E+02  0.88894360955E+02 0.  0.
         13    1    3    3    0    0 -0.47047676954E+02 -0.12114480925E+01 -0.17156523659E+02  0.50093003317E+02  0.10566000000E+00 0. -1.
         22    1    1    0    0    0  0.20530352693E+02  0.19110080157E+02 -0.13105865414E+02  0.30958912345E+02  0.00000000000E+00 0.  1.
</event>
<event>
 5    1  0.1261138E-009  0.9118800E+02  0.7561462E-02  0.1125453E+00
         25   -1    0    0    0    0  0.00000000000E+00  0.00000000000E+00  0.99999998245E-14  0.12509000000E+03  0.12509000000E+03 0.  0.
        -13    1    3    3    0    0  0.40665434502E+02  0.14760301125E+02 -0.27604620481E+02  0.51318323126E+02  0.10566000000E+00 0. -1.
         23    2    1    0    0    0  0.10235598748E+02  0.23683047877E+02  0.71015283130E+01  0.98330217810E+02  0.94618950489E+02 0.  0.
         13    1    3    3    0    0 -0.30429835754E+02  0.89227467519E+01  0.34706148794E+02  0.47011894684E+02  0.10566000000E+00 0.  1.
         22    1    1    0    0    0 -0.10235598748E+02 -0.23683047877E+02 -0.71015283130E+01  0.26759782190E+02  0.00000000000E+00 0.  1.
</event>
<event>
 5    1  0.1261138E-009  0.9118800E+02  0.7561462E-02  0.1125453E+00
         25   -1    0    0    0    0  0.00000000000E+00  0.00000000000E+00  0.99999998245E-14  0.12509000000E+03  0.12509000000E+03 0.  0.
        -13    1    3    3    0    0 -0.32476750667E+02  0.14436933212E+02 -0.43527958877E+02  0.56194828431E+02  0.10566000000E+00 0.  1.
         23    2    1    0    0    0 -0.27070554444E+02 -0.83768198315E+01 -0.15311887937E+02  0.92880685500E+02  0.87117058021E+02 0.  0.
         13    1    3    3    0    0  0.54061962229E+01 -0.22813753044E+02  0.28216070940E+02  0.36685857068E+02  0.10566000000E+00 0. -1.
         22    1    1    0    0    0  0.27070554444E+02  0.83768198315E+01  0.15311887937E+02  0.32209314500E+02  0.00000000000E+00 0.  1.
</event>
<event>
 5    1  0.1261138E-009  0.9118800E+02  0.7561462E-02  0.1125453E+00
         25   -1    0    0    0    0  0.00000000000E+00  0.00000000000E+00  0.99999998245E-14  0.12509000000E+03  0.12509000000E+03 0.  0.
        -13    1    3    3    0    0  0.25303231134E+02 -0.40517181200E+02 -0.14740441710E+02  0.49991871979E+02  0.10566000000E+00 0.  1.
         23    2    1    0    0    0 -0.10879159062E+02 -0.25546943198E+02  0.91411924298E+01  0.95857076648E+02  0.91290828323E+02 0.  0.
         13    1    3    3    0    0 -0.36182390195E+02  0.14970238001E+02  0.23881634140E+02  0.45865204669E+02  0.10566000000E+00 0. -1.
         22    1    1    0    0    0  0.10879159062E+02  0.25546943198E+02 -0.91411924298E+01  0.29232923352E+02  0.00000000000E+00 0. -1.
</event>
<event>
 5    1  0.1261138E-009  0.9118800E+02  0.7561462E-02  0.1125453E+00
         25   -1    0    0    0    0  0.00000000000E+00  0.00000000000E+00  0.99999998245E-14  0.12509000000E+03  0.12509000000E+03 0.  0.
        -13    1    3    3    0    0  0.38659572732E+02 -0.11788926033E+02 -0.92637432762E+00  0.40427845284E+02  0.10566000000E+00 0. -1.
         23    2    1    0    0    0 -0.98243356408E+01 -0.17386256233E+01 -0.26941275553E+02  0.96360699308E+02  0.91978321646E+02 0.  0.
         13    1    3    3    0    0 -0.48483908373E+02  0.10050300410E+02 -0.26014901225E+02  0.55932854024E+02  0.10566000000E+00 0.  1.
         22    1    1    0    0    0  0.98243356408E+01  0.17386256233E+01  0.26941275553E+02  0.28729300692E+02  0.00000000000E+00 0.  1.
</event>
<event>
 5    1  0.1261138E-009  0.9118800E+02  0.7561462E-02  0.1125453E+00
         25   -1    0    0    0    0  0.00000000000E+00  0.00000000000E+00  0.99999998245E-14  0.12509000000E+03  0.12509000000E+03 0.  0.
        -13    1    3    3    0    0  0.47455289721E+02 -0.12696238682E+02 -0.24438036059E+02  0.54867365252E+02  0.10566000000E+00 0.  1.
         23    2    1    0    0    0  0.36285534977E+01 -0.67374482819E+01 -0.24838645134E+02  0.99099272770E+02  0.95630266975E+02 0.  0.
         13    1    3    3    0    0 -0.43826736224E+02  0.59587904005E+01 -0.40060907528E+00  0.44231907518E+02  0.10566000000E+00 0. -1.
         22    1    1    0    0    0 -0.36285534977E+01  0.67374482819E+01  0.24838645134E+02  0.25990727230E+02  0.00000000000E+00 0.  1.
</event>
<event>
 5    1  0.1261138E-009  0.9118800E+02  0.7561462E-02  0.1125453E+00
         25   -1    0    0    0    0  0.00000000000E+00  0.00000000000E+00  0.99999998245E-14  0.12509000000E+03  0.12509000000E+03 0.  0.
        -13    1    3    3    0    0 -0.68403826044E+01 -0.38189681622E+02  0.14106204007E+01  0.38823235704E+02  0.10566000000E+00 0. -1.
         23    2    1    0    0    0  0.28887076808E+02  0.42246690427E+01 -0.73924702993E+01  0.94974229179E+02  0.90072995709E+02 0.  0.
         13    1    3    3    0    0  0.35727459412E+02  0.42414350665E+02 -0.88030906999E+01  0.56150993475E+02  0.10566000000E+00 0.  1.
         22    1    1    0    0    0 -0.28887076808E+02 -0.42246690427E+01  0.73924702993E+01  0.30115770821E+02  0.00000000000E+00 0. -1.
</event>
<event>
 5    1  0.1261138E-009  0.9118800E+02  0.7561462E-02  0.1125453E+00
         25   -1    0    0    0    0  0.00000000000E+00  0.00000000000E+00  0.99999998245E-14  0.12509000000E+03  0.12509000000E+03 0.  0.
        -13    1    3    3    0    0 -0.61333101934E+01 -0.34385435311E+02 -0.15277439167E+02  0.38123312644E+02  0.10566000000E+00 0.  1.
         23    2    1    0    0    0 -0.18854664190E+02  0.18222663579E+02  0.88958384935E+01  0.97400655982E+02  0.93381946936E+02 0.  0.
         13    1    3    3    0    0 -0.12721353997E+02  0.52608098890E+02  0.24173277660E+02  0.59277343338E+02  0.10566000000E+00 0. -1.
         22    1    1    0    0    0  0.18854664190E+02 -0.18222663579E+02 -0.88958384935E+01  0.27689344018E+02  0.00000000000E+00 0. -1.
</event>
<event>
 5    1  0.1261138E-009  0.9118800E+02  0.7561462E-02  0.1125453E+00
         25   -1    0    0    0    0  0.00000000000E+00  0.00000000000E+00  0.99999998245E-14  0.12509000000E+03  0.12509000000E+03 0.  0.
        -13    1    3    3    0    0  0.14566869096E+02  0.10683728437E+02  0.55906488824E+02  0.58752722365E+02  0.10566000000E+00 0.  1.
         23    2    1    0    0    0  0.19988554493E+02 -0.22386077492E+01  0.22899839680E+02  0.94611215038E+02  0.89567436483E+02 0.  0.
         13    1    3    3    0    0  0.54216853978E+01 -0.12922336186E+02 -0.33006649144E+02  0.35858492673E+02  0.10566000000E+00 0. -1.
         22    1    1    0    0    0 -0.19988554493E+02  0.22386077492E+01 -0.22899839680E+02  0.30478784962E+02  0.00000000000E+00 0.  1.
</event>
<event>
 5    1  0.1261138E-009  0.9118800E+02  0.7561462E-02  0.1125453E+00
         25   -1    0    0    0    0  0.00000000000E+00  0.00000000000E+00  0.99999998245E-14  0.12509000000E+03  0.12509000000E+03 0.  0.
        -13    1    3    3    0    0  0.34574340458E+02  0.45211971545E+02  0.12748559977E+02  0.58327046339E+02  0.10566000000E+00 0.  1.
         23    2    1    0    0    0  0.15442473739E+02  0.95167484987E+01  0.18439209167E+02  0.99224135779E+02  0.95793455879E+02 0.  0.
         13    1    3    3    0    0 -0.19131866719E+02 -0.35695223046E+02  0.56906491904E+01  0.40897089441E+02  0.10566000000E+00 0. -1.
         22    1    1    0    0    0 -0.15442473739E+02 -0.95167484987E+01 -0.18439209167E+02  0.25865864221E+02  0.00000000000E+00 0.  1.
</event>
<event>
 5    1  0.1261138E-009  0.9118800E+02  0.7561462E-02  0.1125453E+00
         25   -1    0    0    0    0  0.00000000000E+00  0.00000000000E+00  0.99999998245E-14  0.12509000000E+03  0.12509000000E+03 0.  0.
        -13    1    3    3    0    0 -0.43747074895E+01  0.19419878563E+02 -0.25040743222E+02  0.31989369081E+02  0.10566000000E+00 0. -1.
         23    2    1    0    0    0  0.72171119685E+01 -0.32435882168E+02  0.23660425552E+01  0.91776769677E+02  0.85517273914E+02 0.  0.
         13    1    3    3    0    0  0.11591819458E+02 -0.51855760731E+02  0.27406785777E+02  0.59787400596E+02  0.10566000000E+00 0.  1.
         22    1    1    0    0    0 -0.72171119685E+01  0.32435882168E+02 -0.23660425552E+01  0.33313230323E+02  0.00000000000E+00 0.  1.
</event>
<event>
 5    1  0.1261138E-009  0.9118800E+02  0.7561462E-02  0.1125453E+00
         25   -1    0    0    0    0  0.00000000000E+00  0.00000000000E+00  0.99999998245E-14  0.12509000000E+03  0.12509000000E+03 0.  0.
        -13    1    3    3    0    0 -0.33926730444E+02  0.12898754343E+02  0.21813090855E+02  0.42346463830E+02  0.10566000000E+00 0.  1.
         23    2    1    0    0    0  0.15501300124E+02 -0.86852056764E+01  0.22667287506E+02  0.96288454450E+02  0.91880016512E+02 0.  0.
         13    1    3    3    0    0  0.49428030569E+02 -0.21583960019E+02  0.85419665150E+00  0.53941990619E+02  0.10566000000E+00 0. -1.
         22    1    1    0    0    0 -0.15501300124E+02  0.86852056764E+01 -0.22667287506E+02  0.28801545550E+02  0.00000000000E+00 0. -1.
</event>
<event>
 5    1  0.1261138E-009  0.9118800E+02  0.7561462E-02  0.1125453E+00
         25   -1    0    0    0    0  0.00000000000E+00  0.00000000000E+00  0.99999998245E-14  0.12509000000E+03  0.12509000000E+03 0.  0.
        -13    1    3    3    0    0 -0.28575585210E+02  0.55289334269E+02  0.23852660883E+00  0.62237790874E+02  0.10566000000E+00 0.  1.
         23    2    1    0    0    0 -0.12359652629E+02  0.26353572970E+02 -0.41165219918E+01  0.95692422299E+02  0.91064933486E+02 0.  0.
         13    1    3    3    0    0  0.16215932581E+02 -0.28935761299E+02 -0.43550486007E+01  0.33454631425E+02  0.10566000000E+00 0. -1.
         22    1    1    0    0    0  0.12359652629E+02 -0.26353572970E+02  0.41165219918E+01  0.29397577701E+02  0.00000000000E+00 0.  1.
</event>
<event>
 5    1  0.1261138E-009  0.9118800E+02  0.7561462E-02  0.1125453E+00
         25   -1    0    0    0    0  0.00000000000E+00  0.00000000000E+00  0.99999998245E-14  0.12509000000E+03  0.12509000000E+03 0.  0.
        -13    1    3    3    0    0  0.16679662876E+02  0.35113395391E+02  0.22037425160E+02  0.44685802681E+02  0.10566000000E+00 0.  1.
         23    2    1    0    0    0  0.24400773496E+02  0.76642421402E+00 -0.15518854132E+02  0.96162158967E+02  0.91707910403E+02 0.  0.
         13    1    3    3    0    0  0.77211106192E+01 -0.34346971177E+02 -0.37556279291E+02  0.51476356286E+02  0.10566000000E+00 0. -1.
         22    1    1    0    0    0 -0.24400773496E+02 -0.76642421402E+00  0.15518854132E+02  0.28927841033E+02  0.00000000000E+00 0. -1.
</event>
<event>
 5    1  0.1261138E-009  0.9118800E+02  0.7561462E-02  0.1125453E+00
         25   -1    0    0    0    0  0.00000000000E+00  0.00000000000E+00  0.99999998245E-14  0.12509000000E+03  0.12509000000E+03 0.  0.
        -13    1    3    3    0    0  0.12619321261E+02  0.13463866513E+02 -0.52622349019E+02  0.55764197752E+02  0.10566000000E+00 0. -1.
         23    2    1    0    0    0 -0.15763158328E+01  0.24447878035E+02 -0.18249983184E+02  0.94540934577E+02  0.89469228858E+02 0.  0.
         13    1    3    3    0    0 -0.14195637094E+02  0.10984011522E+02  0.34372365836E+02  0.38776736825E+02  0.10566000000E+00 0.  1.
         22    1    1    0    0    0  0.15763158328E+01 -0.24447878035E+02  0.18249983184E+02  0.30549065423E+02  0.00000000000E+00 0. -1.
</event>
<event>
 5    1  0.1261138E-009  0.9118800E+02  0.7561462E-02  0.1125453E+00
         25   -1    0    0    0    0  0.00000000000E+00  0.00000000000E+00  0.99999998245E-14  0.12509000000E+03  0.12509000000E+03 0.  0.
        -13    1    3    3    0    0 -0.44981785471E+01  0.21537864976E+02 -0.52577023570E+02  0.56995331471E+02  0.10566000000E+00 0.  1.
         23    2    1    0    0    0 -0.20001684892E+02  0.14104542348E+02 -0.21493119944E+02  0.92517623386E+02  0.86594173700E+02 0.  0.
         13    1    3    3    0    0 -0.15503506345E+02 -0.74333226279E+01  0.31083903626E+02  0.35522291915E+02  0.10566000000E+00 0. -1.
         22    1    1    0    0    0  0.20001684892E+02 -0.14104542348E+02  0.21493119944E+02  0.32572376614E+02  0.00000000000E+00 0.  1.
</event>
<event>
 5    1  0.1261138E-009  0.9118800E+02  0.7561462E-02  0.1125453E+00
         25   -1    0    0    0    0  0.00000000000E+00  0.00000000000E+00  0.99999998245E-14  0.12509000000E+03  0.12509000000E+03 0.  0.
        -13    1    3    3    0    0 -0.26874389018E+02  0.33414868872E+02 -0.28356742778E+02  0.51409165251E+02  0.10566000000E+00 0.  1.
         23    2    1    0    0    0 -0.18084764030E+02  0.19557751076E+02  0.12667491559E+02  0.95593734820E+02  0.90929271840E+02 0.  0.
         13    1    3    3    0    0  0.87896249877E+01 -0.13857117796E+02  0.41024234336E+02  0.44184569569E+02  0.10566000000E+00 0. -1.
         22    1    1    0    0    0  0.18084764030E+02 -0.19557751076E+02 -0.12667491559E+02  0.29496265180E+02  0.00000000000E+00 0. -1.
</event>
<event>
 5    1  0.1261138E-009  0.9118800E+02  0.7561462E-02  0.1125453E+00
         25   -1    0    0    0    0  0.00000000000E+00  0.00000000000E+00  0.99999998245E-14  0.12509000000E+03  0.12509000000E+03 0.  0.
        -13    1    3    3    0    0 -0.10115731972E+02  0.12213429489E+02  0.47046813448E+02  0.49647857083E+02  0.10566000000E+00 0. -1.
         23    2    1    0    0    0 -0.22234975394E+02  0.20552044254E+02  0.47356965330E+01  0.94443507943E+02  0.89332909485E+02 0.  0.
         13    1    3    3    0    0 -0.12119243422E+02  0.83386147647E+01 -0.42311116915E+02  0.44795650860E+02  0.10566000000E+00 0.  1.
         22    1    1    0    0    0  0.22234975394E+02 -0.20552044254E+02 -0.47356965330E+01  0.30646492057E+02  0.00000000000E+00 0.  1.
</event>
<event>
 5    1  0.1261138E-009  0.9118800E+02  0.7561462E-02  0.1125453E+00
         25   -1    0    0    0    0  0.00000000000E+00  0.00000000000E+00  0.99999998245E-14  0.12509000000E+03  0.12509000000E+03 0.  0.
        -13    1    3    3    0    0  0.48995905011E+02 -0.23753312038E+02 -0.90565940293E+01  0.55198293453E+02  0.10566000000E+00 0. -1.
         23    2    1    0    0    0  0.26378623090E+02  0.74473793946E+01 -0.14440920153E+02  0.94108789713E+02  0.88862978289E+02 0.  0.
         13    1    3    3    0    0 -0.22617281921E+02  0.31200691433E+02 -0.53843261234E+01  0.38910496260E+02  0.10566000000E+00 0.  1.
         22    1    1    0    0    0 -0.26378623090E+02 -0.74473793946E+01  0.14440920153E+02  0.30981210287E+02  0.00000000000E+00 0. -1.
</event>
<event>
 5    1  0.1261138E-009  0.9118800E+02  0.7561462E-02  0.1125453E+00
         25   -1    0    0    0    0  0.00000000000E+00  0.00000000000E+00  0.99999998245E-14  0.12509000000E+03  0.12509000000E+03 0.  0.
        -13    1    3    3    0    0 -0.18131825707E+02 -0.27423835654E+02  0.67293489715E+01  0.33557788471E+02  0.10566000000E+00 0.  1.
         23    2    1    0    0    0  0.20924986789E+02  0.20580022810E+02  0.75789148615E+00  0.95730728713E+02  0.91117537332E+02 0.  0.
         13    1    3    3    0    0  0.39056812497E+02  0.48003858464E+02 -0.59714574854E+01  0.62172940242E+02  0.10566000000E+00 0. -1.
         22    1    1    0    0    0 -0.20924986789E+02 -0.20580022810E+02 -0.75789148615E+00  0.29359271287E+02  0.00000000000E+00 0. -1.
</event>
<event>
 5    1  0.1261138E-009  0.9118800E+02  0.7561462E-02  0.1125453E+00
         25   -1    0    0    0    0  0.00000000000E+00  0.00000000000E+00  0.99999998245E-14  0.12509000000E+03  0.12509000000E+03 0.  0.
        -13    1    3    3    0    0  0.16102747518E+02  0.26911367136E+02  0.52322607125E+02  0.61001528990E+02  0.10566000000E+00 0.  1.
         23    2    1    0    0    0  0.12098919399E+02  0.19429391616E+02  0.19136379793E+02  0.95255688532E+02  0.90463031437E+02 0.  0.
         13    1    3    3    0    0 -0.40038281186E+01 -0.74819755195E+01 -0.33186227332E+02  0.34254159541E+02  0.10566000000E+00 0. -1.
         22    1    1    0    0    0 -0.12098919399E+02 -0.19429391616E+02 -0.19136379793E+02  0.29834311468E+02  0.00000000000E+00 0.  1.
</event>
<event>
 5    1  0.1261138E-009  0.9118800E+02  0.7561462E-02  0.1125453E+00
         25   -1    0    0    0    0  0.00000000000E+00  0.00000000000E+00  0.99999998245E-14  0.12509000000E+03  0.12509000000E+03 0.  0.
        -13    1    3    3    0    0  0.45758784982E+02  0.11147778252E+02 -0.91057293162E-01  0.47097333453E+02  0.10566000000E+00 0. -1.
         23    2    1    0    0    0  0.12603943322E+01  0.22544030753E+02  0.17744003482E+02  0.96372904464E+02  0.91994919092E+02 0.  0.
         13    1    3    3    0    0 -0.44498390650E+02  0.11396252501E+02  0.17835060775E+02  0.49275571010E+02  0.10566000000E+00 0.  1.
         22    1    1    0    0    0 -0.12603943322E+01 -0.22544030753E+02 -0.17744003482E+02  0.28717095536E+02  0.00000000000E+00 0.  1.
</event>
<event>
 5    1  0.1261138E-009  0.9118800E+02  0.7561462E-02  0.1125453E+00
         25   -1    0    0    0    0  0.00000000000E+00  0.00000000000E+00  0.99999998245E-14  0.12509000000E+03  0.12509000000E+03 0.  0.
        -13    1    3    3    0    0 -0.14236681669E+02  0.31825655566E+02 -0.10192813817E+02  0.36324373011E+02  0.10566000000E+00 0.  1.
         23    2    1    0    0    0 -0.12129040167E+02 -0.26849052635E+02 -0.38163981473E+01  0.95382254586E+02  0.90637874822E+02 0.  0.
         13    1    3    3    0    0  0.21076415020E+01 -0.58674708201E+02  0.63764156695E+01  0.59057881574E+02  0.10566000000E+00 0. -1.
         22    1    1    0    0    0  0.12129040167E+02  0.26849052635E+02  0.38163981473E+01  0.29707745414E+02  0.00000000000E+00 0. -1.
</event>
<event>
 5    1  0.1261138E-009  0.9118800E+02  0.7561462E-02  0.1125453E+00
         25   -1    0    0    0    0  0.00000000000E+00  0.00000000000E+00  0.99999998245E-14  0.12509000000E+03  0.12509000000E+03 0.  0.
        -13    1    3    3    0    0  0.27146711870E+02 -0.30101093665E+02 -0.43131497158E+02  0.59189162997E+02  0.10566000000E+00 0.  1.
         23    2    1    0    0    0  0.28391843317E+00 -0.10407999846E+02 -0.26906999306E+02  0.96238766367E+02  0.91812343777E+02 0.  0.
         13    1    3    3    0    0 -0.26862793437E+02  0.19693093818E+02  0.16224497851E+02  0.37049603371E+02  0.10566000000E+00 0. -1.
         22    1    1    0    0    0 -0.28391843317E+00  0.10407999846E+02  0.26906999306E+02  0.28851233633E+02  0.00000000000E+00 0.  1.
</event>
<event>
 5    1  0.1261138E-009  0.9118800E+02  0.7561462E-02  0.1125453E+00
         25   -1    0    0    0    0  0.00000000000E+00  0.00000000000E+00  0.99999998245E-14  0.12509000000E+03  0.12509000000E+03 0.  0.
        -13    1    3    3    0    0 -0.23049768622E+02 -0.31390099129E+02 -0.45974975755E+02  0.60252300509E+02  0.10566000000E+00 0.  1.
         23    2    1    0    0    0 -0.16602960954E+02 -0.20832610255E+02 -0.13047265821E+02  0.95427108909E+02  0.90699757479E+02 0.  0.
         13    1    3    3    0    0  0.64468076676E+01  0.10557488874E+02  0.32927709934E+02  0.35174808400E+02  0.10566000000E+00 0. -1.
         22    1    1    0    0    0  0.16602960954E+02  0.20832610255E+02  0.13047265821E+02  0.29662891091E+02  0.00000000000E+00 0.  1.
</event>
<event>
 5    1  0.1261138E-009  0.9118800E+02  0.7561462E-02  0.1125453E+00
         25   -1    0    0    0    0  0.00000000000E+00  0.00000000000E+00  0.99999998245E-14  0.12509000000E+03  0.12509000000E+03 0.  0.
        -13    1    3    3    0    0 -0.13331686781E+02  0.13926509682E+02  0.28954699471E+02  0.34786022047E+02  0.10566000000E+00 0. -1.
         23    2    1    0    0    0  0.21048651643E+02 -0.11364763326E+02 -0.15636821824E+02  0.96511795399E+02  0.92183582448E+02 0.  0.
         13    1    3    3    0    0  0.34380338424E+02 -0.25291273008E+02 -0.44591521295E+02  0.61725773352E+02  0.10566000000E+00 0.  1.
         22    1    1    0    0    0 -0.21048651643E+02  0.11364763326E+02  0.15636821824E+02  0.28578204601E+02  0.00000000000E+00 0.  1.
</event>
<event>
 5    1  0.1261138E-009  0.9118800E+02  0.7561462E-02  0.1125453E+00
         25   -1    0    0    0    0  0.00000000000E+00  0.00000000000E+00  0.99999998245E-14  0.12509000000E+03  0.12509000000E+03 0.  0.
        -13    1    3    3    0    0  0.12690200109E+01 -0.36564851186E+02  0.12405049490E+02  0.38632825044E+02  0.10566000000E+00 0. -1.
         23    2    1    0    0    0 -0.22729084377E+02  0.58753509571E+01 -0.17482080181E+02  0.95819636952E+02  0.91239512672E+02 0.  0.
         13    1    3    3    0    0 -0.23998104388E+02  0.42440202143E+02 -0.29887129671E+02  0.57186811908E+02  0.10566000000E+00 0.  1.
         22    1    1    0    0    0  0.22729084377E+02 -0.58753509571E+01  0.17482080181E+02  0.29270363048E+02  0.00000000000E+00 0.  1.
</event>
<event>
 5    1  0.1261138E-009  0.9118800E+02  0.7561462E-02  0.1125453E+00
         25   -1    0    0    0    0  0.00000000000E+00  0.00000000000E+00  0.99999998245E-14  0.12509000000E+03  0.12509000000E+03 0.  0.
        -13    1    3    3    0    0 -0.44278521312E+02  0.19910809617E+02 -0.24844067799E+02  0.54536837624E+02  0.10566000000E+00 0. -1.
         23    2    1    0    0    0 -0.18706922168E+02 -0.96565714118E+01 -0.23341380617E+02  0.93657240695E+02  0.88225055268E+02 0.  0.
         13    1    3    3    0    0  0.25571599144E+02 -0.29567381028E+02  0.15026871818E+01  0.39120403071E+02  0.10566000000E+00 0.  1.
         22    1    1    0    0    0  0.18706922168E+02  0.96565714118E+01  0.23341380617E+02  0.31432759305E+02  0.00000000000E+00 0. -1.
</event>
<event>
 5    1  0.1261138E-009  0.9118800E+02  0.7561462E-02  0.1125453E+00
         25   -1    0    0    0    0  0.00000000000E+00  0.00000000000E+00  0.99999998245E-14  0.12509000000E+03  0.12509000000E+03 0.  0.
        -13    1    3    3    0    0  0.16877941829E+02  0.44399352839E+02  0.31642886989E+02  0.57074082681E+02  0.10566000000E+00 0.  1.
         23    2    1    0    0    0 -0.49452855064E+01  0.12212841309E+02  0.25422443970E+02  0.96455929402E+02  0.92107742985E+02 0.  0.
         13    1    3    3    0    0 -0.21823227335E+02 -0.32186511529E+02 -0.62204430193E+01  0.39381846721E+02  0.10566000000E+00 0. -1.
         22    1    1    0    0    0  0.49452855064E+01 -0.12212841309E+02 -0.25422443970E+02  0.28634070598E+02  0.00000000000E+00 0.  1.
</event>
<event>
 5    1  0.1261138E-009  0.9118800E+02  0.7561462E-02  0.1125453E+00
         25   -1    0    0    0    0  0.00000000000E+00  0.00000000000E+00  0.99999998245E-14  0.12509000000E+03  0.12509000000E+03 0.  0.
        -13    1    3    3    0    0  0.20797402624E+02 -0.18425349925E+02  0.20947428334E+02  0.34797002652E+02  0.10566000000E+00 0. -1.
         23    2    1    0    0    0 -0.26898996149E+02  0.12056265050E+01 -0.11584392442E+02  0.95777755505E+02  0.91182074841E+02 0.  0.
         13    1    3    3    0    0 -0.47696398772E+02  0.19630976430E+02 -0.32531820775E+02  0.60980752853E+02  0.10566000000E+00 0.  1.
         22    1    1    0    0    0  0.26898996149E+02 -0.12056265050E+01  0.11584392442E+02  0.29312244495E+02  0.00000000000E+00 0.  1.
</event>
<event>
 5    1  0.1261138E-009  0.9118800E+02  0.7561462E-02  0.1125453E+00
         25   -1    0    0    0    0  0.00000000000E+00  0.00000000000E+00  0.99999998245E-14  0.12509000000E+03  0.12509000000E+03 0.  0.
        -13    1    3    3    0    0  0.47271007877E+02  0.20672727738E+02  0.17972456523E+02  0.54634514873E+02  0.10566000000E+00 0. -1.
         23    2    1    0    0    0  0.14404286619E+02  0.25037255982E+02 -0.60503084300E+01  0.95578072035E+02  0.90907722234E+02 0.  0.
         13    1    3    3    0    0 -0.32866721259E+02  0.43645282437E+01 -0.24022764953E+02  0.40943557162E+02  0.10566000000E+00 0.  1.
         22    1    1    0    0    0 -0.14404286619E+02 -0.25037255982E+02  0.60503084300E+01  0.29511927965E+02  0.00000000000E+00 0. -1.
</event>
<event>
 5    1  0.1261138E-009  0.9118800E+02  0.7561462E-02  0.1125453E+00
         25   -1    0    0    0    0  0.00000000000E+00  0.00000000000E+00  0.99999998245E-14  0.12509000000E+03  0.12509000000E+03 0.  0.
        -13    1    3    3    0    0  0.36069326376E+02  0.41069815988E+02  0.13528638041E+02  0.56309513422E+02  0.10566000000E+00 0.  1.
         23    2    1    0    0    0  0.21722574079E+02  0.16008407407E+02 -0.12650973946E+02  0.95287542482E+02  0.90507067558E+02 0.  0.
         13    1    3    3    0    0 -0.14346752297E+02 -0.25061408581E+02 -0.26179611988E+02  0.38978029060E+02  0.10566000000E+00 0. -1.
         22    1    1    0    0    0 -0.21722574079E+02 -0.16008407407E+02  0.12650973946E+02  0.29802457518E+02  0.00000000000E+00 0.  1.
</event>
<event>
 5    1  0.1261138E-009  0.9118800E+02  0.7561462E-02  0.1125453E+00
         25   -1    0    0    0    0  0.00000000000E+00  0.00000000000E+00  0.99999998245E-14  0.12509000000E+03  0.12509000000E+03 0.  0.
        -13    1    3    3    0    0  0.24271675987E+01  0.26203368437E+02 -0.23373358101E+02  0.35197055174E+02  0.10566000000E+00 0.  1.
         23    2    1    0    0    0  0.49896996566E+01 -0.60235377348E+01  0.28067372456E+02  0.95953124634E+02  0.91422342023E+02 0.  0.
         13    1    3    3    0    0  0.25625320579E+01 -0.32226906171E+02  0.51440730557E+02  0.60756069460E+02  0.10566000000E+00 0. -1.
         22    1    1    0    0    0 -0.49896996566E+01  0.60235377348E+01 -0.28067372456E+02  0.29136875366E+02  0.00000000000E+00 0. -1.
</event>
<event>
 5    1  0.1261138E-009  0.9118800E+02  0.7561462E-02  0.1125453E+00
         25   -1    0    0    0    0  0.00000000000E+00  0.00000000000E+00  0.99999998245E-14  0.12509000000E+03  0.12509000000E+03 0.  0.
        -13    1    3    3    0    0  0.12078888940E+02 -0.35721377133E+02  0.24016669752E+01  0.37784858218E+02  0.10566000000E+00 0. -1.
         23    2    1    0    0    0 -0.18063283710E+02  0.11765208200E+02  0.18922320663E+02  0.96406266602E+02  0.92040272048E+02 0.  0.
         13    1    3    3    0    0 -0.30142172650E+02  0.47486585333E+02  0.16520653687E+02  0.58621408384E+02  0.10566000000E+00 0.  1.
         22    1    1    0    0    0  0.18063283710E+02 -0.11765208200E+02 -0.18922320663E+02  0.28683733398E+02  0.00000000000E+00 0.  1.
</event>
<event>
 5    1  0.1261138E-009  0.9118800E+02  0.7561462E-02  0.1125453E+00
         25   -1    0    0    0    0  0.00000000000E+00  0.00000000000E+00  0.99999998245E-14  0.12509000000E+03  0.12509000000E+03 0.  0.
        -13    1    3    3    0    0 -0.42865753865E+02  0.27241978636E+02 -0.81974818259E+01  0.51447139150E+02  0.10566000000E+00 0.  1.
         23    2    1    0    0    0 -0.27345274531E+02 -0.12061076349E+02  0.26850082716E+01  0.95082619720E+02  0.90223398858E+02 0.  0.
         13    1    3    3    0    0  0.15520479333E+02 -0.39303054984E+02  0.10882490097E+02  0.43635480570E+02  0.10566000000E+00 0. -1.
         22    1    1    0    0    0  0.27345274531E+02  0.12061076349E+02 -0.26850082716E+01  0.30007380280E+02  0.00000000000E+00 0.  1.
</event>
<event>
 5    1  0.1261138E-009  0.9118800E+02  0.7561462E-02  0.1125453E+00
         25   -1    0    0    0    0  0.00000000000E+00  0.00000000000E+00  0.99999998245E-14  0.12509000000E+03  0.12509000000E+03 0.  0.
        -13    1    3    3    0    0 -0.30090679342E+02 -0.32129198930E+02 -0.44118074365E+02  0.62322949681E+02  0.10566000000E+00 0.  1.
         23    2    1    0    0    0 -0.13565496504E+02 -0.19912989520E+02 -0.24032610962E+02  0.91058893103E+02  0.84460675917E+02 0.  0.
         13    1    3    3    0    0  0.16525182838E+02  0.12216209411E+02  0.20085463404E+02  0.28735943422E+02  0.10566000000E+00 0. -1.
         22    1    1    0    0    0  0.13565496504E+02  0.19912989520E+02  0.24032610962E+02  0.34031106897E+02  0.00000000000E+00 0.  1.
</event>
<event>
 5    1  0.1261138E-009  0.9118800E+02  0.7561462E-02  0.1125453E+00
         25   -1    0    0    0    0  0.00000000000E+00  0.00000000000E+00  0.99999998245E-14  0.12509000000E+03  0.12509000000E+03 0.  0.
        -13    1    3    3    0    0  0.46809404854E+02 -0.23686295176E+02  0.99247020225E+01  0.53391683212E+02  0.10566000000E+00 0.  1.
         23    2    1    0    0    0  0.10113763901E+02 -0.15677705836E+02  0.25027334611E+02  0.93873879834E+02  0.88531684480E+02 0.  0.
         13    1    3    3    0    0 -0.36695640953E+02  0.80085893404E+01  0.15102632588E+02  0.40482196622E+02  0.10566000000E+00 0. -1.
         22    1    1    0    0    0 -0.10113763901E+02  0.15677705836E+02 -0.25027334611E+02  0.31216120166E+02  0.00000000000E+00 0.  1.
</event>
<event>
 5    1  0.1261138E-009  0.9118800E+02  0.7561462E-02  0.1125453E+00
         25   -1    0    0    0    0  0.00000000000E+00  0.00000000000E+00  0.99999998245E-14  0.12509000000E+03  0.12509000000E+03 0.  0.
        -13    1    3    3    0    0 -0.10698781672E+02 -0.49251531284E+02 -0.41693044285E+01  0.50572438408E+02  0.10566000000E+00 0. -1.
         23    2    1    0    0    0  0.88430280226E+01 -0.15597372455E+02  0.21426070958E+02  0.97151609051E+02  0.93047737492E+02 0.  0.
         13    1    3    3    0    0  0.19541809694E+02  0.33654158829E+02  0.25595375387E+02  0.46579170643E+02  0.10566000000E+00 0.  1.
         22    1    1    0    0    0 -0.88430280226E+01  0.15597372455E+02 -0.21426070958E+02  0.27938390949E+02  0.00000000000E+00 0.  1.
</event>
<event>
 5    1  0.1261138E-009  0.9118800E+02  0.7561462E-02  0.1125453E+00
         25   -1    0    0    0    0  0.00000000000E+00  0.00000000000E+00  0.99999998245E-14  0.12509000000E+03  0.12509000000E+03 0.  0.
        -13    1    3    3    0    0  0.12572039515E+01 -0.32830442637E+02 -0.39090495748E+02  0.51063651920E+02  0.10566000000E+00 0.  1.
         23    2    1    0    0    0 -0.82139421354E+01  0.10237813951E+02 -0.24114464639E+02  0.97634780374E+02  0.93695043914E+02 0.  0.
         13    1    3    3    0    0 -0.94711460869E+01  0.43068256588E+02  0.14976031110E+02  0.46571128455E+02  0.10566000000E+00 0. -1.
         22    1    1    0    0    0  0.82139421354E+01 -0.10237813951E+02  0.24114464639E+02  0.27455219626E+02  0.00000000000E+00 0.  1.
</event>
<event>
 5    1  0.1261138E-009  0.9118800E+02  0.7561462E-02  0.1125453E+00
         25   -1    0    0    0    0  0.00000000000E+00  0.00000000000E+00  0.99999998245E-14  0.12509000000E+03  0.12509000000E+03 0.  0.
        -13    1    3    3    0    0  0.20462931069E+02 -0.52855125895E+02 -0.75924994017E+01  0.57184378046E+02  0.10566000000E+00 0.  1.
         23    2    1    0    0    0  0.18823103124E+02 -0.17807430012E+02  0.11055574663E+02  0.96918391847E+02  0.92733678738E+02 0.  0.
         13    1    3    3    0    0 -0.16398279455E+01  0.35047695883E+02  0.18648074064E+02  0.39734013801E+02  0.10566000000E+00 0. -1.
         22    1    1    0    0    0 -0.18823103124E+02  0.17807430012E+02 -0.11055574663E+02  0.28171608153E+02  0.00000000000E+00 0. -1.
</event>
<event>
 5    1  0.1261138E-009  0.9118800E+02  0.7561462E-02  0.1125453E+00
         25   -1    0    0    0    0  0.00000000000E+00  0.00000000000E+00  0.99999998245E-14  0.12509000000E+03  0.12509000000E+03 0.  0.
        -13    1    3    3    0    0  0.50531358867E+02 -0.21464573920E+02 -0.74939880110E+01  0.55410442904E+02  0.10566000000E+00 0. -1.
         23    2    1    0    0    0  0.12075483540E+02 -0.18079994986E+02 -0.19547294558E+02  0.95853032887E+02  0.91285287247E+02 0.  0.
         13    1    3    3    0    0 -0.38455875327E+02  0.33845789345E+01 -0.12053306547E+02  0.40442589983E+02  0.10566000000E+00 0.  1.
         22    1    1    0    0    0 -0.12075483540E+02  0.18079994986E+02  0.19547294558E+02  0.29236967113E+02  0.00000000000E+00 0. -1.
</event>
<event>
 5    1  0.1261138E-009  0.9118800E+02  0.7561462E-02  0.1125453E+00
         25   -1    0    0    0    0  0.00000000000E+00  0.00000000000E+00  0.99999998245E-14  0.12509000000E+03  0.12509000000E+03 0.  0.
        -13    1    3    3    0    0  0.23979012141E+02 -0.28498734773E+02 -0.40174539658E+01  0.37460939755E+02  0.10566000000E+00 0.  1.
         23    2    1    0    0    0 -0.23433619023E+02 -0.48842819313E+01  0.18320436356E+02  0.94946524773E+02  0.90034512648E+02 0.  0.
         13    1    3    3    0    0 -0.47412631164E+02  0.23614452841E+02  0.22337890322E+02  0.57485585018E+02  0.10566000000E+00 0. -1.
         22    1    1    0    0    0  0.23433619023E+02  0.48842819313E+01 -0.18320436356E+02  0.30143475227E+02  0.00000000000E+00 0. -1.
</event>
<event>
 5    1  0.1261138E-009  0.9118800E+02  0.7561462E-02  0.1125453E+00
         25   -1    0    0    0    0  0.00000000000E+00  0.00000000000E+00  0.99999998245E-14  0.12509000000E+03  0.12509000000E+03 0.  0.
        -13    1    3    3    0    0 -0.12298754320E+02  0.82280279886E+01  0.37027745610E+02  0.39875116444E+02  0.10566000000E+00 0. -1.
         23    2    1    0    0    0 -0.16691907907E+02  0.15310277588E+02 -0.18388919493E+02  0.95915066418E+02  0.91370253455E+02 0.  0.
         13    1    3    3    0    0 -0.43931535878E+01  0.70822495992E+01 -0.55416665104E+02  0.56039949974E+02  0.10566000000E+00 0.  1.
         22    1    1    0    0    0  0.16691907907E+02 -0.15310277588E+02  0.18388919493E+02  0.29174933582E+02  0.00000000000E+00 0.  1.
</event>
<event>
 5    1  0.1261138E-009  0.9118800E+02  0.7561462E-02  0.1125453E+00
         25   -1    0    0    0    0  0.00000000000E+00  0.00000000000E+00  0.99999998245E-14  0.12509000000E+03  0.12509000000E+03 0.  0.
        -13    1    3    3    0    0 -0.73004042451E+01 -0.14575026808E+02  0.30221986730E+02  0.34338126835E+02  0.10566000000E+00 0.  1.
         23    2    1    0    0    0  0.16213224870E+02  0.18902166756E+01 -0.24219208126E+02  0.95883637302E+02  0.91327215441E+02 0.  0.
         13    1    3    3    0    0  0.23513629115E+02  0.16465243484E+02 -0.54441194857E+02  0.61545510467E+02  0.10566000000E+00 0. -1.
         22    1    1    0    0    0 -0.16213224870E+02 -0.18902166756E+01  0.24219208126E+02  0.29206362698E+02  0.00000000000E+00 0. -1.
</event>
<event>
 5    1  0.1261138E-009  0.9118800E+02  0.7561462E-02  0.1125453E+00
         25   -1    0    0    0    0  0.00000000000E+00  0.00000000000E+00  0.99999998245E-14  0.12509000000E+03  0.12509000000E+03 0.  0.
        -13    1    3    3    0    0 -0.87669123026E+01 -0.11554107502E+02 -0.37266381754E+02  0.39989380147E+02  0.10566000000E+00 0. -1.
         23    2    1    0    0    0  0.29467048717E+02 -0.36795224641E+01  0.19595760733E+01  0.95329526481E+02  0.90565075140E+02 0.  0.
         13    1    3    3    0    0  0.38233961020E+02  0.78745850382E+01  0.39225957827E+02  0.55340146334E+02  0.10566000000E+00 0.  1.
         22    1    1    0    0    0 -0.29467048717E+02  0.36795224641E+01 -0.19595760733E+01  0.29760473519E+02  0.00000000000E+00 0.  1.
</event>
<event>
 5    1  0.1261138E-009  0.9118800E+02  0.7561462E-02  0.1125453E+00
         25   -1    0    0    0    0  0.00000000000E+00  0.00000000000E+00  0.99999998245E-14  0.12509000000E+03  0.12509000000E+03 0.  0.
        -13    1    3    3    0    0 -0.32197470393E+02 -0.38775594765E+01 -0.31716849712E+01  0.32585016753E+02  0.10566000000E+00 0.  1.
         23    2    1    0    0    0  0.14202402015E+02 -0.24031599030E+02  0.22428119489E+02  0.89281530070E+02  0.81785971247E+02 0.  0.
         13    1    3    3    0    0  0.46399872408E+02 -0.20154039553E+02  0.25599804460E+02  0.56696513317E+02  0.10566000000E+00 0. -1.
         22    1    1    0    0    0 -0.14202402015E+02  0.24031599030E+02 -0.22428119489E+02  0.35808469930E+02  0.00000000000E+00 0. -1.
</event>
<event>
 5    1  0.1261138E-009  0.9118800E+02  0.7561462E-02  0.1125453E+00
         25   -1    0    0    0    0  0.00000000000E+00  0.00000000000E+00  0.99999998245E-14  0.12509000000E+03  0.12509000000E+03 0.  0.
        -13    1    3    3    0    0 -0.29109812084E+01  0.31183734249E+02 -0.18407972992E+02  0.36328552503E+02  0.10566000000E+00 0.  1.
         23    2    1    0    0    0  0.23631999632E+02 -0.11228688781E+02  0.13477801054E+02  0.95658622533E+02  0.91018493095E+02 0.  0.
         13    1    3    3    0    0  0.26542980841E+02 -0.42412423030E+02  0.31885774046E+02  0.59330070029E+02  0.10566000000E+00 0. -1.
         22    1    1    0    0    0 -0.23631999632E+02  0.11228688781E+02 -0.13477801054E+02  0.29431377467E+02  0.00000000000E+00 0. -1.
</event>
<event>
 5    1  0.1261138E-009  0.9118800E+02  0.7561462E-02  0.1125453E+00
         25   -1    0    0    0    0  0.00000000000E+00  0.00000000000E+00  0.99999998245E-14  0.12509000000E+03  0.12509000000E+03 0.  0.
        -13    1    3    3    0    0 -0.36482072849E+02 -0.81606462863E+01 -0.25419433638E+01  0.37470127132E+02  0.10566000000E+00 0.  1.
         23    2    1    0    0    0  0.10875809944E+02  0.12539022480E+02  0.24263681519E+02  0.95692099266E+02  0.91064489755E+02 0.  0.
         13    1    3    3    0    0  0.47357882794E+02  0.20699668766E+02  0.26805624883E+02  0.58221972134E+02  0.10566000000E+00 0. -1.
         22    1    1    0    0    0 -0.10875809944E+02 -0.12539022480E+02 -0.24263681519E+02  0.29397900734E+02  0.00000000000E+00 0. -1.
</event>
<event>
 5    1  0.1261138E-009  0.9118800E+02  0.7561462E-02  0.1125453E+00
         25   -1    0    0    0    0  0.00000000000E+00  0.00000000000E+00  0.99999998245E-14  0.12509000000E+03  0.12509000000E+03 0.  0.
        -13    1    3    3    0    0  0.30521839578E+02 -0.47170527639E+02  0.10051284295E+02  0.57076097002E+02  0.10566000000E+00 0.  1.
         23    2    1    0    0    0 -0.20994663308E+01 -0.24616650878E+02  0.13590411578E+02  0.96892720943E+02  0.92699044362E+02 0.  0.
         13    1    3    3    0    0 -0.32621305909E+02  0.22553876761E+02  0.35391272833E+01  0.39816623942E+02  0.10566000000E+00 0. -1.
         22    1    1    0    0    0  0.20994663308E+01  0.24616650878E+02 -0.13590411578E+02  0.28197279057E+02  0.00000000000E+00 0.  1.
</event>
<event>
 5    1  0.1261138E-009  0.9118800E+02  0.7561462E-02  0.1125453E+00
         25   -1    0    0    0    0  0.00000000000E+00  0.00000000000E+00  0.99999998245E-14  0.12509000000E+03  0.12509000000E+03 0.  0.
        -13    1    3    3    0    0  0.39975313628E+02  0.28368802703E+02 -0.28722992438E+02  0.56814048659E+02  0.10566000000E+00 0.  1.
         23    2    1    0    0    0  0.29532161423E+02  0.36959543471E+01 -0.10834387963E+01  0.95307748969E+02  0.90534990678E+02 0.  0.
         13    1    3    3    0    0 -0.10443152205E+02 -0.24672848356E+02  0.27639553642E+02  0.38493700310E+02  0.10566000000E+00 0. -1.
         22    1    1    0    0    0 -0.29532161423E+02 -0.36959543471E+01  0.10834387963E+01  0.29782251031E+02  0.00000000000E+00 0.  1.
</event>
<event>
 5    1  0.1261138E-009  0.9118800E+02  0.7561462E-02  0.1125453E+00
         25   -1    0    0    0    0  0.00000000000E+00  0.00000000000E+00  0.99999998245E-14  0.12509000000E+03  0.12509000000E+03 0.  0.
        -13    1    3    3    0    0  0.48619114593E+00  0.22513277274E+02  0.36379227939E+02  0.42784850414E+02  0.10566000000E+00 0. -1.
         23    2    1    0    0    0 -0.15288134213E+02 -0.21886673537E+02  0.12434808250E+02  0.95638718492E+02  0.90991134142E+02 0.  0.
         13    1    3    3    0    0 -0.15774325359E+02 -0.44399950811E+02 -0.23944419689E+02  0.52853868078E+02  0.10566000000E+00 0.  1.
         22    1    1    0    0    0  0.15288134213E+02  0.21886673537E+02 -0.12434808250E+02  0.29451281508E+02  0.00000000000E+00 0. -1.
</event>
<event>
 5    1  0.1261138E-009  0.9118800E+02  0.7561462E-02  0.1125453E+00
         25   -1    0    0    0    0  0.00000000000E+00  0.00000000000E+00  0.99999998245E-14  0.12509000000E+03  0.12509000000E+03 0.  0.
        -13    1    3    3    0    0  0.30436474977E+02 -0.55773702985E+01  0.13724187979E+02  0.33850414594E+02  0.10566000000E+00 0.  1.
         23    2    1    0    0    0 -0.20894389741E+02 -0.97019933433E+01 -0.19308964327E+02  0.95031052898E+02  0.90151875821E+02 0.  0.
         13    1    3    3    0    0 -0.51330864718E+02 -0.41246230448E+01 -0.33033152306E+02  0.61180638304E+02  0.10566000000E+00 0. -1.
         22    1    1    0    0    0  0.20894389741E+02  0.97019933433E+01  0.19308964327E+02  0.30058947102E+02  0.00000000000E+00 0. -1.
</event>
<event>
 4    1  0.1261138E-009  0.9118800E+02  0.7561462E-02  0.1125453E+00
         25   -1    0    0    0    0  0.00000000000E+00  0.00000000000E+00  0.99999998245E-14  0.12509000000E+03  0.12509000000E+03 0.  0.
        -13    1    1    0    0    0  0.12731475010E+02 -0.14927047538E+02  0.58337787416E+01  0.20468300920E+02  0.10566000000E+00 0.  1.
         13    1    1    0    0    0 -0.26785589238E+02 -0.30009883641E+02  0.25900206544E+02  0.47842374210E+02  0.10566000000E+00 0. -1.
         22    1    1    0    0    0  0.14054114228E+02  0.44936931179E+02 -0.31733985286E+02  0.56779324869E+02  0.00000000000E+00 0. -1.
</event>
<event>
 5    1  0.1261138E-009  0.9118800E+02  0.7561462E-02  0.1125453E+00
         25   -1    0    0    0    0  0.00000000000E+00  0.00000000000E+00  0.99999998245E-14  0.12509000000E+03  0.12509000000E+03 0.  0.
        -13    1    3    3    0    0 -0.28660997091E+01 -0.21515981220E+02 -0.24790075167E+02  0.32950128470E+02  0.10566000000E+00 0.  1.
         23    2    1    0    0    0 -0.15114899459E+01  0.23548346232E+02  0.18233626986E+02  0.95269296367E+02  0.90481846052E+02 0.  0.
         13    1    3    3    0    0  0.13546097632E+01  0.45064327453E+02  0.43023702152E+02  0.62319167896E+02  0.10566000000E+00 0. -1.
         22    1    1    0    0    0  0.15114899459E+01 -0.23548346232E+02 -0.18233626986E+02  0.29820703633E+02  0.00000000000E+00 0. -1.
</event>
<event>
 5    1  0.1261138E-009  0.9118800E+02  0.7561462E-02  0.1125453E+00
         25   -1    0    0    0    0  0.00000000000E+00  0.00000000000E+00  0.99999998245E-14  0.12509000000E+03  0.12509000000E+03 0.  0.
        -13    1    3    3    0    0  0.21321322296E+02  0.30017207472E+02  0.38897732892E+02  0.53560025365E+02  0.10566000000E+00 0. -1.
         23    2    1    0    0    0 -0.11087249766E+02  0.28611877241E+01  0.24189405361E+02  0.98327323858E+02  0.94615124493E+02 0.  0.
         13    1    3    3    0    0 -0.32408572062E+02 -0.27156019748E+02 -0.14708327532E+02  0.44767298494E+02  0.10566000000E+00 0.  1.
         22    1    1    0    0    0  0.11087249766E+02 -0.28611877241E+01 -0.24189405361E+02  0.26762676142E+02  0.00000000000E+00 0. -1.
</event>
<event>
 5    1  0.1261138E-009  0.9118800E+02  0.7561462E-02  0.1125453E+00
         25   -1    0    0    0    0  0.00000000000E+00  0.00000000000E+00  0.99999998245E-14  0.12509000000E+03  0.12509000000E+03 0.  0.
        -13    1    3    3    0    0 -0.35370743290E+02 -0.15975024013E+02 -0.44908094987E+02  0.59355193812E+02  0.10566000000E+00 0.  1.
         23    2    1    0    0    0 -0.28602930670E+01 -0.41733627033E+01 -0.25658164587E+02  0.98937760275E+02  0.95418765270E+02 0.  0.
         13    1    3    3    0    0  0.32510450223E+02  0.11801661309E+02  0.19249930400E+02  0.39582566463E+02  0.10566000000E+00 0. -1.
         22    1    1    0    0    0  0.28602930670E+01  0.41733627033E+01  0.25658164587E+02  0.26152239725E+02  0.00000000000E+00 0.  1.
</event>
<event>
 5    1  0.1261138E-009  0.9118800E+02  0.7561462E-02  0.1125453E+00
         25   -1    0    0    0    0  0.00000000000E+00  0.00000000000E+00  0.99999998245E-14  0.12509000000E+03  0.12509000000E+03 0.  0.
        -13    1    3    3    0    0 -0.84790538985E+01  0.20075824288E+02  0.30119594038E+02  0.37177065307E+02  0.10566000000E+00 0. -1.
         23    2    1    0    0    0 -0.19787279286E+02 -0.19494968440E+02 -0.10869235548E+02  0.95261649435E+02  0.90471273649E+02 0.  0.
         13    1    3    3    0    0 -0.11308225387E+02 -0.39570792728E+02 -0.40988829585E+02  0.58084584128E+02  0.10566000000E+00 0.  1.
         22    1    1    0    0    0  0.19787279286E+02  0.19494968440E+02  0.10869235548E+02  0.29828350565E+02  0.00000000000E+00 0.  1.
</event>
<event>
 5    1  0.1261138E-009  0.9118800E+02  0.7561462E-02  0.1125453E+00
         25   -1    0    0    0    0  0.00000000000E+00  0.00000000000E+00  0.99999998245E-14  0.12509000000E+03  0.12509000000E+03 0.  0.
        -13    1    3    3    0    0  0.21689893831E+02 -0.27744700328E+02  0.18611991724E+02  0.39832615915E+02  0.10566000000E+00 0. -1.
         23    2    1    0    0    0  0.86345015784E+01 -0.65314761133E+01 -0.29311492965E+02  0.93842945457E+02  0.88487965253E+02 0.  0.
         13    1    3    3    0    0 -0.13055392253E+02  0.21213224214E+02 -0.47923484689E+02  0.54010329542E+02  0.10566000000E+00 0.  1.
         22    1    1    0    0    0 -0.86345015784E+01  0.65314761133E+01  0.29311492965E+02  0.31247054543E+02  0.00000000000E+00 0. -1.
</event>
<event>
 5    1  0.1261138E-009  0.9118800E+02  0.7561462E-02  0.1125453E+00
         25   -1    0    0    0    0  0.00000000000E+00  0.00000000000E+00  0.99999998245E-14  0.12509000000E+03  0.12509000000E+03 0.  0.
        -13    1    3    3    0    0 -0.28379524557E+02  0.31372190371E+02  0.39062783035E+01  0.42483901857E+02  0.10566000000E+00 0.  1.
         23    2    1    0    0    0 -0.21825247427E+02 -0.18758204157E+02  0.12407115776E+02  0.93750756705E+02  0.88357547569E+02 0.  0.
         13    1    3    3    0    0  0.65542771301E+01 -0.50130394528E+02  0.85008374729E+01  0.51266854848E+02  0.10566000000E+00 0. -1.
         22    1    1    0    0    0  0.21825247427E+02  0.18758204157E+02 -0.12407115776E+02  0.31339243295E+02  0.00000000000E+00 0. -1.
</event>
<event>
 5    1  0.1261138E-009  0.9118800E+02  0.7561462E-02  0.1125453E+00
         25   -1    0    0    0    0  0.00000000000E+00  0.00000000000E+00  0.99999998245E-14  0.12509000000E+03  0.12509000000E+03 0.  0.
        -13    1    3    3    0    0  0.31214298826E+02 -0.31877707486E+02  0.41442710822E+02  0.60893596791E+02  0.10566000000E+00 0. -1.
         23    2    1    0    0    0  0.10991202107E+02 -0.10049718775E+02  0.27634648712E+02  0.93697689148E+02  0.88282386528E+02 0.  0.
         13    1    3    3    0    0 -0.20223096719E+02  0.21827988711E+02 -0.13808062110E+02  0.32804092357E+02  0.10566000000E+00 0.  1.
         22    1    1    0    0    0 -0.10991202107E+02  0.10049718775E+02 -0.27634648712E+02  0.31392310852E+02  0.00000000000E+00 0. -1.
</event>
<event>
 5    1  0.1261138E-009  0.9118800E+02  0.7561462E-02  0.1125453E+00
         25   -1    0    0    0    0  0.00000000000E+00  0.00000000000E+00  0.99999998245E-14  0.12509000000E+03  0.12509000000E+03 0.  0.
        -13    1    3    3    0    0 -0.15969035124E+02  0.10944002405E+02 -0.58718854812E+02  0.61827957639E+02  0.10566000000E+00 0.  1.
         23    2    1    0    0    0 -0.12842219301E+02  0.12714538162E+02 -0.36222354489E+02  0.84609868553E+02  0.74297973152E+02 0.  0.
         13    1    3    3    0    0  0.31268158229E+01  0.17705357572E+01  0.22496500323E+02  0.22781910913E+02  0.10566000000E+00 0. -1.
         22    1    1    0    0    0  0.12842219301E+02 -0.12714538162E+02  0.36222354489E+02  0.40480131447E+02  0.00000000000E+00 0.  1.
</event>
<event>
 5    1  0.1261138E-009  0.9118800E+02  0.7561462E-02  0.1125453E+00
         25   -1    0    0    0    0  0.00000000000E+00  0.00000000000E+00  0.99999998245E-14  0.12509000000E+03  0.12509000000E+03 0.  0.
        -13    1    3    3    0    0 -0.56511911572E+02  0.10672775219E+02  0.98909776949E+01  0.58355350091E+02  0.10566000000E+00 0.  1.
         23    2    1    0    0    0 -0.22634214148E+02 -0.52917249851E+01  0.16762924753E+02  0.96431569309E+02  0.92074654003E+02 0.  0.
         13    1    3    3    0    0  0.33877697424E+02 -0.15964500204E+02  0.68719470579E+01  0.38076219218E+02  0.10566000000E+00 0. -1.
         22    1    1    0    0    0  0.22634214148E+02  0.52917249851E+01 -0.16762924753E+02  0.28658430691E+02  0.00000000000E+00 0.  1.
</event>
<event>
 5    1  0.1261138E-009  0.9118800E+02  0.7561462E-02  0.1125453E+00
         25   -1    0    0    0    0  0.00000000000E+00  0.00000000000E+00  0.99999998245E-14  0.12509000000E+03  0.12509000000E+03 0.  0.
        -13    1    3    3    0    0  0.17206539153E+02  0.45963258943E+02 -0.24496629632E+02  0.54852367220E+02  0.10566000000E+00 0.  1.
         23    2    1    0    0    0  0.83414064925E+00  0.25603682223E+02  0.95346991646E+01  0.97755867086E+02  0.93856564648E+02 0.  0.
         13    1    3    3    0    0 -0.16372398504E+02 -0.20359576720E+02  0.34031328797E+02  0.42903499865E+02  0.10566000000E+00 0. -1.
         22    1    1    0    0    0 -0.83414064925E+00 -0.25603682223E+02 -0.95346991646E+01  0.27334132914E+02  0.00000000000E+00 0. -1.
</event>
<event>
 5    1  0.1261138E-009  0.9118800E+02  0.7561462E-02  0.1125453E+00
         25   -1    0    0    0    0  0.00000000000E+00  0.00000000000E+00  0.99999998245E-14  0.12509000000E+03  0.12509000000E+03 0.  0.
        -13    1    3    3    0    0 -0.25554366096E+02 -0.32785384033E+02  0.25131026351E+02  0.48574547680E+02  0.10566000000E+00 0. -1.
         23    2    1    0    0    0  0.26487094412E+01  0.92244527085E+01  0.24061900095E+02  0.99184764512E+02  0.95742029881E+02 0.  0.
         13    1    3    3    0    0  0.28203075537E+02  0.42009836742E+02 -0.10691262559E+01  0.50610216833E+02  0.10566000000E+00 0.  1.
         22    1    1    0    0    0 -0.26487094412E+01 -0.92244527085E+01 -0.24061900095E+02  0.25905235488E+02  0.00000000000E+00 0.  1.
</event>
<event>
 5    1  0.1261138E-009  0.9118800E+02  0.7561462E-02  0.1125453E+00
         25   -1    0    0    0    0  0.00000000000E+00  0.00000000000E+00  0.99999998245E-14  0.12509000000E+03  0.12509000000E+03 0.  0.
        -13    1    3    3    0    0 -0.12620736756E+02  0.32454644958E+02  0.58554448619E+01  0.35311249966E+02  0.10566000000E+00 0.  1.
         23    2    1    0    0    0  0.21722841745E+02 -0.12774103401E+02 -0.14945467064E+02  0.95791082666E+02  0.91200356147E+02 0.  0.
         13    1    3    3    0    0  0.34343578501E+02 -0.45228748359E+02 -0.20800911926E+02  0.60479832700E+02  0.10566000000E+00 0. -1.
         22    1    1    0    0    0 -0.21722841745E+02  0.12774103401E+02  0.14945467064E+02  0.29298917334E+02  0.00000000000E+00 0. -1.
</event>
<event>
 5    1  0.1261138E-009  0.9118800E+02  0.7561462E-02  0.1125453E+00
         25   -1    0    0    0    0  0.00000000000E+00  0.00000000000E+00  0.99999998245E-14  0.12509000000E+03  0.12509000000E+03 0.  0.
        -13    1    3    3    0    0  0.32068821538E+02 -0.11494660306E+02 -0.22590705099E+02  0.40876492649E+02  0.10566000000E+00 0.  1.
         23    2    1    0    0    0 -0.12297371795E+01 -0.18942859798E+02  0.21357516755E+02  0.96515750880E+02  0.92188949745E+02 0.  0.
         13    1    3    3    0    0 -0.33298558718E+02 -0.74481994913E+01  0.43948221854E+02  0.55639258231E+02  0.10566000000E+00 0. -1.
         22    1    1    0    0    0  0.12297371795E+01  0.18942859798E+02 -0.21357516755E+02  0.28574249120E+02  0.00000000000E+00 0. -1.
</event>
<event>
 5    1  0.1261138E-009  0.9118800E+02  0.7561462E-02  0.1125453E+00
         25   -1    0    0    0    0  0.00000000000E+00  0.00000000000E+00  0.99999998245E-14  0.12509000000E+03  0.12509000000E+03 0.  0.
        -13    1    3    3    0    0  0.65675109344E+01  0.58294196970E+01 -0.30162352120E+02  0.31414852910E+02  0.10566000000E+00 0. -1.
         23    2    1    0    0    0 -0.89859036015E+00 -0.15599471775E+02  0.27543950521E+02  0.93422663602E+02  0.87891830564E+02 0.  0.
         13    1    3    3    0    0 -0.74661012946E+01 -0.21428891472E+02  0.57706302641E+02  0.62007810692E+02  0.10566000000E+00 0.  1.
         22    1    1    0    0    0  0.89859036015E+00  0.15599471775E+02 -0.27543950521E+02  0.31667336398E+02  0.00000000000E+00 0.  1.
</event>
<event>
 5    1  0.1261138E-009  0.9118800E+02  0.7561462E-02  0.1125453E+00
         25   -1    0    0    0    0  0.00000000000E+00  0.00000000000E+00  0.99999998245E-14  0.12509000000E+03  0.12509000000E+03 0.  0.
        -13    1    3    3    0    0 -0.43507782093E+01 -0.39207856292E+02 -0.35087201113E+02  0.52794962942E+02  0.10566000000E+00 0.  1.
         23    2    1    0    0    0 -0.97498075843E+01  0.21627354771E+01 -0.28318660951E+02  0.95061967585E+02  0.90194761213E+02 0.  0.
         13    1    3    3    0    0 -0.53990293750E+01  0.41370591769E+02  0.67685401620E+01  0.42267004643E+02  0.10566000000E+00 0. -1.
         22    1    1    0    0    0  0.97498075843E+01 -0.21627354771E+01  0.28318660951E+02  0.30028032415E+02  0.00000000000E+00 0.  1.
</event>
<event>
 5    1  0.1261138E-009  0.9118800E+02  0.7561462E-02  0.1125453E+00
         25   -1    0    0    0    0  0.00000000000E+00  0.00000000000E+00  0.99999998245E-14  0.12509000000E+03  0.12509000000E+03 0.  0.
        -13    1    3    3    0    0  0.13087747490E+02 -0.19005975323E+02  0.56751906933E+01  0.23764157586E+02  0.10566000000E+00 0.  1.
         23    2    1    0    0    0 -0.33728966211E+02  0.31282520376E+01 -0.24117138378E+02  0.83507966789E+02  0.72419023959E+02 0.  0.
         13    1    3    3    0    0 -0.46816713701E+02  0.22134227360E+02 -0.29792329071E+02  0.59743809203E+02  0.10566000000E+00 0. -1.
         22    1    1    0    0    0  0.33728966211E+02 -0.31282520376E+01  0.24117138378E+02  0.41582033211E+02  0.00000000000E+00 0. -1.
</event>
<event>
 5    1  0.1261138E-009  0.9118800E+02  0.7561462E-02  0.1125453E+00
         25   -1    0    0    0    0  0.00000000000E+00  0.00000000000E+00  0.99999998245E-14  0.12509000000E+03  0.12509000000E+03 0.  0.
        -13    1    3    3    0    0 -0.41985589903E+01  0.42168829700E+02  0.64429395180E+01  0.42864445984E+02  0.10566000000E+00 0. -1.
         23    2    1    0    0    0  0.15530797266E+02  0.48689538277E+00 -0.22820861398E+02  0.97481406306E+02  0.93490053640E+02 0.  0.
         13    1    3    3    0    0  0.19729356256E+02 -0.41681934317E+02 -0.29263800916E+02  0.54616960322E+02  0.10566000000E+00 0.  1.
         22    1    1    0    0    0 -0.15530797266E+02 -0.48689538277E+00  0.22820861398E+02  0.27608593694E+02  0.00000000000E+00 0.  1.
</event>
<event>
 5    1  0.1261138E-009  0.9118800E+02  0.7561462E-02  0.1125453E+00
         25   -1    0    0    0    0  0.00000000000E+00  0.00000000000E+00  0.99999998245E-14  0.12509000000E+03  0.12509000000E+03 0.  0.
        -13    1    3    3    0    0 -0.41306134493E+02 -0.41946988615E+02 -0.47121765359E+01  0.59058973681E+02  0.10566000000E+00 0. -1.
         23    2    1    0    0    0 -0.11659769681E+02 -0.23628386610E+02 -0.14175036639E+02  0.95170398623E+02  0.90345017724E+02 0.  0.
         13    1    3    3    0    0  0.29646364812E+02  0.18318602004E+02 -0.94628601035E+01  0.36111424942E+02  0.10566000000E+00 0.  1.
         22    1    1    0    0    0  0.11659769681E+02  0.23628386610E+02  0.14175036639E+02  0.29919601377E+02  0.00000000000E+00 0. -1.
</event>
<event>
 5    1  0.1261138E-009  0.9118800E+02  0.7561462E-02  0.1125453E+00
         25   -1    0    0    0    0  0.00000000000E+00  0.00000000000E+00  0.99999998245E-14  0.12509000000E+03  0.12509000000E+03 0.  0.
        -13    1    3    3    0    0 -0.32213464850E+02 -0.13487600351E+02  0.22661049929E+02  0.41631202587E+02  0.10566000000E+00 0.  1.
         23    2    1    0    0    0  0.20509085444E+02 -0.34635884120E+00  0.20619896830E+02  0.96005249778E+02  0.91493635240E+02 0.  0.
         13    1    3    3    0    0  0.52722550294E+02  0.13141241510E+02 -0.20411530989E+01  0.54374047192E+02  0.10566000000E+00 0. -1.
         22    1    1    0    0    0 -0.20509085444E+02  0.34635884120E+00 -0.20619896830E+02  0.29084750222E+02  0.00000000000E+00 0. -1.
</event>
<event>
 5    1  0.1261138E-009  0.9118800E+02  0.7561462E-02  0.1125453E+00
         25   -1    0    0    0    0  0.00000000000E+00  0.00000000000E+00  0.99999998245E-14  0.12509000000E+03  0.12509000000E+03 0.  0.
        -13    1    3    3    0    0 -0.28851156738E+02 -0.31947125402E+02  0.31208375799E+02  0.53169370417E+02  0.10566000000E+00 0. -1.
         23    2    1    0    0    0 -0.42713034218E+01 -0.28432201547E+02 -0.37993765046E+01  0.96088803826E+02  0.91607799019E+02 0.  0.
         13    1    3    3    0    0  0.24579853316E+02  0.35149238551E+01 -0.35007752304E+02  0.42919433409E+02  0.10566000000E+00 0.  1.
         22    1    1    0    0    0  0.42713034218E+01  0.28432201547E+02  0.37993765046E+01  0.29001196174E+02  0.00000000000E+00 0. -1.
</event>
<event>
 5    1  0.1261138E-009  0.9118800E+02  0.7561462E-02  0.1125453E+00
         25   -1    0    0    0    0  0.00000000000E+00  0.00000000000E+00  0.99999998245E-14  0.12509000000E+03  0.12509000000E+03 0.  0.
        -13    1    3    3    0    0  0.55934551194E+02 -0.15781180326E+02 -0.19375444199E+02  0.61262865356E+02  0.10566000000E+00 0.  1.
         23    2    1    0    0    0  0.23395560564E+02 -0.15740698729E+02 -0.73836799039E+01  0.95941405188E+02  0.91406305307E+02 0.  0.
         13    1    3    3    0    0 -0.32538990629E+02  0.40481597105E-01  0.11991764295E+02  0.34678539832E+02  0.10566000000E+00 0. -1.
         22    1    1    0    0    0 -0.23395560564E+02  0.15740698729E+02  0.73836799039E+01  0.29148594812E+02  0.00000000000E+00 0.  1.
</event>
<event>
 5    1  0.1261138E-009  0.9118800E+02  0.7561462E-02  0.1125453E+00
         25   -1    0    0    0    0  0.00000000000E+00  0.00000000000E+00  0.99999998245E-14  0.12509000000E+03  0.12509000000E+03 0.  0.
        -13    1    3    3    0    0 -0.11776992023E+01 -0.19833265335E+02 -0.40538688324E+02  0.45145783904E+02  0.10566000000E+00 0.  1.
         23    2    1    0    0    0  0.23988271586E+02  0.88667325414E+01 -0.19227106796E+01  0.99443305554E+02  0.96079228158E+02 0.  0.
         13    1    3    3    0    0  0.25165970789E+02  0.28699997876E+02  0.38615977644E+02  0.54297521650E+02  0.10566000000E+00 0. -1.
         22    1    1    0    0    0 -0.23988271586E+02 -0.88667325414E+01  0.19227106796E+01  0.25646694446E+02  0.00000000000E+00 0. -1.
</event>
<event>
 5    1  0.1261138E-009  0.9118800E+02  0.7561462E-02  0.1125453E+00
         25   -1    0    0    0    0  0.00000000000E+00  0.00000000000E+00  0.99999998245E-14  0.12509000000E+03  0.12509000000E+03 0.  0.
        -13    1    3    3    0    0 -0.19892799487E+02  0.29289184095E+02  0.38924878037E+02  0.52618790090E+02  0.10566000000E+00 0. -1.
         23    2    1    0    0    0  0.64449538432E+01  0.27941843836E+02  0.43765754905E+01  0.96082440985E+02  0.91599110179E+02 0.  0.
         13    1    3    3    0    0  0.26337753330E+02 -0.13473402590E+01 -0.34548302546E+02  0.43463650895E+02  0.10566000000E+00 0.  1.
         22    1    1    0    0    0 -0.64449538432E+01 -0.27941843836E+02 -0.43765754905E+01  0.29007559015E+02  0.00000000000E+00 0.  1.
</event>
<event>
 5    1  0.1261138E-009  0.9118800E+02  0.7561462E-02  0.1125453E+00
         25   -1    0    0    0    0  0.00000000000E+00  0.00000000000E+00  0.99999998245E-14  0.12509000000E+03  0.12509000000E+03 0.  0.
        -13    1    3    3    0    0  0.32675391208E+02 -0.39960294800E+02 -0.59336829575E+01  0.51958888639E+02  0.10566000000E+00 0.  1.
         23    2    1    0    0    0  0.14560996920E+02 -0.50406277000E+01 -0.25037567165E+02  0.95690844766E+02  0.91062766505E+02 0.  0.
         13    1    3    3    0    0 -0.18114394288E+02  0.34919667100E+02 -0.19103884208E+02  0.43731956127E+02  0.10566000000E+00 0. -1.
         22    1    1    0    0    0 -0.14560996920E+02  0.50406277000E+01  0.25037567165E+02  0.29399155234E+02  0.00000000000E+00 0.  1.
</event>
<event>
 5    1  0.1261138E-009  0.9118800E+02  0.7561462E-02  0.1125453E+00
         25   -1    0    0    0    0  0.00000000000E+00  0.00000000000E+00  0.99999998245E-14  0.12509000000E+03  0.12509000000E+03 0.  0.
        -13    1    3    3    0    0 -0.27861925748E+02 -0.20868846545E+02 -0.19561510091E+02  0.39930683735E+02  0.10566000000E+00 0. -1.
         23    2    1    0    0    0  0.12902355772E+02  0.19712019526E+02 -0.13917921552E+02  0.97726830619E+02  0.93817857491E+02 0.  0.
         13    1    3    3    0    0  0.40764281520E+02  0.40580866071E+02  0.56435885394E+01  0.57796146883E+02  0.10566000000E+00 0.  1.
         22    1    1    0    0    0 -0.12902355772E+02 -0.19712019526E+02  0.13917921552E+02  0.27363169381E+02  0.00000000000E+00 0.  1.
</event>
<event>
 5    1  0.1261138E-009  0.9118800E+02  0.7561462E-02  0.1125453E+00
         25   -1    0    0    0    0  0.00000000000E+00  0.00000000000E+00  0.99999998245E-14  0.12509000000E+03  0.12509000000E+03 0.  0.
        -13    1    3    3    0    0 -0.45876339143E+01 -0.86781285459E+01 -0.34141556503E+02  0.35524827156E+02  0.10566000000E+00 0. -1.
         23    2    1    0    0    0  0.33746589400E+01 -0.15967028805E+02  0.24775389803E+02  0.95422605917E+02  0.90693546895E+02 0.  0.
         13    1    3    3    0    0  0.79622928543E+01 -0.72889002586E+01  0.58916946306E+02  0.59897778761E+02  0.10566000000E+00 0.  1.
         22    1    1    0    0    0 -0.33746589400E+01  0.15967028805E+02 -0.24775389803E+02  0.29667394083E+02  0.00000000000E+00 0.  1.
</event>
<event>
 5    1  0.1261138E-009  0.9118800E+02  0.7561462E-02  0.1125453E+00
         25   -1    0    0    0    0  0.00000000000E+00  0.00000000000E+00  0.99999998245E-14  0.12509000000E+03  0.12509000000E+03 0.  0.
        -13    1    3    3    0    0  0.13788988940E+02 -0.31114070110E+02 -0.77504240649E-01  0.34032906807E+02  0.10566000000E+00 0. -1.
         23    2    1    0    0    0 -0.18880991537E+02  0.20689044136E+02 -0.84182610748E+01  0.95842854700E+02  0.91271338813E+02 0.  0.
         13    1    3    3    0    0 -0.32669980477E+02  0.51803114246E+02 -0.83407568342E+01  0.61809947893E+02  0.10566000000E+00 0.  1.
         22    1    1    0    0    0  0.18880991537E+02 -0.20689044136E+02  0.84182610748E+01  0.29247145300E+02  0.00000000000E+00 0.  1.
</event>
<event>
 5    1  0.1261138E-009  0.9118800E+02  0.7561462E-02  0.1125453E+00
         25   -1    0    0    0    0  0.00000000000E+00  0.00000000000E+00  0.99999998245E-14  0.12509000000E+03  0.12509000000E+03 0.  0.
        -13    1    3    3    0    0 -0.22062275911E+02  0.24776940920E+02  0.30169287757E+01  0.33312968090E+02  0.10566000000E+00 0.  1.
         23    2    1    0    0    0  0.27506428202E+02 -0.11751287997E+02  0.41141022623E+01  0.94896918020E+02  0.89965564803E+02 0.  0.
         13    1    3    3    0    0  0.49568704113E+02 -0.36528228917E+02  0.10971734866E+01  0.61583949930E+02  0.10566000000E+00 0. -1.
         22    1    1    0    0    0 -0.27506428202E+02  0.11751287997E+02 -0.41141022623E+01  0.30193081980E+02  0.00000000000E+00 0. -1.
</event>
<event>
 5    1  0.1261138E-009  0.9118800E+02  0.7561462E-02  0.1125453E+00
         25   -1    0    0    0    0  0.00000000000E+00  0.00000000000E+00  0.99999998245E-14  0.12509000000E+03  0.12509000000E+03 0.  0.
        -13    1    3    3    0    0 -0.27127899497E+02  0.98918512605E+01  0.18664725173E+02  0.34382477839E+02  0.10566000000E+00 0.  1.
         23    2    1    0    0    0  0.29239079134E+02 -0.38852590621E+01 -0.79006572528E+00  0.95583336508E+02  0.90914965916E+02 0.  0.
         13    1    3    3    0    0  0.56366978631E+02 -0.13777110323E+02 -0.19454790899E+02  0.61200858669E+02  0.10566000000E+00 0. -1.
         22    1    1    0    0    0 -0.29239079134E+02  0.38852590621E+01  0.79006572528E+00  0.29506663492E+02  0.00000000000E+00 0. -1.
</event>
<event>
 5    1  0.1261138E-009  0.9118800E+02  0.7561462E-02  0.1125453E+00
         25   -1    0    0    0    0  0.00000000000E+00  0.00000000000E+00  0.99999998245E-14  0.12509000000E+03  0.12509000000E+03 0.  0.
        -13    1    3    3    0    0  0.29769834125E+02 -0.28093989973E+02 -0.17319022490E+02  0.44446315938E+02  0.10566000000E+00 0.  1.
         23    2    1    0    0    0  0.22779811367E+02  0.15636098733E+02  0.90840608609E+01  0.96005166302E+02  0.91493521112E+02 0.  0.
         13    1    3    3    0    0 -0.69900227578E+01  0.43730088706E+02  0.26403083351E+02  0.51558850364E+02  0.10566000000E+00 0. -1.
         22    1    1    0    0    0 -0.22779811367E+02 -0.15636098733E+02 -0.90840608609E+01  0.29084833698E+02  0.00000000000E+00 0. -1.
</event>
<event>
 5    1  0.1261138E-009  0.9118800E+02  0.7561462E-02  0.1125453E+00
         25   -1    0    0    0    0  0.00000000000E+00  0.00000000000E+00  0.99999998245E-14  0.12509000000E+03  0.12509000000E+03 0.  0.
        -13    1    3    3    0    0 -0.24922193182E+02  0.39778687184E+02  0.19444930959E+02  0.50809213447E+02  0.10566000000E+00 0. -1.
         23    2    1    0    0    0 -0.23278742088E+02  0.14057649568E+02 -0.15158530265E+02  0.93956442793E+02  0.88648264270E+02 0.  0.
         13    1    3    3    0    0  0.16434510943E+01 -0.25721037616E+02 -0.34603461223E+02  0.43147229346E+02  0.10566000000E+00 0.  1.
         22    1    1    0    0    0  0.23278742088E+02 -0.14057649568E+02  0.15158530265E+02  0.31133557207E+02  0.00000000000E+00 0.  1.
</event>
<event>
 5    1  0.1261138E-009  0.9118800E+02  0.7561462E-02  0.1125453E+00
         25   -1    0    0    0    0  0.00000000000E+00  0.00000000000E+00  0.99999998245E-14  0.12509000000E+03  0.12509000000E+03 0.  0.
        -13    1    3    3    0    0  0.28010380896E+02 -0.26770536534E+00  0.31496538146E+02  0.42150874052E+02  0.10566000000E+00 0.  1.
         23    2    1    0    0    0 -0.39388590506E+01 -0.24144996987E+02 -0.90296115797E+01  0.99012627138E+02  0.95516862162E+02 0.  0.
         13    1    3    3    0    0 -0.31949239947E+02 -0.23877291622E+02 -0.40526149726E+02  0.56861753086E+02  0.10566000000E+00 0. -1.
         22    1    1    0    0    0  0.39388590506E+01  0.24144996987E+02  0.90296115797E+01  0.26077372862E+02  0.00000000000E+00 0. -1.
</event>
<event>
 5    1  0.1261138E-009  0.9118800E+02  0.7561462E-02  0.1125453E+00
         25   -1    0    0    0    0  0.00000000000E+00  0.00000000000E+00  0.99999998245E-14  0.12509000000E+03  0.12509000000E+03 0.  0.
        -13    1    3    3    0    0  0.48888161321E+01 -0.27673965808E+02 -0.23944150952E+02  0.36919946311E+02  0.10566000000E+00 0.  1.
         23    2    1    0    0    0  0.19739724888E+02  0.77596466979E+01  0.20447474828E+02  0.95628701957E+02  0.90977362874E+02 0.  0.
         13    1    3    3    0    0  0.14850908756E+02  0.35433612506E+02  0.44391625780E+02  0.58708755646E+02  0.10566000000E+00 0. -1.
         22    1    1    0    0    0 -0.19739724888E+02 -0.77596466979E+01 -0.20447474828E+02  0.29461298043E+02  0.00000000000E+00 0. -1.
</event>
<event>
 5    1  0.1261138E-009  0.9118800E+02  0.7561462E-02  0.1125453E+00
         25   -1    0    0    0    0  0.00000000000E+00  0.00000000000E+00  0.99999998245E-14  0.12509000000E+03  0.12509000000E+03 0.  0.
        -13    1    3    3    0    0  0.72436579674E+01  0.40017648828E+02  0.38981457711E+02  0.56333364961E+02  0.10566000000E+00 0. -1.
         23    2    1    0    0    0  0.11718930935E+02  0.26618113613E+02  0.19812260116E+01  0.95938969639E+02  0.91402972186E+02 0.  0.
         13    1    3    3    0    0  0.44752729672E+01 -0.13399535215E+02 -0.37000231700E+02  0.39605604679E+02  0.10566000000E+00 0.  1.
         22    1    1    0    0    0 -0.11718930935E+02 -0.26618113613E+02 -0.19812260116E+01  0.29151030361E+02  0.00000000000E+00 0. -1.
</event>
<event>
 5    1  0.1261138E-009  0.9118800E+02  0.7561462E-02  0.1125453E+00
         25   -1    0    0    0    0  0.00000000000E+00  0.00000000000E+00  0.99999998245E-14  0.12509000000E+03  0.12509000000E+03 0.  0.
        -13    1    3    3    0    0  0.27531253555E+02  0.36245248946E+02 -0.11848994727E+02  0.47032944130E+02  0.10566000000E+00 0. -1.
         23    2    1    0    0    0 -0.18435821686E+02  0.22406681010E+02 -0.22636684909E+01  0.95985652041E+02  0.91466837310E+02 0.  0.
         13    1    3    3    0    0 -0.45967075241E+02 -0.13838567936E+02  0.95853262365E+01  0.48952707911E+02  0.10566000000E+00 0.  1.
         22    1    1    0    0    0  0.18435821686E+02 -0.22406681010E+02  0.22636684909E+01  0.29104347959E+02  0.00000000000E+00 0. -1.
</event>
<event>
 5    1  0.1261138E-009  0.9118800E+02  0.7561462E-02  0.1125453E+00
         25   -1    0    0    0    0  0.00000000000E+00  0.00000000000E+00  0.99999998245E-14  0.12509000000E+03  0.12509000000E+03 0.  0.
        -13    1    3    3    0    0 -0.18920264610E+02 -0.92529458161E+01  0.51631793205E+02  0.55762412545E+02  0.10566000000E+00 0. -1.
         23    2    1    0    0    0 -0.24068367711E+02  0.70567349514E+01  0.15854415483E+02  0.95417684237E+02  0.90686758363E+02 0.  0.
         13    1    3    3    0    0 -0.51481031010E+01  0.16309680768E+02 -0.35777377722E+02  0.39655271692E+02  0.10566000000E+00 0.  1.
         22    1    1    0    0    0  0.24068367711E+02 -0.70567349514E+01 -0.15854415483E+02  0.29672315763E+02  0.00000000000E+00 0. -1.
</event>
<event>
 5    1  0.1261138E-009  0.9118800E+02  0.7561462E-02  0.1125453E+00
         25   -1    0    0    0    0  0.00000000000E+00  0.00000000000E+00  0.99999998245E-14  0.12509000000E+03  0.12509000000E+03 0.  0.
        -13    1    3    3    0    0  0.26008504723E+02  0.12182536860E+02 -0.37043569612E+02  0.46873166481E+02  0.10566000000E+00 0.  1.
         23    2    1    0    0    0 -0.19591202062E+02  0.31674147649E+01 -0.21368195891E+02  0.95927566799E+02  0.91387365439E+02 0.  0.
         13    1    3    3    0    0 -0.45599706785E+02 -0.90151220952E+01  0.15675373721E+02  0.49054400318E+02  0.10566000000E+00 0. -1.
         22    1    1    0    0    0  0.19591202062E+02 -0.31674147649E+01  0.21368195891E+02  0.29162433201E+02  0.00000000000E+00 0. -1.
</event>
<event>
 5    1  0.1261138E-009  0.9118800E+02  0.7561462E-02  0.1125453E+00
         25   -1    0    0    0    0  0.00000000000E+00  0.00000000000E+00  0.99999998245E-14  0.12509000000E+03  0.12509000000E+03 0.  0.
        -13    1    3    3    0    0 -0.15828892562E+02  0.31439167114E+02 -0.36457779983E+02  0.50676976566E+02  0.10566000000E+00 0. -1.
         23    2    1    0    0    0  0.19984335052E+02  0.95520062170E+01 -0.18088473436E+02  0.96492668980E+02  0.92157624890E+02 0.  0.
         13    1    3    3    0    0  0.35813227614E+02 -0.21887160897E+02  0.18369306547E+02  0.45815692413E+02  0.10566000000E+00 0.  1.
         22    1    1    0    0    0 -0.19984335052E+02 -0.95520062170E+01  0.18088473436E+02  0.28597331020E+02  0.00000000000E+00 0. -1.
</event>
<event>
 5    1  0.1261138E-009  0.9118800E+02  0.7561462E-02  0.1125453E+00
         25   -1    0    0    0    0  0.00000000000E+00  0.00000000000E+00  0.99999998245E-14  0.12509000000E+03  0.12509000000E+03 0.  0.
        -13    1    3    3    0    0  0.69189841896E+01  0.42656159009E+02 -0.23918627302E+02  0.49391620136E+02  0.10566000000E+00 0. -1.
         23    2    1    0    0    0 -0.23962732670E+02  0.21034305914E+02 -0.16803991652E+01  0.93160729360E+02  0.87518244790E+02 0.  0.
         13    1    3    3    0    0 -0.30881716859E+02 -0.21621853095E+02  0.22238228137E+02  0.43769109223E+02  0.10566000000E+00 0.  1.
         22    1    1    0    0    0  0.23962732670E+02 -0.21034305914E+02  0.16803991652E+01  0.31929270640E+02  0.00000000000E+00 0.  1.
</event>
<event>
 5    1  0.1261138E-009  0.9118800E+02  0.7561462E-02  0.1125453E+00
         25   -1    0    0    0    0  0.00000000000E+00  0.00000000000E+00  0.99999998245E-14  0.12509000000E+03  0.12509000000E+03 0.  0.
        -13    1    3    3    0    0 -0.99124235630E-01  0.25082753648E+02 -0.54117380589E+02  0.59647769464E+02  0.10566000000E+00 0. -1.
         23    2    1    0    0    0  0.63954881474E+01  0.21433059356E+02 -0.18419432810E+02  0.96114945090E+02  0.91643487835E+02 0.  0.
         13    1    3    3    0    0  0.64946123830E+01 -0.36496942917E+01  0.35697947779E+02  0.36467175626E+02  0.10566000000E+00 0.  1.
         22    1    1    0    0    0 -0.63954881474E+01 -0.21433059356E+02  0.18419432810E+02  0.28975054910E+02  0.00000000000E+00 0. -1.
</event>
<event>
 5    1  0.1261138E-009  0.9118800E+02  0.7561462E-02  0.1125453E+00
         25   -1    0    0    0    0  0.00000000000E+00  0.00000000000E+00  0.99999998245E-14  0.12509000000E+03  0.12509000000E+03 0.  0.
        -13    1    3    3    0    0 -0.19761439514E+01  0.40851817166E+02 -0.10327678467E+02  0.42183506459E+02  0.10566000000E+00 0.  1.
         23    2    1    0    0    0 -0.28660936920E+02 -0.39745223984E+01  0.29217933119E+01  0.96007651236E+02  0.91496918453E+02 0.  0.
         13    1    3    3    0    0 -0.26684792969E+02 -0.44826339564E+02  0.13249471779E+02  0.53824144777E+02  0.10566000000E+00 0. -1.
         22    1    1    0    0    0  0.28660936920E+02  0.39745223984E+01 -0.29217933119E+01  0.29082348764E+02  0.00000000000E+00 0. -1.
</event>
<event>
 5    1  0.1261138E-009  0.9118800E+02  0.7561462E-02  0.1125453E+00
         25   -1    0    0    0    0  0.00000000000E+00  0.00000000000E+00  0.99999998245E-14  0.12509000000E+03  0.12509000000E+03 0.  0.
        -13    1    3    3    0    0  0.20475273693E+02 -0.99380778833E+01  0.27115320062E+02  0.35401327248E+02  0.10566000000E+00 0.  1.
         23    2    1    0    0    0 -0.29032399334E+02  0.72393874722E+01 -0.15428885837E+01  0.95128867724E+02  0.90287496517E+02 0.  0.
         13    1    3    3    0    0 -0.49507673027E+02  0.17177465356E+02 -0.28658208646E+02  0.59727540477E+02  0.10566000000E+00 0. -1.
         22    1    1    0    0    0  0.29032399334E+02 -0.72393874722E+01  0.15428885837E+01  0.29961132276E+02  0.00000000000E+00 0. -1.
</event>
<event>
 5    1  0.1261138E-009  0.9118800E+02  0.7561462E-02  0.1125453E+00
         25   -1    0    0    0    0  0.00000000000E+00  0.00000000000E+00  0.99999998245E-14  0.12509000000E+03  0.12509000000E+03 0.  0.
        -13    1    3    3    0    0  0.15624598845E+02 -0.29188501260E+02 -0.36435664519E+02  0.49230737430E+02  0.10566000000E+00 0.  1.
         23    2    1    0    0    0 -0.10510334850E+02  0.68876825432E+01 -0.27763460163E+02  0.94615141023E+02  0.89572919351E+02 0.  0.
         13    1    3    3    0    0 -0.26134933695E+02  0.36076183803E+02  0.86722043563E+01  0.45384403593E+02  0.10566000000E+00 0. -1.
         22    1    1    0    0    0  0.10510334850E+02 -0.68876825432E+01  0.27763460163E+02  0.30474858977E+02  0.00000000000E+00 0.  1.
</event>
<event>
 5    1  0.1261138E-009  0.9118800E+02  0.7561462E-02  0.1125453E+00
         25   -1    0    0    0    0  0.00000000000E+00  0.00000000000E+00  0.99999998245E-14  0.12509000000E+03  0.12509000000E+03 0.  0.
        -13    1    3    3    0    0 -0.47097997853E+02  0.13888103799E+02  0.22774016366E+02  0.54127329644E+02  0.10566000000E+00 0.  1.
         23    2    1    0    0    0 -0.16256967597E+02  0.25354124751E+02 -0.13723917727E+01  0.94940305200E+02  0.90025871031E+02 0.  0.
         13    1    3    3    0    0  0.30841030256E+02  0.11466020952E+02 -0.24146408138E+02  0.40812975556E+02  0.10566000000E+00 0. -1.
         22    1    1    0    0    0  0.16256967597E+02 -0.25354124751E+02  0.13723917727E+01  0.30149694800E+02  0.00000000000E+00 0.  1.
</event>
<event>
 5    1  0.1261138E-009  0.9118800E+02  0.7561462E-02  0.1125453E+00
         25   -1    0    0    0    0  0.00000000000E+00  0.00000000000E+00  0.99999998245E-14  0.12509000000E+03  0.12509000000E+03 0.  0.
        -13    1    3    3    0    0 -0.12370389288E+02  0.59009869886E+02 -0.15766439138E+00  0.60292846153E+02  0.10566000000E+00 0. -1.
         23    2    1    0    0    0 -0.16853430263E+02  0.28984169043E+02  0.53226207053E+01  0.91142239280E+02  0.84584025224E+02 0.  0.
         13    1    3    3    0    0 -0.44830409749E+01 -0.30025700844E+02  0.54802850967E+01  0.30849393127E+02  0.10566000000E+00 0.  1.
         22    1    1    0    0    0  0.16853430263E+02 -0.28984169043E+02 -0.53226207053E+01  0.33947760720E+02  0.00000000000E+00 0. -1.
</event>
<event>
 5    1  0.1261138E-009  0.9118800E+02  0.7561462E-02  0.1125453E+00
         25   -1    0    0    0    0  0.00000000000E+00  0.00000000000E+00  0.99999998245E-14  0.12509000000E+03  0.12509000000E+03 0.  0.
        -13    1    3    3    0    0  0.52213034420E+02 -0.40995152113E+01 -0.26786198370E+02  0.58826172538E+02  0.10566000000E+00 0.  1.
         23    2    1    0    0    0  0.17126531053E+02  0.10412886721E+02 -0.18764141509E+02  0.97633866217E+02  0.93693823436E+02 0.  0.
         13    1    3    3    0    0 -0.35086503367E+02  0.14512401933E+02  0.80220568610E+01  0.38807693679E+02  0.10566000000E+00 0. -1.
         22    1    1    0    0    0 -0.17126531053E+02 -0.10412886721E+02  0.18764141509E+02  0.27456133783E+02  0.00000000000E+00 0.  1.
</event>
<event>
 5    1  0.1261138E-009  0.9118800E+02  0.7561462E-02  0.1125453E+00
         25   -1    0    0    0    0  0.00000000000E+00  0.00000000000E+00  0.99999998245E-14  0.12509000000E+03  0.12509000000E+03 0.  0.
        -13    1    3    3    0    0  0.93151695892E+01  0.54804465741E+02 -0.15432859357E+02  0.57693033909E+02  0.10566000000E+00 0. -1.
         23    2    1    0    0    0 -0.13249210503E+02  0.24044761230E+02 -0.68302275430E+01  0.96799645993E+02  0.92573361906E+02 0.  0.
         13    1    3    3    0    0 -0.22564380092E+02 -0.30759704512E+02  0.86026318141E+01  0.39106612085E+02  0.10566000000E+00 0.  1.
         22    1    1    0    0    0  0.13249210503E+02 -0.24044761230E+02  0.68302275430E+01  0.28290354007E+02  0.00000000000E+00 0. -1.
</event>
<event>
 5    1  0.1261138E-009  0.9118800E+02  0.7561462E-02  0.1125453E+00
         25   -1    0    0    0    0  0.00000000000E+00  0.00000000000E+00  0.99999998245E-14  0.12509000000E+03  0.12509000000E+03 0.  0.
        -13    1    3    3    0    0 -0.80105463359E+01  0.18363436329E+02 -0.58921073158E+02  0.62234143944E+02  0.10566000000E+00 0.  1.
         23    2    1    0    0    0 -0.35003140775E+01  0.13452216005E+02 -0.28457294912E+02  0.93419320377E+02  0.87887072268E+02 0.  0.
         13    1    3    3    0    0  0.45102322584E+01 -0.49112203237E+01  0.30463778246E+02  0.31185176433E+02  0.10566000000E+00 0. -1.
         22    1    1    0    0    0  0.35003140775E+01 -0.13452216005E+02  0.28457294912E+02  0.31670679623E+02  0.00000000000E+00 0.  1.
</event>
<event>
 5    1  0.1261138E-009  0.9118800E+02  0.7561462E-02  0.1125453E+00
         25   -1    0    0    0    0  0.00000000000E+00  0.00000000000E+00  0.99999998245E-14  0.12509000000E+03  0.12509000000E+03 0.  0.
        -13    1    3    3    0    0  0.81006245374E+01 -0.31633257649E+02  0.31721981546E+02  0.45525579454E+02  0.10566000000E+00 0.  1.
         23    2    1    0    0    0  0.22585768567E+01  0.18492510848E+02  0.20814080059E+02  0.97156148572E+02  0.93053840060E+02 0.  0.
         13    1    3    3    0    0 -0.58420476807E+01  0.50125768497E+02 -0.10907901487E+02  0.51630569118E+02  0.10566000000E+00 0. -1.
         22    1    1    0    0    0 -0.22585768567E+01 -0.18492510848E+02 -0.20814080059E+02  0.27933851428E+02  0.00000000000E+00 0. -1.
</event>
<event>
 4    1  0.1261138E-009  0.9118800E+02  0.7561462E-02  0.1125453E+00
         25   -1    0    0    0    0  0.00000000000E+00  0.00000000000E+00  0.99999998245E-14  0.12509000000E+03  0.12509000000E+03 0.  0.
        -13    1    1    0    0    0 -0.44346411049E+01  0.80503236141E+01  0.30783781066E+01  0.96933651445E+01  0.10566000000E+00 0. -1.
         13    1    1    0    0    0  0.35505962029E+02 -0.27197327346E+02 -0.42483355670E+02  0.61686421742E+02  0.10566000000E+00 0.  1.
         22    1    1    0    0    0 -0.31071320924E+02  0.19147003731E+02  0.39404977564E+02  0.53710213113E+02  0.00000000000E+00 0.  1.
</event>
<event>
 5    1  0.1261138E-009  0.9118800E+02  0.7561462E-02  0.1125453E+00
         25   -1    0    0    0    0  0.00000000000E+00  0.00000000000E+00  0.99999998245E-14  0.12509000000E+03  0.12509000000E+03 0.  0.
        -13    1    3    3    0    0 -0.18276528894E+02  0.16824709706E+02 -0.27729291178E+02  0.37229385146E+02  0.10566000000E+00 0. -1.
         23    2    1    0    0    0 -0.64945460880E+01  0.92648167538E+01  0.28105575594E+02  0.94792486276E+02  0.89820243356E+02 0.  0.
         13    1    3    3    0    0  0.11781982806E+02 -0.75598929527E+01  0.55834866771E+02  0.57563101130E+02  0.10566000000E+00 0.  1.
         22    1    1    0    0    0  0.64945460880E+01 -0.92648167538E+01 -0.28105575594E+02  0.30297513724E+02  0.00000000000E+00 0.  1.
</event>
<event>
 5    1  0.1261138E-009  0.9118800E+02  0.7561462E-02  0.1125453E+00
         25   -1    0    0    0    0  0.00000000000E+00  0.00000000000E+00  0.99999998245E-14  0.12509000000E+03  0.12509000000E+03 0.  0.
        -13    1    3    3    0    0 -0.31891952138E+01 -0.58109930524E+02 -0.21284674976E+00  0.58197864732E+02  0.10566000000E+00 0. -1.
         23    2    1    0    0    0 -0.12287730017E+02 -0.25787349511E+02  0.12241719953E+02  0.94012107356E+02  0.88726776783E+02 0.  0.
         13    1    3    3    0    0 -0.90985348035E+01  0.32322581013E+02  0.12454566703E+02  0.35814242624E+02  0.10566000000E+00 0.  1.
         22    1    1    0    0    0  0.12287730017E+02  0.25787349511E+02 -0.12241719953E+02  0.31077892644E+02  0.00000000000E+00 0. -1.
</event>
<event>
 5    1  0.1261138E-009  0.9118800E+02  0.7561462E-02  0.1125453E+00
         25   -1    0    0    0    0  0.00000000000E+00  0.00000000000E+00  0.99999998245E-14  0.12509000000E+03  0.12509000000E+03 0.  0.
        -13    1    3    3    0    0 -0.24517283099E+02 -0.26564995684E+02  0.19941504972E+02  0.41285238897E+02  0.10566000000E+00 0. -1.
         23    2    1    0    0    0  0.23707173554E+02 -0.18163283051E+02 -0.24700805494E+01  0.95122747423E+02  0.90279016666E+02 0.  0.
         13    1    3    3    0    0  0.48224456652E+02  0.84017126327E+01 -0.22411585521E+02  0.53837508525E+02  0.10566000000E+00 0.  1.
         22    1    1    0    0    0 -0.23707173554E+02  0.18163283051E+02  0.24700805494E+01  0.29967252577E+02  0.00000000000E+00 0.  1.
</event>
<event>
 5    1  0.1261138E-009  0.9118800E+02  0.7561462E-02  0.1125453E+00
         25   -1    0    0    0    0  0.00000000000E+00  0.00000000000E+00  0.99999998245E-14  0.12509000000E+03  0.12509000000E+03 0.  0.
        -13    1    3    3    0    0  0.29330909144E+02 -0.29983741499E+02 -0.16038823965E+02  0.44906369523E+02  0.10566000000E+00 0.  1.
         23    2    1    0    0    0  0.20973857180E+02  0.13616433433E+01  0.21840765205E+02  0.94778685572E+02  0.89801021467E+02 0.  0.
         13    1    3    3    0    0 -0.83570519637E+01  0.31345384842E+02  0.37879589170E+02  0.49872316050E+02  0.10566000000E+00 0. -1.
         22    1    1    0    0    0 -0.20973857180E+02 -0.13616433433E+01 -0.21840765205E+02  0.30311314428E+02  0.00000000000E+00 0. -1.
</event>
<event>
 5    1  0.1261138E-009  0.9118800E+02  0.7561462E-02  0.1125453E+00
         25   -1    0    0    0    0  0.00000000000E+00  0.00000000000E+00  0.99999998245E-14  0.12509000000E+03  0.12509000000E+03 0.  0.
        -13    1    3    3    0    0  0.15962055196E+02 -0.44207853673E+01 -0.42006832065E+02  0.45154353650E+02  0.10566000000E+00 0.  1.
         23    2    1    0    0    0 -0.33214239347E+01  0.26931535292E+02 -0.47226868486E+01  0.97546521258E+02  0.93577137103E+02 0.  0.
         13    1    3    3    0    0 -0.19283479131E+02  0.31352320659E+02  0.37284145217E+02  0.52392167608E+02  0.10566000000E+00 0. -1.
         22    1    1    0    0    0  0.33214239347E+01 -0.26931535292E+02  0.47226868486E+01  0.27543478742E+02  0.00000000000E+00 0. -1.
</event>
<event>
 5    1  0.1261138E-009  0.9118800E+02  0.7561462E-02  0.1125453E+00
         25   -1    0    0    0    0  0.00000000000E+00  0.00000000000E+00  0.99999998245E-14  0.12509000000E+03  0.12509000000E+03 0.  0.
        -13    1    3    3    0    0 -0.36621922438E+02  0.23190971127E+02 -0.15743051510E+02  0.46117688361E+02  0.10566000000E+00 0. -1.
         23    2    1    0    0    0 -0.50001904980E+01 -0.13663552060E+02 -0.25576524226E+02  0.95664617226E+02  0.91026731445E+02 0.  0.
         13    1    3    3    0    0  0.31621731940E+02 -0.36854523187E+02 -0.98334727161E+01  0.49546928865E+02  0.10566000000E+00 0.  1.
         22    1    1    0    0    0  0.50001904980E+01  0.13663552060E+02  0.25576524226E+02  0.29425382774E+02  0.00000000000E+00 0.  1.
</event>
<event>
 5    1  0.1261138E-009  0.9118800E+02  0.7561462E-02  0.1125453E+00
         25   -1    0    0    0    0  0.00000000000E+00  0.00000000000E+00  0.99999998245E-14  0.12509000000E+03  0.12509000000E+03 0.  0.
        -13    1    3    3    0    0 -0.29233225641E+02  0.18288185226E+02  0.11216625028E+02  0.36261040268E+02  0.10566000000E+00 0.  1.
         23    2    1    0    0    0  0.24104218795E+02  0.10616604524E+02 -0.13439798903E+02  0.95520525032E+02  0.90828502424E+02 0.  0.
         13    1    3    3    0    0  0.53337444436E+02 -0.76715807020E+01 -0.24656423930E+02  0.59259484764E+02  0.10566000000E+00 0. -1.
         22    1    1    0    0    0 -0.24104218795E+02 -0.10616604524E+02  0.13439798903E+02  0.29569474968E+02  0.00000000000E+00 0. -1.
</event>
<event>
 5    1  0.1261138E-009  0.9118800E+02  0.7561462E-02  0.1125453E+00
         25   -1    0    0    0    0  0.00000000000E+00  0.00000000000E+00  0.99999998245E-14  0.12509000000E+03  0.12509000000E+03 0.  0.
        -13    1    3    3    0    0 -0.33417575672E+02  0.56627546240E+00 -0.42559821845E+02  0.54114735804E+02  0.10566000000E+00 0. -1.
         23    2    1    0    0    0 -0.97617048212E+00  0.19209262720E+02 -0.16913855068E+02  0.99476972528E+02  0.96123050758E+02 0.  0.
         13    1    3    3    0    0  0.32441405190E+02  0.18642987257E+02  0.25645966777E+02  0.45362236723E+02  0.10566000000E+00 0.  1.
         22    1    1    0    0    0  0.97617048212E+00 -0.19209262720E+02  0.16913855068E+02  0.25613027472E+02  0.00000000000E+00 0. -1.
</event>
<event>
 5    1  0.1261138E-009  0.9118800E+02  0.7561462E-02  0.1125453E+00
         25   -1    0    0    0    0  0.00000000000E+00  0.00000000000E+00  0.99999998245E-14  0.12509000000E+03  0.12509000000E+03 0.  0.
        -13    1    3    3    0    0 -0.36798550722E+02  0.29606493309E+01 -0.12982308797E+02  0.39133748676E+02  0.10566000000E+00 0.  1.
         23    2    1    0    0    0  0.75767555665E+01  0.27460423197E+02  0.10146324543E+02  0.94850456869E+02  0.89900941037E+02 0.  0.
         13    1    3    3    0    0  0.44375306288E+02  0.24499773866E+02  0.23128633340E+02  0.55716708193E+02  0.10566000000E+00 0. -1.
         22    1    1    0    0    0 -0.75767555665E+01 -0.27460423197E+02 -0.10146324543E+02  0.30239543131E+02  0.00000000000E+00 0. -1.
</event>
<event>
 5    1  0.1261138E-009  0.9118800E+02  0.7561462E-02  0.1125453E+00
         25   -1    0    0    0    0  0.00000000000E+00  0.00000000000E+00  0.99999998245E-14  0.12509000000E+03  0.12509000000E+03 0.  0.
        -13    1    3    3    0    0 -0.26500885308E+01  0.38003385001E+02 -0.34820065892E+02  0.51611320400E+02  0.10566000000E+00 0.  1.
         23    2    1    0    0    0 -0.20062510166E+02  0.18583252448E+01 -0.25119996810E+02  0.92887951515E+02  0.87127490553E+02 0.  0.
         13    1    3    3    0    0 -0.17412421636E+02 -0.36145059756E+02  0.97000690823E+01  0.41276631115E+02  0.10566000000E+00 0. -1.
         22    1    1    0    0    0  0.20062510166E+02 -0.18583252448E+01  0.25119996810E+02  0.32202048485E+02  0.00000000000E+00 0.  1.
</event>
<event>
 5    1  0.1261138E-009  0.9118800E+02  0.7561462E-02  0.1125453E+00
         25   -1    0    0    0    0  0.00000000000E+00  0.00000000000E+00  0.99999998245E-14  0.12509000000E+03  0.12509000000E+03 0.  0.
        -13    1    3    3    0    0 -0.26977274444E+02  0.58227166268E+01  0.24968838898E+02  0.37217354088E+02  0.10566000000E+00 0. -1.
         23    2    1    0    0    0  0.25266984047E+02  0.15191962549E+02  0.65188263226E+00  0.95600321129E+02  0.90938332072E+02 0.  0.
         13    1    3    3    0    0  0.52244258491E+02  0.93692459222E+01 -0.24316956266E+02  0.58382967041E+02  0.10566000000E+00 0.  1.
         22    1    1    0    0    0 -0.25266984047E+02 -0.15191962549E+02 -0.65188263226E+00  0.29489678871E+02  0.00000000000E+00 0.  1.
</event>
<event>
 5    1  0.1261138E-009  0.9118800E+02  0.7561462E-02  0.1125453E+00
         25   -1    0    0    0    0  0.00000000000E+00  0.00000000000E+00  0.99999998245E-14  0.12509000000E+03  0.12509000000E+03 0.  0.
        -13    1    3    3    0    0  0.91475565390E+01  0.21258360913E+01 -0.58881710503E+02  0.59626034293E+02  0.10566000000E+00 0.  1.
         23    2    1    0    0    0  0.17414504978E+02  0.22868562281E+01 -0.24776164243E+02  0.94719734778E+02  0.89718867285E+02 0.  0.
         13    1    3    3    0    0  0.82669484394E+01  0.16102013679E+00  0.34105546260E+02  0.35093700485E+02  0.10566000000E+00 0. -1.
         22    1    1    0    0    0 -0.17414504978E+02 -0.22868562281E+01  0.24776164243E+02  0.30370265222E+02  0.00000000000E+00 0.  1.
</event>
<event>
 5    1  0.1261138E-009  0.9118800E+02  0.7561462E-02  0.1125453E+00
         25   -1    0    0    0    0  0.00000000000E+00  0.00000000000E+00  0.99999998245E-14  0.12509000000E+03  0.12509000000E+03 0.  0.
        -13    1    3    3    0    0 -0.11047363471E+02  0.31584877068E+02  0.75189745539E+01  0.34295697127E+02  0.10566000000E+00 0.  1.
         23    2    1    0    0    0  0.16218280734E+02 -0.42601596139E+01 -0.28539475002E+02  0.91988893927E+02  0.85826996817E+02 0.  0.
         13    1    3    3    0    0  0.27265644204E+02 -0.35845036682E+02 -0.36058449556E+02  0.57693196800E+02  0.10566000000E+00 0. -1.
         22    1    1    0    0    0 -0.16218280734E+02  0.42601596139E+01  0.28539475002E+02  0.33101106073E+02  0.00000000000E+00 0. -1.
</event>
<event>
 5    1  0.1261138E-009  0.9118800E+02  0.7561462E-02  0.1125453E+00
         25   -1    0    0    0    0  0.00000000000E+00  0.00000000000E+00  0.99999998245E-14  0.12509000000E+03  0.12509000000E+03 0.  0.
        -13    1    3    3    0    0  0.17804293216E+02  0.13505313052E+02  0.51728072644E+02  0.56348833182E+02  0.10566000000E+00 0.  1.
         23    2    1    0    0    0  0.22277424691E+02  0.11480277794E+02  0.10418796230E+02  0.97949039369E+02  0.94113668345E+02 0.  0.
         13    1    3    3    0    0  0.44731314742E+01 -0.20250352579E+01 -0.41309276413E+02  0.41600206187E+02  0.10566000000E+00 0. -1.
         22    1    1    0    0    0 -0.22277424691E+02 -0.11480277794E+02 -0.10418796230E+02  0.27140960631E+02  0.00000000000E+00 0.  1.
</event>
<event>
 5    1  0.1261138E-009  0.9118800E+02  0.7561462E-02  0.1125453E+00
         25   -1    0    0    0    0  0.00000000000E+00  0.00000000000E+00  0.99999998245E-14  0.12509000000E+03  0.12509000000E+03 0.  0.
        -13    1    3    3    0    0 -0.35690418410E+02  0.10783967690E+02 -0.18317167080E+02  0.41540699311E+02  0.10566000000E+00 0.  1.
         23    2    1    0    0    0  0.19527884016E+02  0.16365620379E+02 -0.13530236238E+01  0.99575250198E+02  0.96250859708E+02 0.  0.
         13    1    3    3    0    0  0.55218302425E+02  0.55816526891E+01  0.16964143456E+02  0.58034550887E+02  0.10566000000E+00 0. -1.
         22    1    1    0    0    0 -0.19527884016E+02 -0.16365620379E+02  0.13530236238E+01  0.25514749802E+02  0.00000000000E+00 0. -1.
</event>
<event>
 5    1  0.1261138E-009  0.9118800E+02  0.7561462E-02  0.1125453E+00
         25   -1    0    0    0    0  0.00000000000E+00  0.00000000000E+00  0.99999998245E-14  0.12509000000E+03  0.12509000000E+03 0.  0.
        -13    1    3    3    0    0 -0.28723447578E+02 -0.49571210404E+02  0.12635813836E+02  0.58668699466E+02  0.10566000000E+00 0. -1.
         23    2    1    0    0    0 -0.23412632937E+02 -0.17530251884E+02 -0.46721205656E+01  0.95470921305E+02  0.90760161922E+02 0.  0.
         13    1    3    3    0    0  0.53108146404E+01  0.32040958520E+02 -0.17307934401E+02  0.36802221839E+02  0.10566000000E+00 0.  1.
         22    1    1    0    0    0  0.23412632937E+02  0.17530251884E+02  0.46721205656E+01  0.29619078695E+02  0.00000000000E+00 0. -1.
</event>
<event>
 5    1  0.1261138E-009  0.9118800E+02  0.7561462E-02  0.1125453E+00
         25   -1    0    0    0    0  0.00000000000E+00  0.00000000000E+00  0.99999998245E-14  0.12509000000E+03  0.12509000000E+03 0.  0.
        -13    1    3    3    0    0 -0.42228352467E+01  0.57326889973E+02  0.99783714588E+01  0.58341954994E+02  0.10566000000E+00 0. -1.
         23    2    1    0    0    0  0.11818016824E+02  0.23388891572E+02  0.12682398062E+02  0.95977305325E+02  0.91455421634E+02 0.  0.
         13    1    3    3    0    0  0.16040852071E+02 -0.33937998402E+02  0.27040266034E+01  0.37635350331E+02  0.10566000000E+00 0.  1.
         22    1    1    0    0    0 -0.11818016824E+02 -0.23388891572E+02 -0.12682398062E+02  0.29112694675E+02  0.00000000000E+00 0. -1.
</event>
<event>
 5    1  0.1261138E-009  0.9118800E+02  0.7561462E-02  0.1125453E+00
         25   -1    0    0    0    0  0.00000000000E+00  0.00000000000E+00  0.99999998245E-14  0.12509000000E+03  0.12509000000E+03 0.  0.
        -13    1    3    3    0    0  0.34685917718E+01  0.48064834756E-01  0.35179295726E+02  0.35350070027E+02  0.10566000000E+00 0.  1.
         23    2    1    0    0    0  0.47856203913E+01  0.46185015858E+01 -0.26782412977E+02  0.97494160381E+02  0.93507117077E+02 0.  0.
         13    1    3    3    0    0  0.13170286195E+01  0.45704367510E+01 -0.61961708703E+02  0.62144090354E+02  0.10566000000E+00 0. -1.
         22    1    1    0    0    0 -0.47856203913E+01 -0.46185015858E+01  0.26782412977E+02  0.27595839619E+02  0.00000000000E+00 0. -1.
</event>
<event>
 5    1  0.1261138E-009  0.9118800E+02  0.7561462E-02  0.1125453E+00
         25   -1    0    0    0    0  0.00000000000E+00  0.00000000000E+00  0.99999998245E-14  0.12509000000E+03  0.12509000000E+03 0.  0.
        -13    1    3    3    0    0 -0.43399017705E+02  0.15054285672E+01 -0.22964135621E+02  0.49123352306E+02  0.10566000000E+00 0.  1.
         23    2    1    0    0    0 -0.21134283089E+02 -0.20638994664E+02  0.92743698562E+01  0.94128088582E+02  0.88890140631E+02 0.  0.
         13    1    3    3    0    0  0.22264734616E+02 -0.22144423232E+02  0.32238505477E+02  0.45004736275E+02  0.10566000000E+00 0. -1.
         22    1    1    0    0    0  0.21134283089E+02  0.20638994664E+02 -0.92743698562E+01  0.30961911418E+02  0.00000000000E+00 0.  1.
</event>
<event>
 5    1  0.1261138E-009  0.9118800E+02  0.7561462E-02  0.1125453E+00
         25   -1    0    0    0    0  0.00000000000E+00  0.00000000000E+00  0.99999998245E-14  0.12509000000E+03  0.12509000000E+03 0.  0.
        -13    1    3    3    0    0 -0.29249166868E+02  0.51507386011E+01  0.34120661417E+02  0.45235766493E+02  0.10566000000E+00 0. -1.
         23    2    1    0    0    0  0.16910536157E+02  0.77889437362E+00  0.28499877507E+02  0.91941607468E+02  0.85758050679E+02 0.  0.
         13    1    3    3    0    0  0.46159703025E+02 -0.43718442275E+01 -0.56207839103E+01  0.46705840975E+02  0.10566000000E+00 0.  1.
         22    1    1    0    0    0 -0.16910536157E+02 -0.77889437362E+00 -0.28499877507E+02  0.33148392532E+02  0.00000000000E+00 0. -1.
</event>
<event>
 5    1  0.1261138E-009  0.9118800E+02  0.7561462E-02  0.1125453E+00
         25   -1    0    0    0    0  0.00000000000E+00  0.00000000000E+00  0.99999998245E-14  0.12509000000E+03  0.12509000000E+03 0.  0.
        -13    1    3    3    0    0  0.45730166825E+02  0.75635019033E+01 -0.11997032374E+02  0.47878958518E+02  0.10566000000E+00 0.  1.
         23    2    1    0    0    0  0.16134973859E+02  0.86136590584E+00  0.24748152598E+02  0.95534114128E+02  0.90847215547E+02 0.  0.
         13    1    3    3    0    0 -0.29595192967E+02 -0.67021359975E+01  0.36745184972E+02  0.47655155611E+02  0.10566000000E+00 0. -1.
         22    1    1    0    0    0 -0.16134973859E+02 -0.86136590584E+00 -0.24748152598E+02  0.29555885872E+02  0.00000000000E+00 0. -1.
</event>
<event>
 5    1  0.1261138E-009  0.9118800E+02  0.7561462E-02  0.1125453E+00
         25   -1    0    0    0    0  0.00000000000E+00  0.00000000000E+00  0.99999998245E-14  0.12509000000E+03  0.12509000000E+03 0.  0.
        -13    1    3    3    0    0  0.30147667789E+02 -0.34121027837E+02 -0.63065356342E+01  0.45966400441E+02  0.10566000000E+00 0. -1.
         23    2    1    0    0    0  0.66050764618E+01  0.57400750781E+01 -0.27023569625E+02  0.96684915733E+02  0.92418202309E+02 0.  0.
         13    1    3    3    0    0 -0.23542591327E+02  0.39861102915E+02 -0.20717033991E+02  0.50718515292E+02  0.10566000000E+00 0.  1.
         22    1    1    0    0    0 -0.66050764618E+01 -0.57400750781E+01  0.27023569625E+02  0.28405084267E+02  0.00000000000E+00 0. -1.
</event>
<event>
 5    1  0.1261138E-009  0.9118800E+02  0.7561462E-02  0.1125453E+00
         25   -1    0    0    0    0  0.00000000000E+00  0.00000000000E+00  0.99999998245E-14  0.12509000000E+03  0.12509000000E+03 0.  0.
        -13    1    3    3    0    0 -0.38767986092E+01  0.49752196777E+02 -0.29967523787E+02  0.58209744009E+02  0.10566000000E+00 0. -1.
         23    2    1    0    0    0  0.11568369326E+02  0.15495179768E+02 -0.20389334218E+02  0.96989239961E+02  0.92829197743E+02 0.  0.
         13    1    3    3    0    0  0.15445167935E+02 -0.34257017009E+02  0.95781895693E+01  0.38779495953E+02  0.10566000000E+00 0.  1.
         22    1    1    0    0    0 -0.11568369326E+02 -0.15495179768E+02  0.20389334218E+02  0.28100760039E+02  0.00000000000E+00 0. -1.
</event>
<event>
 5    1  0.1261138E-009  0.9118800E+02  0.7561462E-02  0.1125453E+00
         25   -1    0    0    0    0  0.00000000000E+00  0.00000000000E+00  0.99999998245E-14  0.12509000000E+03  0.12509000000E+03 0.  0.
        -13    1    3    3    0    0 -0.38980445080E+01  0.47937999292E+01 -0.34765989335E+02  0.35310911164E+02  0.10566000000E+00 0. -1.
         23    2    1    0    0    0  0.12368507046E+02 -0.18493894295E+02  0.18812419132E+02  0.95953919166E+02  0.91423429147E+02 0.  0.
         13    1    3    3    0    0  0.16266551554E+02 -0.23287694224E+02  0.53578408467E+02  0.60643008003E+02  0.10566000000E+00 0.  1.
         22    1    1    0    0    0 -0.12368507046E+02  0.18493894295E+02 -0.18812419132E+02  0.29136080834E+02  0.00000000000E+00 0.  1.
</event>
<event>
 5    1  0.1261138E-009  0.9118800E+02  0.7561462E-02  0.1125453E+00
         25   -1    0    0    0    0  0.00000000000E+00  0.00000000000E+00  0.99999998245E-14  0.12509000000E+03  0.12509000000E+03 0.  0.
        -13    1    3    3    0    0 -0.90873569903E+01  0.49961955341E+02 -0.15862320858E+02  0.53201517136E+02  0.10566000000E+00 0.  1.
         23    2    1    0    0    0  0.15319492081E+02  0.14836162829E+02 -0.19583937083E+02  0.96136085640E+02  0.91672339369E+02 0.  0.
         13    1    3    3    0    0  0.24406849072E+02 -0.35125792512E+02 -0.37216162253E+01  0.42934568503E+02  0.10566000000E+00 0. -1.
         22    1    1    0    0    0 -0.15319492081E+02 -0.14836162829E+02  0.19583937083E+02  0.28953914360E+02  0.00000000000E+00 0.  1.
</event>
<event>
 5    1  0.1261138E-009  0.9118800E+02  0.7561462E-02  0.1125453E+00
         25   -1    0    0    0    0  0.00000000000E+00  0.00000000000E+00  0.99999998245E-14  0.12509000000E+03  0.12509000000E+03 0.  0.
        -13    1    3    3    0    0  0.79010805368E+01  0.32228308161E+02 -0.13844055810E+02  0.35954971366E+02  0.10566000000E+00 0.  1.
         23    2    1    0    0    0  0.19252493925E+01 -0.27689139895E+02 -0.61665478901E+01  0.96657248352E+02  0.92380746332E+02 0.  0.
         13    1    3    3    0    0 -0.59758311443E+01 -0.59917448057E+02  0.76775079199E+01  0.60702276987E+02  0.10566000000E+00 0. -1.
         22    1    1    0    0    0 -0.19252493925E+01  0.27689139895E+02  0.61665478901E+01  0.28432751648E+02  0.00000000000E+00 0. -1.
</event>
<event>
 5    1  0.1261138E-009  0.9118800E+02  0.7561462E-02  0.1125453E+00
         25   -1    0    0    0    0  0.00000000000E+00  0.00000000000E+00  0.99999998245E-14  0.12509000000E+03  0.12509000000E+03 0.  0.
        -13    1    3    3    0    0  0.44486843253E+02 -0.20918859746E+01 -0.11591333818E+02  0.46019836954E+02  0.10566000000E+00 0. -1.
         23    2    1    0    0    0  0.76532795798E+01 -0.28955832974E+02  0.53700052641E+01  0.94662218154E+02  0.89638639200E+02 0.  0.
         13    1    3    3    0    0 -0.36833563673E+02 -0.26863946999E+02  0.16961339082E+02  0.48642381200E+02  0.10566000000E+00 0.  1.
         22    1    1    0    0    0 -0.76532795798E+01  0.28955832974E+02 -0.53700052641E+01  0.30427781846E+02  0.00000000000E+00 0.  1.
</event>
<event>
 5    1  0.1261138E-009  0.9118800E+02  0.7561462E-02  0.1125453E+00
         25   -1    0    0    0    0  0.00000000000E+00  0.00000000000E+00  0.99999998245E-14  0.12509000000E+03  0.12509000000E+03 0.  0.
        -13    1    3    3    0    0 -0.25524240793E+02 -0.16649206241E+02 -0.23488782393E+02  0.38476187427E+02  0.10566000000E+00 0.  1.
         23    2    1    0    0    0 -0.74453699859E+00  0.29275171124E+02  0.24770651296E+00  0.95804315132E+02  0.91218503932E+02 0.  0.
         13    1    3    3    0    0  0.24779703795E+02  0.45924377365E+02  0.23736488906E+02  0.57328127705E+02  0.10566000000E+00 0. -1.
         22    1    1    0    0    0  0.74453699859E+00 -0.29275171124E+02 -0.24770651296E+00  0.29285684868E+02  0.00000000000E+00 0. -1.
</event>
<event>
 5    1  0.1261138E-009  0.9118800E+02  0.7561462E-02  0.1125453E+00
         25   -1    0    0    0    0  0.00000000000E+00  0.00000000000E+00  0.99999998245E-14  0.12509000000E+03  0.12509000000E+03 0.  0.
        -13    1    3    3    0    0  0.53837157663E+02  0.20365502495E+02  0.13764189815E+02  0.59183252044E+02  0.10566000000E+00 0.  1.
         23    2    1    0    0    0  0.17839680187E+02  0.21662412862E+02  0.95350432078E+01  0.95451657112E+02  0.90733607204E+02 0.  0.
         13    1    3    3    0    0 -0.35997477476E+02  0.12969103662E+01 -0.42291466072E+01  0.36268405068E+02  0.10566000000E+00 0. -1.
         22    1    1    0    0    0 -0.17839680187E+02 -0.21662412862E+02 -0.95350432078E+01  0.29638342888E+02  0.00000000000E+00 0.  1.
</event>
<event>
 5    1  0.1261138E-009  0.9118800E+02  0.7561462E-02  0.1125453E+00
         25   -1    0    0    0    0  0.00000000000E+00  0.00000000000E+00  0.99999998245E-14  0.12509000000E+03  0.12509000000E+03 0.  0.
        -13    1    3    3    0    0 -0.22466257222E+02 -0.17291397312E+02  0.18229395409E+02  0.33705298627E+02  0.10566000000E+00 0.  1.
         23    2    1    0    0    0  0.17108093623E+02  0.10411652632E+02 -0.21100452350E+02  0.95998446804E+02  0.91484333749E+02 0.  0.
         13    1    3    3    0    0  0.39574350845E+02  0.27703049944E+02 -0.39329847760E+02  0.62293148177E+02  0.10566000000E+00 0. -1.
         22    1    1    0    0    0 -0.17108093623E+02 -0.10411652632E+02  0.21100452350E+02  0.29091553196E+02  0.00000000000E+00 0. -1.
</event>
<event>
 5    1  0.1261138E-009  0.9118800E+02  0.7561462E-02  0.1125453E+00
         25   -1    0    0    0    0  0.00000000000E+00  0.00000000000E+00  0.99999998245E-14  0.12509000000E+03  0.12509000000E+03 0.  0.
        -13    1    3    3    0    0  0.11911773974E+02 -0.36418556802E+02 -0.16366637224E+02  0.41666288733E+02  0.10566000000E+00 0. -1.
         23    2    1    0    0    0 -0.22007682739E+02  0.93932780560E+01 -0.10464594970E+02  0.98973347840E+02  0.95465407675E+02 0.  0.
         13    1    3    3    0    0 -0.33919456712E+02  0.45811834858E+02  0.59020422534E+01  0.57307059107E+02  0.10566000000E+00 0.  1.
         22    1    1    0    0    0  0.22007682739E+02 -0.93932780560E+01  0.10464594970E+02  0.26116652160E+02  0.00000000000E+00 0.  1.
</event>
<event>
 5    1  0.1261138E-009  0.9118800E+02  0.7561462E-02  0.1125453E+00
         25   -1    0    0    0    0  0.00000000000E+00  0.00000000000E+00  0.99999998245E-14  0.12509000000E+03  0.12509000000E+03 0.  0.
        -13    1    3    3    0    0 -0.13496279121E+02  0.20306435823E+00 -0.36522771022E+02  0.38937318249E+02  0.10566000000E+00 0. -1.
         23    2    1    0    0    0 -0.77788622289E+01  0.24230131585E+02  0.14626881940E+02  0.95737731783E+02  0.91127150934E+02 0.  0.
         13    1    3    3    0    0  0.57174168924E+01  0.24027067227E+02  0.51149652962E+02  0.56800413534E+02  0.10566000000E+00 0.  1.
         22    1    1    0    0    0  0.77788622289E+01 -0.24230131585E+02 -0.14626881940E+02  0.29352268217E+02  0.00000000000E+00 0.  1.
</event>
<event>
 5    1  0.1261138E-009  0.9118800E+02  0.7561462E-02  0.1125453E+00
         25   -1    0    0    0    0  0.00000000000E+00  0.00000000000E+00  0.99999998245E-14  0.12509000000E+03  0.12509000000E+03 0.  0.
        -13    1    3    3    0    0 -0.55822723890E+02  0.17019525502E+02  0.14384276143E+02  0.60106233579E+02  0.10566000000E+00 0.  1.
         23    2    1    0    0    0 -0.26545995334E+02  0.44459951225E+01  0.18779143214E+02  0.92270600847E+02  0.86236597915E+02 0.  0.
         13    1    3    3    0    0  0.29276728556E+02 -0.12573530380E+02  0.43948670716E+01  0.32164367268E+02  0.10566000000E+00 0. -1.
         22    1    1    0    0    0  0.26545995334E+02 -0.44459951225E+01 -0.18779143214E+02  0.32819399153E+02  0.00000000000E+00 0.  1.
</event>
<event>
 5    1  0.1261138E-009  0.9118800E+02  0.7561462E-02  0.1125453E+00
         25   -1    0    0    0    0  0.00000000000E+00  0.00000000000E+00  0.99999998245E-14  0.12509000000E+03  0.12509000000E+03 0.  0.
        -13    1    3    3    0    0 -0.36085731916E+02 -0.37352007595E+02  0.28842249456E+02  0.59407398841E+02  0.10566000000E+00 0.  1.
         23    2    1    0    0    0 -0.23496687674E+02 -0.49972360894E+01  0.14912415522E+02  0.96815509078E+02  0.92594794461E+02 0.  0.
         13    1    3    3    0    0  0.12589044242E+02  0.32354771505E+02 -0.13929833934E+02  0.37408110238E+02  0.10566000000E+00 0. -1.
         22    1    1    0    0    0  0.23496687674E+02  0.49972360894E+01 -0.14912415522E+02  0.28274490922E+02  0.00000000000E+00 0.  1.
</event>
<event>
 5    1  0.1261138E-009  0.9118800E+02  0.7561462E-02  0.1125453E+00
         25   -1    0    0    0    0  0.00000000000E+00  0.00000000000E+00  0.99999998245E-14  0.12509000000E+03  0.12509000000E+03 0.  0.
        -13    1    3    3    0    0 -0.81040199865E+01 -0.21713570724E+02 -0.24871750694E+02  0.33996609245E+02  0.10566000000E+00 0. -1.
         23    2    1    0    0    0  0.39840438307E+01  0.26592051536E+02  0.11686871907E+02  0.95771187181E+02  0.91173063506E+02 0.  0.
         13    1    3    3    0    0  0.12088063817E+02  0.48305622260E+02  0.36558622601E+02  0.61774577937E+02  0.10566000000E+00 0.  1.
         22    1    1    0    0    0 -0.39840438307E+01 -0.26592051536E+02 -0.11686871907E+02  0.29318812819E+02  0.00000000000E+00 0.  1.
</event>
<event>
 5    1  0.1261138E-009  0.9118800E+02  0.7561462E-02  0.1125453E+00
         25   -1    0    0    0    0  0.00000000000E+00  0.00000000000E+00  0.99999998245E-14  0.12509000000E+03  0.12509000000E+03 0.  0.
        -13    1    3    3    0    0 -0.82465122090E+01  0.40342324024E+02  0.15154266737E+01  0.41204559860E+02  0.10566000000E+00 0.  1.
         23    2    1    0    0    0  0.28805995492E+02  0.57068424633E+00  0.56909173540E+01  0.95721690598E+02  0.91105128582E+02 0.  0.
         13    1    3    3    0    0  0.37052507701E+02 -0.39771639777E+02  0.41754906803E+01  0.54517130738E+02  0.10566000000E+00 0. -1.
         22    1    1    0    0    0 -0.28805995492E+02 -0.57068424633E+00 -0.56909173540E+01  0.29368309402E+02  0.00000000000E+00 0. -1.
</event>
<event>
 5    1  0.1261138E-009  0.9118800E+02  0.7561462E-02  0.1125453E+00
         25   -1    0    0    0    0  0.00000000000E+00  0.00000000000E+00  0.99999998245E-14  0.12509000000E+03  0.12509000000E+03 0.  0.
        -13    1    3    3    0    0 -0.37783476452E+02  0.32278944857E+02 -0.89579130555E+01  0.50495314082E+02  0.10566000000E+00 0.  1.
         23    2    1    0    0    0 -0.27600117624E+02 -0.40710537687E+01  0.13155590360E+02  0.94245072875E+02  0.89054613760E+02 0.  0.
         13    1    3    3    0    0  0.10183358828E+02 -0.36349998626E+02  0.22113503415E+02  0.43749758793E+02  0.10566000000E+00 0. -1.
         22    1    1    0    0    0  0.27600117624E+02  0.40710537687E+01 -0.13155590360E+02  0.30844927125E+02  0.00000000000E+00 0. -1.
</event>
<event>
 5    1  0.1261138E-009  0.9118800E+02  0.7561462E-02  0.1125453E+00
         25   -1    0    0    0    0  0.00000000000E+00  0.00000000000E+00  0.99999998245E-14  0.12509000000E+03  0.12509000000E+03 0.  0.
        -13    1    3    3    0    0  0.19790512448E+02 -0.90690789489E+00  0.50134889909E+02  0.53907376259E+02  0.10566000000E+00 0.  1.
         23    2    1    0    0    0  0.26878887663E+02  0.67334536627E+01  0.95939307380E+01  0.95766672985E+02  0.91166869791E+02 0.  0.
         13    1    3    3    0    0  0.70883752149E+01  0.76403615576E+01 -0.40540959171E+02  0.41859296727E+02  0.10566000000E+00 0. -1.
         22    1    1    0    0    0 -0.26878887663E+02 -0.67334536627E+01 -0.95939307380E+01  0.29323327015E+02  0.00000000000E+00 0.  1.
</event>
<event>
 5    1  0.1261138E-009  0.9118800E+02  0.7561462E-02  0.1125453E+00
         25   -1    0    0    0    0  0.00000000000E+00  0.00000000000E+00  0.99999998245E-14  0.12509000000E+03  0.12509000000E+03 0.  0.
        -13    1    3    3    0    0  0.46735839541E+02 -0.13376550767E+02  0.34379865588E+02  0.59541222106E+02  0.10566000000E+00 0. -1.
         23    2    1    0    0    0  0.25771578795E+02  0.66596582572E+01  0.13747085258E+02  0.95131567551E+02  0.90291236950E+02 0.  0.
         13    1    3    3    0    0 -0.20964260746E+02  0.20036209024E+02 -0.20632780331E+02  0.35590345445E+02  0.10566000000E+00 0.  1.
         22    1    1    0    0    0 -0.25771578795E+02 -0.66596582572E+01 -0.13747085258E+02  0.29958432449E+02  0.00000000000E+00 0. -1.
</event>
<event>
 5    1  0.1261138E-009  0.9118800E+02  0.7561462E-02  0.1125453E+00
         25   -1    0    0    0    0  0.00000000000E+00  0.00000000000E+00  0.99999998245E-14  0.12509000000E+03  0.12509000000E+03 0.  0.
        -13    1    3    3    0    0  0.33020091854E+02 -0.73625949565E+01 -0.75425983698E+01  0.34661740071E+02  0.10566000000E+00 0.  1.
         23    2    1    0    0    0 -0.26128080742E+02  0.10470419685E+02 -0.50685516769E+01  0.96489361760E+02  0.92153135731E+02 0.  0.
         13    1    3    3    0    0 -0.59148172596E+02  0.17833014641E+02  0.24740466929E+01  0.61827621689E+02  0.10566000000E+00 0. -1.
         22    1    1    0    0    0  0.26128080742E+02 -0.10470419685E+02  0.50685516769E+01  0.28600638240E+02  0.00000000000E+00 0. -1.
</event>
<event>
 5    1  0.1261138E-009  0.9118800E+02  0.7561462E-02  0.1125453E+00
         25   -1    0    0    0    0  0.00000000000E+00  0.00000000000E+00  0.99999998245E-14  0.12509000000E+03  0.12509000000E+03 0.  0.
        -13    1    3    3    0    0  0.16410092671E+02  0.28849531486E+02 -0.47337301395E+02  0.57813647833E+02  0.10566000000E+00 0.  1.
         23    2    1    0    0    0 -0.87865428422E+01  0.11135973558E+02 -0.26599400763E+02  0.94944662663E+02  0.90031925477E+02 0.  0.
         13    1    3    3    0    0 -0.25196635513E+02 -0.17713557928E+02  0.20737900632E+02  0.37131014830E+02  0.10566000000E+00 0. -1.
         22    1    1    0    0    0  0.87865428422E+01 -0.11135973558E+02  0.26599400763E+02  0.30145337337E+02  0.00000000000E+00 0.  1.
</event>
<event>
 5    1  0.1261138E-009  0.9118800E+02  0.7561462E-02  0.1125453E+00
         25   -1    0    0    0    0  0.00000000000E+00  0.00000000000E+00  0.99999998245E-14  0.12509000000E+03  0.12509000000E+03 0.  0.
        -13    1    3    3    0    0 -0.71213656485E+01 -0.12872958567E+02 -0.25654787586E+02  0.29573741750E+02  0.10566000000E+00 0.  1.
         23    2    1    0    0    0  0.88283351717E+00  0.26762447317E+02  0.20815880383E+02  0.91173796534E+02  0.84630681889E+02 0.  0.
         13    1    3    3    0    0  0.80041991657E+01  0.39635405883E+02  0.46470667970E+02  0.61600054784E+02  0.10566000000E+00 0. -1.
         22    1    1    0    0    0 -0.88283351717E+00 -0.26762447317E+02 -0.20815880383E+02  0.33916203466E+02  0.00000000000E+00 0. -1.
</event>
<event>
 5    1  0.1261138E-009  0.9118800E+02  0.7561462E-02  0.1125453E+00
         25   -1    0    0    0    0  0.00000000000E+00  0.00000000000E+00  0.99999998245E-14  0.12509000000E+03  0.12509000000E+03 0.  0.
        -13    1    3    3    0    0 -0.28651835001E+02 -0.20516764342E+02  0.57988764449E+01  0.35714190457E+02  0.10566000000E+00 0.  1.
         23    2    1    0    0    0  0.24467772475E+02 -0.42546167495E+01 -0.16171399019E+02  0.95454079231E+02  0.90736946400E+02 0.  0.
         13    1    3    3    0    0  0.53119607476E+02  0.16262147592E+02 -0.21970275464E+02  0.59739888774E+02  0.10566000000E+00 0. -1.
         22    1    1    0    0    0 -0.24467772475E+02  0.42546167495E+01  0.16171399019E+02  0.29635920769E+02  0.00000000000E+00 0. -1.
</event>
<event>
 5    1  0.1261138E-009  0.9118800E+02  0.7561462E-02  0.1125453E+00
         25   -1    0    0    0    0  0.00000000000E+00  0.00000000000E+00  0.99999998245E-14  0.12509000000E+03  0.12509000000E+03 0.  0.
        -13    1    3    3    0    0 -0.20266394764E+02 -0.21474427323E+02 -0.19303836876E+02  0.35277855204E+02  0.10566000000E+00 0.  1.
         23    2    1    0    0    0  0.29092324428E+02  0.77393563282E+01 -0.98991318083E+01  0.93400036485E+02  0.87859621146E+02 0.  0.
         13    1    3    3    0    0  0.49358719192E+02  0.29213783652E+02  0.94047050679E+01  0.58122181282E+02  0.10566000000E+00 0. -1.
         22    1    1    0    0    0 -0.29092324428E+02 -0.77393563282E+01  0.98991318083E+01  0.31689963515E+02  0.00000000000E+00 0. -1.
</event>
<event>
 5    1  0.1261138E-009  0.9118800E+02  0.7561462E-02  0.1125453E+00
         25   -1    0    0    0    0  0.00000000000E+00  0.00000000000E+00  0.99999998245E-14  0.12509000000E+03  0.12509000000E+03 0.  0.
        -13    1    3    3    0    0 -0.67075335016E+01 -0.33121968061E+02  0.29189282049E+02  0.44655135478E+02  0.10566000000E+00 0.  1.
         23    2    1    0    0    0 -0.29890308489E+02  0.49325188321E+01  0.13829373153E+02  0.91788170540E+02  0.85533948849E+02 0.  0.
         13    1    3    3    0    0 -0.23182774987E+02  0.38054486893E+02 -0.15359908897E+02  0.47133035062E+02  0.10566000000E+00 0. -1.
         22    1    1    0    0    0  0.29890308489E+02 -0.49325188321E+01 -0.13829373153E+02  0.33301829460E+02  0.00000000000E+00 0. -1.
</event>
<event>
 5    1  0.1261138E-009  0.9118800E+02  0.7561462E-02  0.1125453E+00
         25   -1    0    0    0    0  0.00000000000E+00  0.00000000000E+00  0.99999998245E-14  0.12509000000E+03  0.12509000000E+03 0.  0.
        -13    1    3    3    0    0 -0.31644872913E+02 -0.21822551742E+02 -0.42757558260E+01  0.38677060360E+02  0.10566000000E+00 0. -1.
         23    2    1    0    0    0  0.35935654526E+01  0.25944870906E+02 -0.65901314082E+01  0.98081114962E+02  0.94289051545E+02 0.  0.
         13    1    3    3    0    0  0.35238438365E+02  0.47767422648E+02 -0.23143755821E+01  0.59404054602E+02  0.10566000000E+00 0.  1.
         22    1    1    0    0    0 -0.35935654526E+01 -0.25944870906E+02  0.65901314082E+01  0.27008885038E+02  0.00000000000E+00 0.  1.
</event>
<event>
 5    1  0.1261138E-009  0.9118800E+02  0.7561462E-02  0.1125453E+00
         25   -1    0    0    0    0  0.00000000000E+00  0.00000000000E+00  0.99999998245E-14  0.12509000000E+03  0.12509000000E+03 0.  0.
        -13    1    3    3    0    0 -0.69186443707E+01 -0.46217766621E+02 -0.29976974253E+02  0.55520984689E+02  0.10566000000E+00 0.  1.
         23    2    1    0    0    0 -0.22968175060E+02 -0.14410674972E+02 -0.11767010477E+02  0.95532138875E+02  0.90844495726E+02 0.  0.
         13    1    3    3    0    0 -0.16049530689E+02  0.31807091649E+02  0.18209963777E+02  0.40011154186E+02  0.10566000000E+00 0. -1.
         22    1    1    0    0    0  0.22968175060E+02  0.14410674972E+02  0.11767010477E+02  0.29557861125E+02  0.00000000000E+00 0.  1.
</event>
<event>
 5    1  0.1261138E-009  0.9118800E+02  0.7561462E-02  0.1125453E+00
         25   -1    0    0    0    0  0.00000000000E+00  0.00000000000E+00  0.99999998245E-14  0.12509000000E+03  0.12509000000E+03 0.  0.
        -13    1    3    3    0    0  0.40335508469E+02  0.63639420974E+01 -0.25059324314E+02  0.47910686716E+02  0.10566000000E+00 0.  1.
         23    2    1    0    0    0  0.24249733727E+02 -0.81737263420E+01  0.16398843162E+02  0.94696226868E+02  0.89686085530E+02 0.  0.
         13    1    3    3    0    0 -0.16085774742E+02 -0.14537668439E+02  0.41458167477E+02  0.46785540151E+02  0.10566000000E+00 0. -1.
         22    1    1    0    0    0 -0.24249733727E+02  0.81737263420E+01 -0.16398843162E+02  0.30393773132E+02  0.00000000000E+00 0.  1.
</event>
<event>
 5    1  0.1261138E-009  0.9118800E+02  0.7561462E-02  0.1125453E+00
         25   -1    0    0    0    0  0.00000000000E+00  0.00000000000E+00  0.99999998245E-14  0.12509000000E+03  0.12509000000E+03 0.  0.
        -13    1    3    3    0    0 -0.92928694431E+01 -0.38918967633E+02  0.19883019663E+02  0.44680970212E+02  0.10566000000E+00 0. -1.
         23    2    1    0    0    0 -0.15382443761E+02 -0.14491491154E+02 -0.22653552772E+02  0.94109258480E+02  0.88863638157E+02 0.  0.
         13    1    3    3    0    0 -0.60895743183E+01  0.24427476479E+02 -0.42536572436E+02  0.49428288268E+02  0.10566000000E+00 0.  1.
         22    1    1    0    0    0  0.15382443761E+02  0.14491491154E+02  0.22653552772E+02  0.30980741520E+02  0.00000000000E+00 0. -1.
</event>
<event>
 5    1  0.1261138E-009  0.9118800E+02  0.7561462E-02  0.1125453E+00
         25   -1    0    0    0    0  0.00000000000E+00  0.00000000000E+00  0.99999998245E-14  0.12509000000E+03  0.12509000000E+03 0.  0.
        -13    1    3    3    0    0 -0.10094554077E+01 -0.37216798266E+02 -0.46026435644E+01  0.37514058234E+02  0.10566000000E+00 0. -1.
         23    2    1    0    0    0  0.33263239213E+02  0.43293461708E+01 -0.28643846372E+00  0.91544979979E+02  0.85177549807E+02 0.  0.
         13    1    3    3    0    0  0.34272694621E+02  0.41546144436E+02  0.43162051007E+01  0.54030921745E+02  0.10566000000E+00 0.  1.
         22    1    1    0    0    0 -0.33263239213E+02 -0.43293461708E+01  0.28643846372E+00  0.33545020021E+02  0.00000000000E+00 0.  1.
</event>
<event>
 5    1  0.1261138E-009  0.9118800E+02  0.7561462E-02  0.1125453E+00
         25   -1    0    0    0    0  0.00000000000E+00  0.00000000000E+00  0.99999998245E-14  0.12509000000E+03  0.12509000000E+03 0.  0.
        -13    1    3    3    0    0 -0.30459098387E+02 -0.79298021599E+01 -0.12245910024E+02  0.33772946469E+02  0.10566000000E+00 0.  1.
         23    2    1    0    0    0  0.22153480341E+02  0.16384066960E+02  0.98895049029E+01  0.95815153313E+02  0.91233365365E+02 0.  0.
         13    1    3    3    0    0  0.52612578728E+02  0.24313869120E+02  0.22135414927E+02  0.62042206843E+02  0.10566000000E+00 0. -1.
         22    1    1    0    0    0 -0.22153480341E+02 -0.16384066960E+02 -0.98895049029E+01  0.29274846687E+02  0.00000000000E+00 0. -1.
</event>
<event>
 5    1  0.1261138E-009  0.9118800E+02  0.7561462E-02  0.1125453E+00
         25   -1    0    0    0    0  0.00000000000E+00  0.00000000000E+00  0.99999998245E-14  0.12509000000E+03  0.12509000000E+03 0.  0.
        -13    1    3    3    0    0  0.40074546688E+02 -0.14396132574E+02  0.88384411997E+01  0.43489620971E+02  0.10566000000E+00 0.  1.
         23    2    1    0    0    0  0.40244034027E+01  0.25534966191E+02  0.10190831702E+02  0.97303611751E+02  0.93251860506E+02 0.  0.
         13    1    3    3    0    0 -0.36050143285E+02  0.39931098766E+02  0.13523905024E+01  0.53813990780E+02  0.10566000000E+00 0. -1.
         22    1    1    0    0    0 -0.40244034027E+01 -0.25534966191E+02 -0.10190831702E+02  0.27786388249E+02  0.00000000000E+00 0. -1.
</event>
<event>
 5    1  0.1261138E-009  0.9118800E+02  0.7561462E-02  0.1125453E+00
         25   -1    0    0    0    0  0.00000000000E+00  0.00000000000E+00  0.99999998245E-14  0.12509000000E+03  0.12509000000E+03 0.  0.
        -13    1    3    3    0    0  0.34769490266E+02  0.30434383093E+02 -0.13030702917E+02  0.48010202147E+02  0.10566000000E+00 0. -1.
         23    2    1    0    0    0  0.21975097965E+02 -0.16017396851E+01  0.19678150921E+02  0.95548501658E+02  0.90867023968E+02 0.  0.
         13    1    3    3    0    0 -0.12794392301E+02 -0.32036122778E+02  0.32708853838E+02  0.47538299512E+02  0.10566000000E+00 0.  1.
         22    1    1    0    0    0 -0.21975097965E+02  0.16017396851E+01 -0.19678150921E+02  0.29541498342E+02  0.00000000000E+00 0. -1.
</event>
<event>
 5    1  0.1261138E-009  0.9118800E+02  0.7561462E-02  0.1125453E+00
         25   -1    0    0    0    0  0.00000000000E+00  0.00000000000E+00  0.99999998245E-14  0.12509000000E+03  0.12509000000E+03 0.  0.
        -13    1    3    3    0    0  0.58074720025E+01  0.46497054922E+02 -0.18121844715E+02  0.50240573915E+02  0.10566000000E+00 0. -1.
         23    2    1    0    0    0  0.28319761969E+02  0.13067847198E+02 -0.14165555745E+01  0.93868466116E+02  0.88524034889E+02 0.  0.
         13    1    3    3    0    0  0.22512289966E+02 -0.33429207724E+02  0.16705289140E+02  0.43627892201E+02  0.10566000000E+00 0.  1.
         22    1    1    0    0    0 -0.28319761969E+02 -0.13067847198E+02  0.14165555745E+01  0.31221533884E+02  0.00000000000E+00 0. -1.
</event>
<event>
 5    1  0.1261138E-009  0.9118800E+02  0.7561462E-02  0.1125453E+00
         25   -1    0    0    0    0  0.00000000000E+00  0.00000000000E+00  0.99999998245E-14  0.12509000000E+03  0.12509000000E+03 0.  0.
        -13    1    3    3    0    0 -0.24351319994E+02  0.14164149135E+02 -0.27723493662E+02  0.39524842454E+02  0.10566000000E+00 0. -1.
         23    2    1    0    0    0 -0.89702614841E+01 -0.94858995708E+01  0.23616178782E+02  0.98105341729E+02  0.94321186876E+02 0.  0.
         13    1    3    3    0    0  0.15381058510E+02 -0.23650048706E+02  0.51339672443E+02  0.58580499275E+02  0.10566000000E+00 0.  1.
         22    1    1    0    0    0  0.89702614841E+01  0.94858995708E+01 -0.23616178782E+02  0.26984658271E+02  0.00000000000E+00 0.  1.
</event>
<event>
 5    1  0.1261138E-009  0.9118800E+02  0.7561462E-02  0.1125453E+00
         25   -1    0    0    0    0  0.00000000000E+00  0.00000000000E+00  0.99999998245E-14  0.12509000000E+03  0.12509000000E+03 0.  0.
        -13    1    3    3    0    0  0.39787445421E+02  0.39066864402E+02  0.22463679694E+02  0.60115628391E+02  0.10566000000E+00 0. -1.
         23    2    1    0    0    0  0.93888869810E+01  0.25426214025E+02  0.57879817689E+01  0.97374583868E+02  0.93347015443E+02 0.  0.
         13    1    3    3    0    0 -0.30398558440E+02 -0.13640650377E+02 -0.16675697926E+02  0.37258955478E+02  0.10566000000E+00 0.  1.
         22    1    1    0    0    0 -0.93888869810E+01 -0.25426214025E+02 -0.57879817689E+01  0.27715416132E+02  0.00000000000E+00 0. -1.
</event>
<event>
 5    1  0.1261138E-009  0.9118800E+02  0.7561462E-02  0.1125453E+00
         25   -1    0    0    0    0  0.00000000000E+00  0.00000000000E+00  0.99999998245E-14  0.12509000000E+03  0.12509000000E+03 0.  0.
        -13    1    3    3    0    0 -0.56188453873E+01 -0.12135035207E+02  0.32869230521E+02  0.35485602461E+02  0.10566000000E+00 0.  1.
         23    2    1    0    0    0  0.13966814563E+02 -0.73282066966E+01 -0.24306881391E+02  0.96114165148E+02  0.91642423237E+02 0.  0.
         13    1    3    3    0    0  0.19585659950E+02  0.48068285101E+01 -0.57176111912E+02  0.60628562687E+02  0.10566000000E+00 0. -1.
         22    1    1    0    0    0 -0.13966814563E+02  0.73282066966E+01  0.24306881391E+02  0.28975834852E+02  0.00000000000E+00 0. -1.
</event>
<event>
 5    1  0.1261138E-009  0.9118800E+02  0.7561462E-02  0.1125453E+00
         25   -1    0    0    0    0  0.00000000000E+00  0.00000000000E+00  0.99999998245E-14  0.12509000000E+03  0.12509000000E+03 0.  0.
        -13    1    3    3    0    0 -0.22382553014E+02 -0.44337411270E+02 -0.35887479625E+02  0.61275664626E+02  0.10566000000E+00 0.  1.
         23    2    1    0    0    0 -0.94385516115E+01 -0.15303981998E+02 -0.23747797933E+02  0.95303156794E+02  0.90528645559E+02 0.  0.
         13    1    3    3    0    0  0.12944001403E+02  0.29033429272E+02  0.12139681692E+02  0.34027492168E+02  0.10566000000E+00 0. -1.
         22    1    1    0    0    0  0.94385516115E+01  0.15303981998E+02  0.23747797933E+02  0.29786843206E+02  0.00000000000E+00 0.  1.
</event>
<event>
 5    1  0.1261138E-009  0.9118800E+02  0.7561462E-02  0.1125453E+00
         25   -1    0    0    0    0  0.00000000000E+00  0.00000000000E+00  0.99999998245E-14  0.12509000000E+03  0.12509000000E+03 0.  0.
        -13    1    3    3    0    0 -0.10882488982E+02 -0.13495947841E+02 -0.59180077054E+02  0.61667348400E+02  0.10566000000E+00 0.  1.
         23    2    1    0    0    0 -0.68955057768E+01 -0.11568453415E+02 -0.20745452365E+02  0.10035640123E+03  0.97260764748E+02 0.  0.
         13    1    3    3    0    0  0.39869832050E+01  0.19274944257E+01  0.38434624688E+02  0.38689052829E+02  0.10566000000E+00 0. -1.
         22    1    1    0    0    0  0.68955057768E+01  0.11568453415E+02  0.20745452365E+02  0.24733598771E+02  0.00000000000E+00 0.  1.
</event>
<event>
 5    1  0.1261138E-009  0.9118800E+02  0.7561462E-02  0.1125453E+00
         25   -1    0    0    0    0  0.00000000000E+00  0.00000000000E+00  0.99999998245E-14  0.12509000000E+03  0.12509000000E+03 0.  0.
        -13    1    3    3    0    0 -0.24019145558E+02 -0.39453491546E+02 -0.17142788665E+02  0.49268486030E+02  0.10566000000E+00 0. -1.
         23    2    1    0    0    0 -0.25019561962E+02 -0.79845807523E+01  0.15478278155E+02  0.94605428407E+02  0.89559354502E+02 0.  0.
         13    1    3    3    0    0 -0.10004164045E+01  0.31468910793E+02  0.32621066820E+02  0.45336942376E+02  0.10566000000E+00 0.  1.
         22    1    1    0    0    0  0.25019561962E+02  0.79845807523E+01 -0.15478278155E+02  0.30484571593E+02  0.00000000000E+00 0. -1.
</event>
<event>
 5    1  0.1261138E-009  0.9118800E+02  0.7561462E-02  0.1125453E+00
         25   -1    0    0    0    0  0.00000000000E+00  0.00000000000E+00  0.99999998245E-14  0.12509000000E+03  0.12509000000E+03 0.  0.
        -13    1    3    3    0    0  0.28979589242E+01 -0.13993781303E+02 -0.34061933279E+02  0.36938469701E+02  0.10566000000E+00 0.  1.
         23    2    1    0    0    0  0.21494795779E+02  0.27559253559E+01  0.19422507455E+02  0.95989223962E+02  0.91471722138E+02 0.  0.
         13    1    3    3    0    0  0.18596836855E+02  0.16749706659E+02  0.53484440734E+02  0.59050754261E+02  0.10566000000E+00 0. -1.
         22    1    1    0    0    0 -0.21494795779E+02 -0.27559253559E+01 -0.19422507455E+02  0.29100776038E+02  0.00000000000E+00 0. -1.
</event>
<event>
 5    1  0.1261138E-009  0.9118800E+02  0.7561462E-02  0.1125453E+00
         25   -1    0    0    0    0  0.00000000000E+00  0.00000000000E+00  0.99999998245E-14  0.12509000000E+03  0.12509000000E+03 0.  0.
        -13    1    3    3    0    0  0.16299555342E+02  0.39365704624E+02  0.14101519953E+02  0.44879819896E+02  0.10566000000E+00 0.  1.
         23    2    1    0    0    0 -0.12264814095E+01 -0.62341325331E+01  0.28564193156E+02  0.95827706930E+02  0.91250575997E+02 0.  0.
         13    1    3    3    0    0 -0.17526036752E+02 -0.45599837157E+02  0.14462673203E+02  0.50947887034E+02  0.10566000000E+00 0. -1.
         22    1    1    0    0    0  0.12264814095E+01  0.62341325331E+01 -0.28564193156E+02  0.29262293070E+02  0.00000000000E+00 0. -1.
</event>
<event>
 5    1  0.1261138E-009  0.9118800E+02  0.7561462E-02  0.1125453E+00
         25   -1    0    0    0    0  0.00000000000E+00  0.00000000000E+00  0.99999998245E-14  0.12509000000E+03  0.12509000000E+03 0.  0.
        -13    1    3    3    0    0 -0.41191346008E+02 -0.15426191203E+02  0.22917552406E+02  0.49597577897E+02  0.10566000000E+00 0.  1.
         23    2    1    0    0    0 -0.27067956180E+02  0.16208005927E+02 -0.37522924970E+01  0.93318103506E+02  0.87742891650E+02 0.  0.
         13    1    3    3    0    0  0.14123389828E+02  0.31634197129E+02 -0.26669844903E+02  0.43720525608E+02  0.10566000000E+00 0. -1.
         22    1    1    0    0    0  0.27067956180E+02 -0.16208005927E+02  0.37522924970E+01  0.31771896494E+02  0.00000000000E+00 0. -1.
</event>
<event>
 5    1  0.1261138E-009  0.9118800E+02  0.7561462E-02  0.1125453E+00
         25   -1    0    0    0    0  0.00000000000E+00  0.00000000000E+00  0.99999998245E-14  0.12509000000E+03  0.12509000000E+03 0.  0.
        -13    1    3    3    0    0  0.50928745113E+01  0.63573948417E+01 -0.44526831951E+02  0.45265922807E+02  0.10566000000E+00 0.  1.
         23    2    1    0    0    0  0.15015038374E+02  0.25421936246E+02  0.93300220962E+00  0.95550251982E+02  0.90869433479E+02 0.  0.
         13    1    3    3    0    0  0.99221638622E+01  0.19064541404E+02  0.45459834160E+02  0.50284329175E+02  0.10566000000E+00 0. -1.
         22    1    1    0    0    0 -0.15015038374E+02 -0.25421936246E+02 -0.93300220962E+00  0.29539748018E+02  0.00000000000E+00 0. -1.
</event>
<event>
 5    1  0.1261138E-009  0.9118800E+02  0.7561462E-02  0.1125453E+00
         25   -1    0    0    0    0  0.00000000000E+00  0.00000000000E+00  0.99999998245E-14  0.12509000000E+03  0.12509000000E+03 0.  0.
        -13    1    3    3    0    0 -0.18625962762E+02 -0.32669697230E+02 -0.46942057463E+02  0.60148179763E+02  0.10566000000E+00 0.  1.
         23    2    1    0    0    0  0.18574816368E+01 -0.21196313502E+02 -0.19946487259E+02  0.95925015891E+02  0.91383873717E+02 0.  0.
         13    1    3    3    0    0  0.20483444399E+02  0.11473383728E+02  0.26995570204E+02  0.35776836128E+02  0.10566000000E+00 0. -1.
         22    1    1    0    0    0 -0.18574816368E+01  0.21196313502E+02  0.19946487259E+02  0.29164984109E+02  0.00000000000E+00 0.  1.
</event>
<event>
 5    1  0.1261138E-009  0.9118800E+02  0.7561462E-02  0.1125453E+00
         25   -1    0    0    0    0  0.00000000000E+00  0.00000000000E+00  0.99999998245E-14  0.12509000000E+03  0.12509000000E+03 0.  0.
        -13    1    3    3    0    0  0.34969847514E+02 -0.22521316289E+01  0.13813165046E+02  0.37666656670E+02  0.10566000000E+00 0.  1.
         23    2    1    0    0    0 -0.49639252297E+01 -0.55148199211E+01 -0.28322862767E+02  0.95811367044E+02  0.91228173866E+02 0.  0.
         13    1    3    3    0    0 -0.39933772744E+02 -0.32626882922E+01 -0.42136027814E+02  0.58144710374E+02  0.10566000000E+00 0. -1.
         22    1    1    0    0    0  0.49639252297E+01  0.55148199211E+01  0.28322862767E+02  0.29278632956E+02  0.00000000000E+00 0. -1.
</event>
<event>
 5    1  0.1261138E-009  0.9118800E+02  0.7561462E-02  0.1125453E+00
         25   -1    0    0    0    0  0.00000000000E+00  0.00000000000E+00  0.99999998245E-14  0.12509000000E+03  0.12509000000E+03 0.  0.
        -13    1    3    3    0    0 -0.22118062424E+02 -0.19286148766E+02 -0.21964726270E+02  0.36655485043E+02  0.10566000000E+00 0. -1.
         23    2    1    0    0    0  0.10534823224E+02  0.20846615545E+02  0.12280980997E+02  0.98700866360E+02  0.95107700245E+02 0.  0.
         13    1    3    3    0    0  0.32652885648E+02  0.40132764311E+02  0.34245707267E+02  0.62045381316E+02  0.10566000000E+00 0.  1.
         22    1    1    0    0    0 -0.10534823224E+02 -0.20846615545E+02 -0.12280980997E+02  0.26389133640E+02  0.00000000000E+00 0.  1.
</event>
<event>
 5    1  0.1261138E-009  0.9118800E+02  0.7561462E-02  0.1125453E+00
         25   -1    0    0    0    0  0.00000000000E+00  0.00000000000E+00  0.99999998245E-14  0.12509000000E+03  0.12509000000E+03 0.  0.
        -13    1    3    3    0    0 -0.28966292991E+02 -0.20646601373E+02 -0.50164328614E+01  0.35923586132E+02  0.10566000000E+00 0. -1.
         23    2    1    0    0    0  0.17284588500E+02  0.85291169515E+01  0.21089323475E+02  0.96519693733E+02  0.92194299596E+02 0.  0.
         13    1    3    3    0    0  0.46250881491E+02  0.29175718324E+02  0.26105756336E+02  0.60596107601E+02  0.10566000000E+00 0.  1.
         22    1    1    0    0    0 -0.17284588500E+02 -0.85291169515E+01 -0.21089323475E+02  0.28570306267E+02  0.00000000000E+00 0.  1.
</event>
<event>
 5    1  0.1261138E-009  0.9118800E+02  0.7561462E-02  0.1125453E+00
         25   -1    0    0    0    0  0.00000000000E+00  0.00000000000E+00  0.99999998245E-14  0.12509000000E+03  0.12509000000E+03 0.  0.
        -13    1    3    3    0    0  0.41356256821E+02 -0.13780111019E+02 -0.19123514602E+02  0.47602010595E+02  0.10566000000E+00 0.  1.
         23    2    1    0    0    0  0.79318815438E+01 -0.18340643542E+02  0.18305960502E+02  0.97990145014E+02  0.94168287547E+02 0.  0.
         13    1    3    3    0    0 -0.33424375277E+02 -0.45605325236E+01  0.37429475104E+02  0.50388134419E+02  0.10566000000E+00 0. -1.
         22    1    1    0    0    0 -0.79318815438E+01  0.18340643542E+02 -0.18305960502E+02  0.27099854986E+02  0.00000000000E+00 0.  1.
</event>
<event>
 5    1  0.1261138E-009  0.9118800E+02  0.7561462E-02  0.1125453E+00
         25   -1    0    0    0    0  0.00000000000E+00  0.00000000000E+00  0.99999998245E-14  0.12509000000E+03  0.12509000000E+03 0.  0.
        -13    1    3    3    0    0 -0.27383213233E+02  0.15575535024E+02  0.10411525530E+02  0.33179039861E+02  0.10566000000E+00 0.  1.
         23    2    1    0    0    0  0.59150680919E+01 -0.20446237303E+02 -0.23933045530E+02  0.93061460872E+02  0.87376244946E+02 0.  0.
         13    1    3    3    0    0  0.33298281325E+02 -0.36021772327E+02 -0.34344571060E+02  0.59882421010E+02  0.10566000000E+00 0. -1.
         22    1    1    0    0    0 -0.59150680919E+01  0.20446237303E+02  0.23933045530E+02  0.32028539128E+02  0.00000000000E+00 0. -1.
</event>
<event>
 5    1  0.1261138E-009  0.9118800E+02  0.7561462E-02  0.1125453E+00
         25   -1    0    0    0    0  0.00000000000E+00  0.00000000000E+00  0.99999998245E-14  0.12509000000E+03  0.12509000000E+03 0.  0.
        -13    1    3    3    0    0  0.13533034360E+02 -0.45313192208E+02  0.14602231759E+02  0.49494087965E+02  0.10566000000E+00 0.  1.
         23    2    1    0    0    0  0.27844770612E+02 -0.13564980665E+01  0.70459416441E+01  0.96335580669E+02  0.91944154092E+02 0.  0.
         13    1    3    3    0    0  0.14311736252E+02  0.43956694142E+02 -0.75562901144E+01  0.46841492704E+02  0.10566000000E+00 0. -1.
         22    1    1    0    0    0 -0.27844770612E+02  0.13564980665E+01 -0.70459416441E+01  0.28754419331E+02  0.00000000000E+00 0.  1.
</event>
<event>
 5    1  0.1261138E-009  0.9118800E+02  0.7561462E-02  0.1125453E+00
         25   -1    0    0    0    0  0.00000000000E+00  0.00000000000E+00  0.99999998245E-14  0.12509000000E+03  0.12509000000E+03 0.  0.
        -13    1    3    3    0    0 -0.47214423881E+02 -0.30041021671E+02 -0.16615076352E+02  0.58375823178E+02  0.10566000000E+00 0.  1.
         23    2    1    0    0    0 -0.25721339650E+02 -0.12825540410E+02  0.79403529716E+01  0.95271700158E+02  0.90485169202E+02 0.  0.
         13    1    3    3    0    0  0.21493084232E+02  0.17215481261E+02  0.24555429323E+02  0.36895876980E+02  0.10566000000E+00 0. -1.
         22    1    1    0    0    0  0.25721339650E+02  0.12825540410E+02 -0.79403529716E+01  0.29818299842E+02  0.00000000000E+00 0.  1.
</event>
<event>
 5    1  0.1261138E-009  0.9118800E+02  0.7561462E-02  0.1125453E+00
         25   -1    0    0    0    0  0.00000000000E+00  0.00000000000E+00  0.99999998245E-14  0.12509000000E+03  0.12509000000E+03 0.  0.
        -13    1    3    3    0    0 -0.38709701671E+02  0.25185032061E+01  0.10180083484E+02  0.40105225664E+02  0.10566000000E+00 0.  1.
         23    2    1    0    0    0 -0.16123474770E+01 -0.30806286235E+02 -0.80635264034E+01  0.93205091438E+02  0.87581628644E+02 0.  0.
         13    1    3    3    0    0  0.37097354194E+02 -0.33324789441E+02 -0.18243609887E+02  0.53099865774E+02  0.10566000000E+00 0. -1.
         22    1    1    0    0    0  0.16123474770E+01  0.30806286235E+02  0.80635264034E+01  0.31884908562E+02  0.00000000000E+00 0.  1.
</event>
<event>
 5    1  0.1261138E-009  0.9118800E+02  0.7561462E-02  0.1125453E+00
         25   -1    0    0    0    0  0.00000000000E+00  0.00000000000E+00  0.99999998245E-14  0.12509000000E+03  0.12509000000E+03 0.  0.
        -13    1    3    3    0    0 -0.27098867675E+02  0.28160815030E+02  0.68232520635E+01  0.39673014319E+02  0.10566000000E+00 0.  1.
         23    2    1    0    0    0 -0.94347004983E+01 -0.56174989273E+01 -0.30287935424E+02  0.92873096053E+02  0.87106159774E+02 0.  0.
         13    1    3    3    0    0  0.17664167177E+02 -0.33778313957E+02 -0.37111187487E+02  0.53200081734E+02  0.10566000000E+00 0. -1.
         22    1    1    0    0    0  0.94347004983E+01  0.56174989273E+01  0.30287935424E+02  0.32216903947E+02  0.00000000000E+00 0.  1.
</event>
<event>
 5    1  0.1261138E-009  0.9118800E+02  0.7561462E-02  0.1125453E+00
         25   -1    0    0    0    0  0.00000000000E+00  0.00000000000E+00  0.99999998245E-14  0.12509000000E+03  0.12509000000E+03 0.  0.
        -13    1    3    3    0    0  0.11462772983E+02 -0.57745762381E+02  0.72496415456E+01  0.59317254691E+02  0.10566000000E+00 0.  1.
         23    2    1    0    0    0 -0.56134373514E+01 -0.27243780312E+02 -0.58813582304E+01  0.96658949734E+02  0.92383050093E+02 0.  0.
         13    1    3    3    0    0 -0.17076210334E+02  0.30501982069E+02 -0.13130999776E+02  0.37341695043E+02  0.10566000000E+00 0. -1.
         22    1    1    0    0    0  0.56134373514E+01  0.27243780312E+02  0.58813582304E+01  0.28431050266E+02  0.00000000000E+00 0.  1.
</event>
<event>
 5    1  0.1261138E-009  0.9118800E+02  0.7561462E-02  0.1125453E+00
         25   -1    0    0    0    0  0.00000000000E+00  0.00000000000E+00  0.99999998245E-14  0.12509000000E+03  0.12509000000E+03 0.  0.
        -13    1    3    3    0    0 -0.80020673973E+01 -0.44043693966E+02  0.37015541526E+01  0.44917621575E+02  0.10566000000E+00 0. -1.
         23    2    1    0    0    0  0.28814942456E+02 -0.11768057593E+02  0.15026236017E+01  0.93928389548E+02  0.88608669989E+02 0.  0.
         13    1    3    3    0    0  0.36817009853E+02  0.32275636372E+02 -0.21989305509E+01  0.49010767974E+02  0.10566000000E+00 0.  1.
         22    1    1    0    0    0 -0.28814942456E+02  0.11768057593E+02 -0.15026236017E+01  0.31161610452E+02  0.00000000000E+00 0. -1.
</event>
<event>
 5    1  0.1261138E-009  0.9118800E+02  0.7561462E-02  0.1125453E+00
         25   -1    0    0    0    0  0.00000000000E+00  0.00000000000E+00  0.99999998245E-14  0.12509000000E+03  0.12509000000E+03 0.  0.
        -13    1    3    3    0    0  0.28253122896E+02 -0.67367793450E+01 -0.38976335232E+02  0.48608528279E+02  0.10566000000E+00 0. -1.
         23    2    1    0    0    0 -0.10717172304E+02  0.16926423363E+02 -0.93453134484E+01  0.10298351965E+03  0.10058284568E+03 0.  0.
         13    1    3    3    0    0 -0.38970295200E+02  0.23663202708E+02  0.29631021784E+02  0.54374991369E+02  0.10566000000E+00 0.  1.
         22    1    1    0    0    0  0.10717172304E+02 -0.16926423363E+02  0.93453134484E+01  0.22106480351E+02  0.00000000000E+00 0.  1.
</event>
<event>
 5    1  0.1261138E-009  0.9118800E+02  0.7561462E-02  0.1125453E+00
         25   -1    0    0    0    0  0.00000000000E+00  0.00000000000E+00  0.99999998245E-14  0.12509000000E+03  0.12509000000E+03 0.  0.
        -13    1    3    3    0    0  0.28221883897E+02  0.38921822392E+02 -0.36694159647E+02  0.60480207550E+02  0.10566000000E+00 0.  1.
         23    2    1    0    0    0  0.21266306999E+02  0.12073620812E+02 -0.11046234940E+02  0.98256300307E+02  0.94521178107E+02 0.  0.
         13    1    3    3    0    0 -0.69555768978E+01 -0.26848201581E+02  0.25647924708E+02  0.37776092757E+02  0.10566000000E+00 0. -1.
         22    1    1    0    0    0 -0.21266306999E+02 -0.12073620812E+02  0.11046234940E+02  0.26833699693E+02  0.00000000000E+00 0.  1.
</event>
<event>
 5    1  0.1261138E-009  0.9118800E+02  0.7561462E-02  0.1125453E+00
         25   -1    0    0    0    0  0.00000000000E+00  0.00000000000E+00  0.99999998245E-14  0.12509000000E+03  0.12509000000E+03 0.  0.
        -13    1    3    3    0    0  0.57847537678E+00 -0.24609028669E+02 -0.25928403669E+02  0.35752373440E+02  0.10566000000E+00 0. -1.
         23    2    1    0    0    0  0.47125029209E+01  0.68841888199E+01  0.26641282696E+02  0.97173021597E+02  0.93076519290E+02 0.  0.
         13    1    3    3    0    0  0.41340275441E+01  0.31493217489E+02  0.52569686364E+02  0.61420648157E+02  0.10566000000E+00 0.  1.
         22    1    1    0    0    0 -0.47125029209E+01 -0.68841888199E+01 -0.26641282696E+02  0.27916978403E+02  0.00000000000E+00 0.  1.
</event>
<event>
 5    1  0.1261138E-009  0.9118800E+02  0.7561462E-02  0.1125453E+00
         25   -1    0    0    0    0  0.00000000000E+00  0.00000000000E+00  0.99999998245E-14  0.12509000000E+03  0.12509000000E+03 0.  0.
        -13    1    3    3    0    0  0.12824635612E+00 -0.39286725441E+02 -0.16837106533E+02  0.42742982622E+02  0.10566000000E+00 0.  1.
         23    2    1    0    0    0  0.35297064755E+01  0.10658302423E+02 -0.28770377079E+02  0.94206463356E+02  0.89000364620E+02 0.  0.
         13    1    3    3    0    0  0.34014601194E+01  0.49945027864E+02 -0.11933270547E+02  0.51463480734E+02  0.10566000000E+00 0. -1.
         22    1    1    0    0    0 -0.35297064755E+01 -0.10658302423E+02  0.28770377079E+02  0.30883536644E+02  0.00000000000E+00 0. -1.
</event>
<event>
 5    1  0.1261138E-009  0.9118800E+02  0.7561462E-02  0.1125453E+00
         25   -1    0    0    0    0  0.00000000000E+00  0.00000000000E+00  0.99999998245E-14  0.12509000000E+03  0.12509000000E+03 0.  0.
        -13    1    3    3    0    0  0.98123683491E+01  0.40325707771E+02 -0.99076658133E+01  0.42668703821E+02  0.10566000000E+00 0.  1.
         23    2    1    0    0    0  0.30849478987E+02 -0.39047273582E+01  0.43769636556E+01  0.93687849432E+02  0.88268443233E+02 0.  0.
         13    1    3    3    0    0  0.21037110637E+02 -0.44230435129E+02  0.14284629469E+02  0.51019145610E+02  0.10566000000E+00 0. -1.
         22    1    1    0    0    0 -0.30849478987E+02  0.39047273582E+01 -0.43769636556E+01  0.31402150568E+02  0.00000000000E+00 0. -1.
</event>
<event>
 5    1  0.1261138E-009  0.9118800E+02  0.7561462E-02  0.1125453E+00
         25   -1    0    0    0    0  0.00000000000E+00  0.00000000000E+00  0.99999998245E-14  0.12509000000E+03  0.12509000000E+03 0.  0.
        -13    1    3    3    0    0  0.34988839868E+02 -0.88309074680E+01  0.44020594303E+01  0.36353722413E+02  0.10566000000E+00 0. -1.
         23    2    1    0    0    0 -0.14763437827E+02  0.88329499382E+01 -0.23419298802E+02  0.96030687250E+02  0.91528406718E+02 0.  0.
         13    1    3    3    0    0 -0.49752277695E+02  0.17663857406E+02 -0.27821358233E+02  0.59676964838E+02  0.10566000000E+00 0.  1.
         22    1    1    0    0    0  0.14763437827E+02 -0.88329499382E+01  0.23419298802E+02  0.29059312750E+02  0.00000000000E+00 0.  1.
</event>
<event>
 5    1  0.1261138E-009  0.9118800E+02  0.7561462E-02  0.1125453E+00
         25   -1    0    0    0    0  0.00000000000E+00  0.00000000000E+00  0.99999998245E-14  0.12509000000E+03  0.12509000000E+03 0.  0.
        -13    1    3    3    0    0  0.34766532549E+02  0.18483906738E+02  0.91973142646E+01  0.40434741838E+02  0.10566000000E+00 0.  1.
         23    2    1    0    0    0 -0.17962402897E+02  0.16430669201E+02 -0.12777850781E+02  0.97596577536E+02  0.93644026333E+02 0.  0.
         13    1    3    3    0    0 -0.52728935446E+02 -0.20532375365E+01 -0.21975165045E+02  0.57161835698E+02  0.10566000000E+00 0. -1.
         22    1    1    0    0    0  0.17962402897E+02 -0.16430669201E+02  0.12777850781E+02  0.27493422464E+02  0.00000000000E+00 0. -1.
</event>
<event>
 5    1  0.1261138E-009  0.9118800E+02  0.7561462E-02  0.1125453E+00
         25   -1    0    0    0    0  0.00000000000E+00  0.00000000000E+00  0.99999998245E-14  0.12509000000E+03  0.12509000000E+03 0.  0.
        -13    1    3    3    0    0 -0.34255995977E+02  0.28684486063E+02  0.73086924684E+01  0.45273625332E+02  0.10566000000E+00 0. -1.
         23    2    1    0    0    0 -0.21149192791E+02 -0.12595381671E+02 -0.17221002283E+02  0.95048446865E+02  0.90176007544E+02 0.  0.
         13    1    3    3    0    0  0.13106803186E+02 -0.41279867734E+02 -0.24529694751E+02  0.49774821532E+02  0.10566000000E+00 0.  1.
         22    1    1    0    0    0  0.21149192791E+02  0.12595381671E+02  0.17221002283E+02  0.30041553135E+02  0.00000000000E+00 0.  1.
</event>
<event>
 5    1  0.1261138E-009  0.9118800E+02  0.7561462E-02  0.1125453E+00
         25   -1    0    0    0    0  0.00000000000E+00  0.00000000000E+00  0.99999998245E-14  0.12509000000E+03  0.12509000000E+03 0.  0.
        -13    1    3    3    0    0 -0.78651523414E+01  0.24880535596E+02 -0.23986408357E+02  0.35443767052E+02  0.10566000000E+00 0. -1.
         23    2    1    0    0    0  0.82759055517E+01 -0.28388115771E+02 -0.14775955951E+01  0.95483260590E+02  0.90777166923E+02 0.  0.
         13    1    3    3    0    0  0.16141057893E+02 -0.53268651367E+02  0.22508812762E+02  0.60039493539E+02  0.10566000000E+00 0.  1.
         22    1    1    0    0    0 -0.82759055517E+01  0.28388115771E+02  0.14775955951E+01  0.29606739410E+02  0.00000000000E+00 0.  1.
</event>
<event>
 5    1  0.1261138E-009  0.9118800E+02  0.7561462E-02  0.1125453E+00
         25   -1    0    0    0    0  0.00000000000E+00  0.00000000000E+00  0.99999998245E-14  0.12509000000E+03  0.12509000000E+03 0.  0.
        -13    1    3    3    0    0  0.20546303453E+02 -0.42950169189E+02 -0.33189759576E+02  0.58038253969E+02  0.10566000000E+00 0. -1.
         23    2    1    0    0    0  0.24018199224E+02 -0.11688716182E+02 -0.13328638959E+02  0.95237820909E+02  0.90438321165E+02 0.  0.
         13    1    3    3    0    0  0.34718957711E+01  0.31261453007E+02  0.19861120617E+02  0.37199566941E+02  0.10566000000E+00 0.  1.
         22    1    1    0    0    0 -0.24018199224E+02  0.11688716182E+02  0.13328638959E+02  0.29852179091E+02  0.00000000000E+00 0. -1.
</event>
<event>
 5    1  0.1261138E-009  0.9118800E+02  0.7561462E-02  0.1125453E+00
         25   -1    0    0    0    0  0.00000000000E+00  0.00000000000E+00  0.99999998245E-14  0.12509000000E+03  0.12509000000E+03 0.  0.
        -13    1    3    3    0    0 -0.33848032295E+02 -0.19617074675E+02  0.10341788499E+02  0.40465820917E+02  0.10566000000E+00 0.  1.
         23    2    1    0    0    0  0.17907084451E+02 -0.67005382102E+01  0.22890774985E+02  0.95264700919E+02  0.90475492681E+02 0.  0.
         13    1    3    3    0    0  0.51755116746E+02  0.12916536465E+02  0.12548986486E+02  0.54798880002E+02  0.10566000000E+00 0. -1.
         22    1    1    0    0    0 -0.17907084451E+02  0.67005382102E+01 -0.22890774985E+02  0.29825299081E+02  0.00000000000E+00 0. -1.
</event>
<event>
 5    1  0.1261138E-009  0.9118800E+02  0.7561462E-02  0.1125453E+00
         25   -1    0    0    0    0  0.00000000000E+00  0.00000000000E+00  0.99999998245E-14  0.12509000000E+03  0.12509000000E+03 0.  0.
        -13    1    3    3    0    0  0.19876080264E+02 -0.11862571190E+02  0.53581078288E+02  0.58367133529E+02  0.10566000000E+00 0. -1.
         23    2    1    0    0    0  0.24074853673E+02 -0.73736595342E+01  0.18852807649E+02  0.93635305747E+02  0.88193949292E+02 0.  0.
         13    1    3    3    0    0  0.41987734091E+01  0.44889116556E+01 -0.34728270639E+02  0.35268172218E+02  0.10566000000E+00 0.  1.
         22    1    1    0    0    0 -0.24074853673E+02  0.73736595342E+01 -0.18852807649E+02  0.31454694253E+02  0.00000000000E+00 0. -1.
</event>
<event>
 5    1  0.1261138E-009  0.9118800E+02  0.7561462E-02  0.1125453E+00
         25   -1    0    0    0    0  0.00000000000E+00  0.00000000000E+00  0.99999998245E-14  0.12509000000E+03  0.12509000000E+03 0.  0.
        -13    1    3    3    0    0 -0.21682493495E+02 -0.17797091917E+02 -0.90865698449E+01  0.29486334469E+02  0.10566000000E+00 0. -1.
         23    2    1    0    0    0  0.23808864554E+02  0.18922712540E+02  0.13045430920E+02  0.91997488021E+02  0.85839521509E+02 0.  0.
         13    1    3    3    0    0  0.45491358049E+02  0.36719804457E+02  0.22132000765E+02  0.62511153552E+02  0.10566000000E+00 0.  1.
         22    1    1    0    0    0 -0.23808864554E+02 -0.18922712540E+02 -0.13045430920E+02  0.33092511979E+02  0.00000000000E+00 0.  1.
</event>
<event>
 5    1  0.1261138E-009  0.9118800E+02  0.7561462E-02  0.1125453E+00
         25   -1    0    0    0    0  0.00000000000E+00  0.00000000000E+00  0.99999998245E-14  0.12509000000E+03  0.12509000000E+03 0.  0.
        -13    1    3    3    0    0 -0.27986995907E+02  0.79416065892E+01  0.17327363070E+02  0.33861330897E+02  0.10566000000E+00 0.  1.
         23    2    1    0    0    0  0.28812721535E+02 -0.82662598592E+01  0.10534565115E+02  0.93317668696E+02  0.87742271764E+02 0.  0.
         13    1    3    3    0    0  0.56799717442E+02 -0.16207866448E+02 -0.67927979550E+01  0.59456337799E+02  0.10566000000E+00 0. -1.
         22    1    1    0    0    0 -0.28812721535E+02  0.82662598592E+01 -0.10534565115E+02  0.31772331304E+02  0.00000000000E+00 0. -1.
</event>
<event>
 5    1  0.1261138E-009  0.9118800E+02  0.7561462E-02  0.1125453E+00
         25   -1    0    0    0    0  0.00000000000E+00  0.00000000000E+00  0.99999998245E-14  0.12509000000E+03  0.12509000000E+03 0.  0.
        -13    1    3    3    0    0  0.30257714966E+02  0.99637512119E+00 -0.18230614497E+02  0.35339617249E+02  0.10566000000E+00 0.  1.
         23    2    1    0    0    0 -0.52441232994E+01  0.15543345646E+02  0.26284268260E+02  0.94106791951E+02  0.88860166050E+02 0.  0.
         13    1    3    3    0    0 -0.35501838265E+02  0.14546970525E+02  0.44514882756E+02  0.58767174702E+02  0.10566000000E+00 0. -1.
         22    1    1    0    0    0  0.52441232994E+01 -0.15543345646E+02 -0.26284268260E+02  0.30983208049E+02  0.00000000000E+00 0. -1.
</event>
<event>
 5    1  0.1261138E-009  0.9118800E+02  0.7561462E-02  0.1125453E+00
         25   -1    0    0    0    0  0.00000000000E+00  0.00000000000E+00  0.99999998245E-14  0.12509000000E+03  0.12509000000E+03 0.  0.
        -13    1    3    3    0    0 -0.17726898556E+01 -0.47161235790E+02  0.28614923109E+02  0.55191934005E+02  0.10566000000E+00 0.  1.
         23    2    1    0    0    0 -0.20919076786E+02 -0.19294252807E+02  0.56176058921E+01  0.96082527498E+02  0.91599228324E+02 0.  0.
         13    1    3    3    0    0 -0.19146386930E+02  0.27866982983E+02 -0.22997317217E+02  0.40890593494E+02  0.10566000000E+00 0. -1.
         22    1    1    0    0    0  0.20919076786E+02  0.19294252807E+02 -0.56176058921E+01  0.29007472502E+02  0.00000000000E+00 0.  1.
</event>
<event>
 5    1  0.1261138E-009  0.9118800E+02  0.7561462E-02  0.1125453E+00
         25   -1    0    0    0    0  0.00000000000E+00  0.00000000000E+00  0.99999998245E-14  0.12509000000E+03  0.12509000000E+03 0.  0.
        -13    1    3    3    0    0 -0.39649579965E+02  0.67087153791E+01 -0.11020036447E+02  0.41695904125E+02  0.10566000000E+00 0. -1.
         23    2    1    0    0    0  0.14314645693E+02  0.94303859022E+01 -0.22369391317E+02  0.96907897036E+02  0.92719521033E+02 0.  0.
         13    1    3    3    0    0  0.53964225658E+02  0.27216705231E+01 -0.11349354869E+02  0.55211992912E+02  0.10566000000E+00 0.  1.
         22    1    1    0    0    0 -0.14314645693E+02 -0.94303859022E+01  0.22369391317E+02  0.28182102964E+02  0.00000000000E+00 0.  1.
</event>
<event>
 5    1  0.1261138E-009  0.9118800E+02  0.7561462E-02  0.1125453E+00
         25   -1    0    0    0    0  0.00000000000E+00  0.00000000000E+00  0.99999998245E-14  0.12509000000E+03  0.12509000000E+03 0.  0.
        -13    1    3    3    0    0  0.30115519180E+01  0.26182661644E+02  0.56216020410E+02  0.62087465164E+02  0.10566000000E+00 0. -1.
         23    2    1    0    0    0  0.62627484810E+01  0.91518119705E+01  0.20903888505E+02  0.10142673236E+03  0.98627743567E+02 0.  0.
         13    1    3    3    0    0  0.32511965630E+01 -0.17030849673E+02 -0.35312131904E+02  0.39339267194E+02  0.10566000000E+00 0.  1.
         22    1    1    0    0    0 -0.62627484810E+01 -0.91518119705E+01 -0.20903888505E+02  0.23663267642E+02  0.00000000000E+00 0. -1.
</event>
<event>
 5    1  0.1261138E-009  0.9118800E+02  0.7561462E-02  0.1125453E+00
         25   -1    0    0    0    0  0.00000000000E+00  0.00000000000E+00  0.99999998245E-14  0.12509000000E+03  0.12509000000E+03 0.  0.
        -13    1    3    3    0    0 -0.17127369537E+02 -0.15916818830E+02 -0.34023100310E+02  0.41282858763E+02  0.10566000000E+00 0. -1.
         23    2    1    0    0    0  0.28156947206E+02  0.63507606683E+00 -0.95665847254E+01  0.95345478809E+02  0.90587106082E+02 0.  0.
         13    1    3    3    0    0  0.45284316743E+02  0.16551894897E+02  0.24456515585E+02  0.54062620045E+02  0.10566000000E+00 0.  1.
         22    1    1    0    0    0 -0.28156947206E+02 -0.63507606683E+00  0.95665847254E+01  0.29744521191E+02  0.00000000000E+00 0.  1.
</event>
<event>
 5    1  0.1261138E-009  0.9118800E+02  0.7561462E-02  0.1125453E+00
         25   -1    0    0    0    0  0.00000000000E+00  0.00000000000E+00  0.99999998245E-14  0.12509000000E+03  0.12509000000E+03 0.  0.
        -13    1    3    3    0    0 -0.13668980820E+02 -0.49116901669E+02 -0.12922478163E+02  0.52595747662E+02  0.10566000000E+00 0.  1.
         23    2    1    0    0    0 -0.18433247458E+02 -0.76956728283E+01 -0.22112676707E+02  0.95291032513E+02  0.90511891010E+02 0.  0.
         13    1    3    3    0    0 -0.47642666380E+01  0.41421228840E+02 -0.91901985444E+01  0.42695284852E+02  0.10566000000E+00 0. -1.
         22    1    1    0    0    0  0.18433247458E+02  0.76956728283E+01  0.22112676707E+02  0.29798967487E+02  0.00000000000E+00 0.  1.
</event>
<event>
 5    1  0.1261138E-009  0.9118800E+02  0.7561462E-02  0.1125453E+00
         25   -1    0    0    0    0  0.00000000000E+00  0.00000000000E+00  0.99999998245E-14  0.12509000000E+03  0.12509000000E+03 0.  0.
        -13    1    3    3    0    0  0.16459187715E+02 -0.53285283145E+02  0.12987121087E+02  0.57261703941E+02  0.10566000000E+00 0. -1.
         23    2    1    0    0    0  0.37393633773E+01 -0.30224283033E+02  0.24498987365E+02  0.86004318411E+02  0.76609740112E+02 0.  0.
         13    1    3    3    0    0 -0.12719824337E+02  0.23061000112E+02  0.11511866278E+02  0.28742614470E+02  0.10566000000E+00 0.  1.
         22    1    1    0    0    0 -0.37393633773E+01  0.30224283033E+02 -0.24498987365E+02  0.39085681589E+02  0.00000000000E+00 0. -1.
</event>
<event>
 5    1  0.1261138E-009  0.9118800E+02  0.7561462E-02  0.1125453E+00
         25   -1    0    0    0    0  0.00000000000E+00  0.00000000000E+00  0.99999998245E-14  0.12509000000E+03  0.12509000000E+03 0.  0.
        -13    1    3    3    0    0 -0.10398475885E+02 -0.20454166436E+02  0.17314562831E+02  0.28745547053E+02  0.10566000000E+00 0.  1.
         23    2    1    0    0    0  0.26268351820E+02  0.13806719769E+02 -0.18249117181E+02  0.90252059533E+02  0.83257144762E+02 0.  0.
         13    1    3    3    0    0  0.36666827705E+02  0.34260886205E+02 -0.35563680012E+02  0.61506512480E+02  0.10566000000E+00 0. -1.
         22    1    1    0    0    0 -0.26268351820E+02 -0.13806719769E+02  0.18249117181E+02  0.34837940467E+02  0.00000000000E+00 0. -1.
</event>
<event>
 5    1  0.1261138E-009  0.9118800E+02  0.7561462E-02  0.1125453E+00
         25   -1    0    0    0    0  0.00000000000E+00  0.00000000000E+00  0.99999998245E-14  0.12509000000E+03  0.12509000000E+03 0.  0.
        -13    1    3    3    0    0  0.28056476942E+02 -0.83103732839E+01  0.29335553258E+02  0.41434454883E+02  0.10566000000E+00 0.  1.
         23    2    1    0    0    0 -0.18390391554E+02 -0.14573775733E+02 -0.68502271923E+01  0.10064563351E+03  0.97632046434E+02 0.  0.
         13    1    3    3    0    0 -0.46446868496E+02 -0.62634024489E+01 -0.36185780450E+02  0.59211178625E+02  0.10566000000E+00 0. -1.
         22    1    1    0    0    0  0.18390391554E+02  0.14573775733E+02  0.68502271923E+01  0.24444366492E+02  0.00000000000E+00 0. -1.
</event>
<event>
 5    1  0.1261138E-009  0.9118800E+02  0.7561462E-02  0.1125453E+00
         25   -1    0    0    0    0  0.00000000000E+00  0.00000000000E+00  0.99999998245E-14  0.12509000000E+03  0.12509000000E+03 0.  0.
        -13    1    3    3    0    0 -0.33419815895E+02 -0.68070393424E+01 -0.49641331506E+02  0.60228671219E+02  0.10566000000E+00 0. -1.
         23    2    1    0    0    0 -0.95435815564E+01  0.68056149803E+01 -0.26334057671E+02  0.96265029269E+02  0.91848118775E+02 0.  0.
         13    1    3    3    0    0  0.23876234338E+02  0.13612654323E+02  0.23307273835E+02  0.36036358050E+02  0.10566000000E+00 0.  1.
         22    1    1    0    0    0  0.95435815564E+01 -0.68056149803E+01  0.26334057671E+02  0.28824970731E+02  0.00000000000E+00 0. -1.
</event>
<event>
 5    1  0.1261138E-009  0.9118800E+02  0.7561462E-02  0.1125453E+00
         25   -1    0    0    0    0  0.00000000000E+00  0.00000000000E+00  0.99999998245E-14  0.12509000000E+03  0.12509000000E+03 0.  0.
        -13    1    3    3    0    0  0.38969762829E+02  0.35812625566E+02  0.14801324608E+02  0.54957046310E+02  0.10566000000E+00 0. -1.
         23    2    1    0    0    0  0.21843471170E+02  0.69348176838E+01 -0.13170849885E+02  0.98657061916E+02  0.95050069175E+02 0.  0.
         13    1    3    3    0    0 -0.17126291659E+02 -0.28877807883E+02 -0.27972174493E+02  0.43700015606E+02  0.10566000000E+00 0.  1.
         22    1    1    0    0    0 -0.21843471170E+02 -0.69348176838E+01  0.13170849885E+02  0.26432938084E+02  0.00000000000E+00 0. -1.
</event>
<event>
 5    1  0.1261138E-009  0.9118800E+02  0.7561462E-02  0.1125453E+00
         25   -1    0    0    0    0  0.00000000000E+00  0.00000000000E+00  0.99999998245E-14  0.12509000000E+03  0.12509000000E+03 0.  0.
        -13    1    3    3    0    0  0.38326913254E+02  0.35092073197E+02  0.32278873306E+02  0.61174690083E+02  0.10566000000E+00 0.  1.
         23    2    1    0    0    0  0.25552845127E+02  0.11309217617E+02  0.13529673806E+02  0.94043287284E+02  0.88770724412E+02 0.  0.
         13    1    3    3    0    0 -0.12774068127E+02 -0.23782855579E+02 -0.18749199500E+02  0.32868597201E+02  0.10566000000E+00 0. -1.
         22    1    1    0    0    0 -0.25552845127E+02 -0.11309217617E+02 -0.13529673806E+02  0.31046712716E+02  0.00000000000E+00 0.  1.
</event>
