<event>
 4    1  0.1285375E-004  0.9118800E+02  0.7818608E-02  0.1130116E+00
         25   -1    0    0    0    0  0.00000000000E+00  0.00000000000E+00  0.99999998245E-14  0.12500000000E+03  0.12500000000E+03 0.  0.
        -13    1    1    0    0    0  0.31122601909E+02  0.21145755626E+01  0.31200218031E+02  0.44119752364E+02  0.10566000000E+00 0.  1.
         13    1    1    0    0    0 -0.10498337087E+02 -0.16603653840E+02  0.17329283156E+02  0.26195641262E+02  0.10566000000E+00 0. -1.
         22    1    1    0    0    0 -0.20624264822E+02  0.14489078277E+02 -0.48529501187E+02  0.54684606374E+02  0.00000000000E+00 0.  1.
</event>
<event>
 5    1  0.1285375E-004  0.9118800E+02  0.7818608E-02  0.1130116E+00
         25   -1    0    0    0    0  0.00000000000E+00  0.00000000000E+00  0.99999998245E-14  0.12500000000E+03  0.12500000000E+03 0.  0.
        -13    1    3    3    0    0 -0.17679683785E+02 -0.30527609056E+02  0.57654524762E+01  0.35745737364E+02  0.10566000000E+00 0.  1.
         23    2    1    0    0    0 -0.11073214917E+01  0.19820962541E+02 -0.21820449325E+02  0.95500360584E+02  0.90830006859E+02 0.  0.
         13    1    3    3    0    0  0.16572362293E+02  0.50348571597E+02 -0.27585901802E+02  0.59754623219E+02  0.10566000000E+00 0. -1.
         22    1    1    0    0    0  0.11073214917E+01 -0.19820962541E+02  0.21820449325E+02  0.29499639416E+02  0.00000000000E+00 0. -1.
</event>
<event>
 5    1  0.1285375E-004  0.9118800E+02  0.7818608E-02  0.1130116E+00
         25   -1    0    0    0    0  0.00000000000E+00  0.00000000000E+00  0.99999998245E-14  0.12500000000E+03  0.12500000000E+03 0.  0.
        -13    1    3    3    0    0  0.39558758929E+02 -0.35628036056E+01  0.10761088142E+00  0.39719160637E+02  0.10566000000E+00 0. -1.
         23    2    1    0    0    0 -0.42427436289E+01  0.29776211471E+02  0.25165447845E+01  0.94817941741E+02  0.89885957943E+02 0.  0.
         13    1    3    3    0    0 -0.43801502558E+02  0.33339015077E+02  0.24089339031E+01  0.55098781105E+02  0.10566000000E+00 0.  1.
         22    1    1    0    0    0  0.42427436289E+01 -0.29776211471E+02 -0.25165447845E+01  0.30182058259E+02  0.00000000000E+00 0.  1.
</event>
<event>
 5    1  0.1285375E-004  0.9118800E+02  0.7818608E-02  0.1130116E+00
         25   -1    0    0    0    0  0.00000000000E+00  0.00000000000E+00  0.99999998245E-14  0.12500000000E+03  0.12500000000E+03 0.  0.
        -13    1    3    3    0    0 -0.28442805783E+02  0.43904959149E+02  0.84087995438E+01  0.52984504456E+02  0.10566000000E+00 0.  1.
         23    2    1    0    0    0  0.11428090061E+02  0.24014076367E+02  0.66992522341E+01  0.97574517567E+02  0.93640960011E+02 0.  0.
         13    1    3    3    0    0  0.39870895844E+02 -0.19890882782E+02 -0.17095473097E+01  0.44590013111E+02  0.10566000000E+00 0. -1.
         22    1    1    0    0    0 -0.11428090061E+02 -0.24014076367E+02 -0.66992522341E+01  0.27425482433E+02  0.00000000000E+00 0. -1.
</event>
<event>
 5    1  0.1285375E-004  0.9118800E+02  0.7818608E-02  0.1130116E+00
         25   -1    0    0    0    0  0.00000000000E+00  0.00000000000E+00  0.99999998245E-14  0.12500000000E+03  0.12500000000E+03 0.  0.
        -13    1    3    3    0    0 -0.19798340079E+01  0.35747019725E+00 -0.38971460831E+02  0.39023498702E+02  0.10566000000E+00 0.  1.
         23    2    1    0    0    0  0.27487804272E+01  0.23393657464E+02  0.14432080868E+02  0.97375663600E+02  0.93375135341E+02 0.  0.
         13    1    3    3    0    0  0.47286144350E+01  0.23036187267E+02  0.53403541699E+02  0.58352164898E+02  0.10566000000E+00 0. -1.
         22    1    1    0    0    0 -0.27487804272E+01 -0.23393657464E+02 -0.14432080868E+02  0.27624336400E+02  0.00000000000E+00 0. -1.
</event>
<event>
 5    1  0.1285375E-004  0.9118800E+02  0.7818608E-02  0.1130116E+00
         25   -1    0    0    0    0  0.00000000000E+00  0.00000000000E+00  0.99999998245E-14  0.12500000000E+03  0.12500000000E+03 0.  0.
        -13    1    3    3    0    0 -0.11568301374E+02  0.44443380753E+02  0.33071025603E+02  0.56592787420E+02  0.10566000000E+00 0.  1.
         23    2    1    0    0    0 -0.23734329895E+02  0.15547545136E+02  0.13250886646E+02  0.93684978489E+02  0.88296345464E+02 0.  0.
         13    1    3    3    0    0 -0.12166028521E+02 -0.28895835617E+02 -0.19820138958E+02  0.37092191069E+02  0.10566000000E+00 0. -1.
         22    1    1    0    0    0  0.23734329895E+02 -0.15547545136E+02 -0.13250886646E+02  0.31315021511E+02  0.00000000000E+00 0.  1.
</event>
<event>
 5    1  0.1285375E-004  0.9118800E+02  0.7818608E-02  0.1130116E+00
         25   -1    0    0    0    0  0.00000000000E+00  0.00000000000E+00  0.99999998245E-14  0.12500000000E+03  0.12500000000E+03 0.  0.
        -13    1    3    3    0    0  0.23713056623E+01  0.30131742280E+02  0.90124018182E+01  0.31540125776E+02  0.10566000000E+00 0.  1.
         23    2    1    0    0    0 -0.14520122208E+02 -0.25118481890E+02 -0.12791182587E+02  0.93292170788E+02  0.87738490396E+02 0.  0.
         13    1    3    3    0    0 -0.16891427870E+02 -0.55250224170E+02 -0.21803584405E+02  0.61752045012E+02  0.10566000000E+00 0. -1.
         22    1    1    0    0    0  0.14520122208E+02  0.25118481890E+02  0.12791182587E+02  0.31707829212E+02  0.00000000000E+00 0. -1.
</event>
<event>
 5    1  0.1285375E-004  0.9118800E+02  0.7818608E-02  0.1130116E+00
         25   -1    0    0    0    0  0.00000000000E+00  0.00000000000E+00  0.99999998245E-14  0.12500000000E+03  0.12500000000E+03 0.  0.
        -13    1    3    3    0    0  0.20130765917E+02 -0.18247846191E+02 -0.30876478865E+02  0.41129061966E+02  0.10566000000E+00 0.  1.
         23    2    1    0    0    0 -0.82587290860E+01 -0.26338444246E+02  0.13378210477E+02  0.94325959396E+02  0.89199158342E+02 0.  0.
         13    1    3    3    0    0 -0.28389495003E+02 -0.80905980545E+01  0.44254689342E+02  0.53196897430E+02  0.10566000000E+00 0. -1.
         22    1    1    0    0    0  0.82587290860E+01  0.26338444246E+02 -0.13378210477E+02  0.30674040604E+02  0.00000000000E+00 0. -1.
</event>
<event>
 5    1  0.1285375E-004  0.9118800E+02  0.7818608E-02  0.1130116E+00
         25   -1    0    0    0    0  0.00000000000E+00  0.00000000000E+00  0.99999998245E-14  0.12500000000E+03  0.12500000000E+03 0.  0.
        -13    1    3    3    0    0 -0.29378531748E+02 -0.14140302546E+02  0.12569276390E+02  0.34943442257E+02  0.10566000000E+00 0.  1.
         23    2    1    0    0    0  0.56639545646E+01  0.31246083980E+02  0.26621678732E+01  0.93133320174E+02  0.87511885155E+02 0.  0.
         13    1    3    3    0    0  0.35042486312E+02  0.45386386525E+02 -0.99071085171E+01  0.58189877917E+02  0.10566000000E+00 0. -1.
         22    1    1    0    0    0 -0.56639545646E+01 -0.31246083980E+02 -0.26621678732E+01  0.31866679826E+02  0.00000000000E+00 0. -1.
</event>
<event>
 5    1  0.1285375E-004  0.9118800E+02  0.7818608E-02  0.1130116E+00
         25   -1    0    0    0    0  0.00000000000E+00  0.00000000000E+00  0.99999998245E-14  0.12500000000E+03  0.12500000000E+03 0.  0.
        -13    1    3    3    0    0  0.40419085833E+02  0.12198262650E+02  0.82869287132E+00  0.42227929231E+02  0.10566000000E+00 0. -1.
         23    2    1    0    0    0 -0.12759020665E+02  0.24953206529E+02  0.17152008110E+01  0.96921591244E+02  0.92765283436E+02 0.  0.
         13    1    3    3    0    0 -0.53178106498E+02  0.12754943880E+02  0.88650793970E+00  0.54693662013E+02  0.10566000000E+00 0.  1.
         22    1    1    0    0    0  0.12759020665E+02 -0.24953206529E+02 -0.17152008110E+01  0.28078408756E+02  0.00000000000E+00 0.  1.
</event>
<event>
 5    1  0.1285375E-004  0.9118800E+02  0.7818608E-02  0.1130116E+00
         25   -1    0    0    0    0  0.00000000000E+00  0.00000000000E+00  0.99999998245E-14  0.12500000000E+03  0.12500000000E+03 0.  0.
        -13    1    3    3    0    0  0.58201147707E+01  0.43958885188E+02 -0.17393691040E+02  0.47632016281E+02  0.10566000000E+00 0.  1.
         23    2    1    0    0    0  0.10066026270E+02 -0.30386712224E+01 -0.27208063846E+02  0.95830887125E+02  0.91283743247E+02 0.  0.
         13    1    3    3    0    0  0.42459114993E+01 -0.46997556411E+02 -0.98143728058E+01  0.48198870844E+02  0.10566000000E+00 0. -1.
         22    1    1    0    0    0 -0.10066026270E+02  0.30386712224E+01  0.27208063846E+02  0.29169112875E+02  0.00000000000E+00 0. -1.
</event>
<event>
 5    1  0.1285375E-004  0.9118800E+02  0.7818608E-02  0.1130116E+00
         25   -1    0    0    0    0  0.00000000000E+00  0.00000000000E+00  0.99999998245E-14  0.12500000000E+03  0.12500000000E+03 0.  0.
        -13    1    3    3    0    0  0.10650433344E+02  0.91876121486E+01 -0.34423880613E+02  0.37186807713E+02  0.10566000000E+00 0. -1.
         23    2    1    0    0    0  0.19449521849E+02 -0.14319150390E+02  0.17711591703E+02  0.95049666969E+02  0.90207631286E+02 0.  0.
         13    1    3    3    0    0  0.87990885044E+01 -0.23506762538E+02  0.52135472316E+02  0.57862859255E+02  0.10566000000E+00 0.  1.
         22    1    1    0    0    0 -0.19449521849E+02  0.14319150390E+02 -0.17711591703E+02  0.29950333031E+02  0.00000000000E+00 0.  1.
</event>
<event>
 5    1  0.1285375E-004  0.9118800E+02  0.7818608E-02  0.1130116E+00
         25   -1    0    0    0    0  0.00000000000E+00  0.00000000000E+00  0.99999998245E-14  0.12500000000E+03  0.12500000000E+03 0.  0.
        -13    1    3    3    0    0  0.20774520954E+02  0.24209131777E+02  0.60885796316E+01  0.32476834024E+02  0.10566000000E+00 0. -1.
         23    2    1    0    0    0 -0.26003501414E+02 -0.15402491699E+02  0.77622370263E+01  0.93796295733E+02  0.88453795471E+02 0.  0.
         13    1    3    3    0    0 -0.46778022368E+02 -0.39611623476E+02  0.16736573947E+01  0.61319461708E+02  0.10566000000E+00 0.  1.
         22    1    1    0    0    0  0.26003501414E+02  0.15402491699E+02 -0.77622370263E+01  0.31203704267E+02  0.00000000000E+00 0.  1.
</event>
<event>
 5    1  0.1285375E-004  0.9118800E+02  0.7818608E-02  0.1130116E+00
         25   -1    0    0    0    0  0.00000000000E+00  0.00000000000E+00  0.99999998245E-14  0.12500000000E+03  0.12500000000E+03 0.  0.
        -13    1    3    3    0    0  0.36793653264E+01 -0.46632784612E+02 -0.57032967362E+01  0.47124230366E+02  0.10566000000E+00 0.  1.
         23    2    1    0    0    0 -0.28290222400E+02 -0.12688150943E+02 -0.33723126394E+01  0.93811887676E+02  0.88475826750E+02 0.  0.
         13    1    3    3    0    0 -0.31969587726E+02  0.33944633668E+02  0.23309840968E+01  0.46687657311E+02  0.10566000000E+00 0. -1.
         22    1    1    0    0    0  0.28290222400E+02  0.12688150943E+02  0.33723126394E+01  0.31188112324E+02  0.00000000000E+00 0. -1.
</event>
<event>
 5    1  0.1285375E-004  0.9118800E+02  0.7818608E-02  0.1130116E+00
         25   -1    0    0    0    0  0.00000000000E+00  0.00000000000E+00  0.99999998245E-14  0.12500000000E+03  0.12500000000E+03 0.  0.
        -13    1    3    3    0    0  0.79803816985E+01  0.21110696013E+02 -0.53902718535E+02  0.58436822362E+02  0.10566000000E+00 0.  1.
         23    2    1    0    0    0  0.19292347912E+02  0.11179663104E+02 -0.22181844457E+02  0.93548230914E+02  0.88102540988E+02 0.  0.
         13    1    3    3    0    0  0.11311966214E+02 -0.99310329090E+01  0.31720874078E+02  0.35111408553E+02  0.10566000000E+00 0. -1.
         22    1    1    0    0    0 -0.19292347912E+02 -0.11179663104E+02  0.22181844457E+02  0.31451769086E+02  0.00000000000E+00 0.  1.
</event>
<event>
 5    1  0.1285375E-004  0.9118800E+02  0.7818608E-02  0.1130116E+00
         25   -1    0    0    0    0  0.00000000000E+00  0.00000000000E+00  0.99999998245E-14  0.12500000000E+03  0.12500000000E+03 0.  0.
        -13    1    3    3    0    0  0.58947509149E+01 -0.21318125369E+02 -0.26121558091E+02  0.34228022419E+02  0.10566000000E+00 0.  1.
         23    2    1    0    0    0  0.96381084973E+01  0.16352324602E+02  0.22315624089E+02  0.95703605447E+02  0.91109282523E+02 0.  0.
         13    1    3    3    0    0  0.37433575824E+01  0.37670449971E+02  0.48437182180E+02  0.61475583028E+02  0.10566000000E+00 0. -1.
         22    1    1    0    0    0 -0.96381084973E+01 -0.16352324602E+02 -0.22315624089E+02  0.29296394553E+02  0.00000000000E+00 0. -1.
</event>
<event>
 5    1  0.1285375E-004  0.9118800E+02  0.7818608E-02  0.1130116E+00
         25   -1    0    0    0    0  0.00000000000E+00  0.00000000000E+00  0.99999998245E-14  0.12500000000E+03  0.12500000000E+03 0.  0.
        -13    1    3    3    0    0  0.10899696464E+02  0.28272308933E+02 -0.21760670092E+02  0.37305023285E+02  0.10566000000E+00 0. -1.
         23    2    1    0    0    0  0.19218735606E+02 -0.19909219064E+02  0.99627165287E+01  0.95589244779E+02  0.90952246782E+02 0.  0.
         13    1    3    3    0    0  0.83190391419E+01 -0.48181527998E+02  0.31723386620E+02  0.58284221494E+02  0.10566000000E+00 0.  1.
         22    1    1    0    0    0 -0.19218735606E+02  0.19909219064E+02 -0.99627165287E+01  0.29410755221E+02  0.00000000000E+00 0.  1.
</event>
<event>
 5    1  0.1285375E-004  0.9118800E+02  0.7818608E-02  0.1130116E+00
         25   -1    0    0    0    0  0.00000000000E+00  0.00000000000E+00  0.99999998245E-14  0.12500000000E+03  0.12500000000E+03 0.  0.
        -13    1    3    3    0    0  0.27367986128E+02 -0.48891026803E+02 -0.25162002775E+02  0.61420490997E+02  0.10566000000E+00 0.  1.
         23    2    1    0    0    0  0.19745409594E+02 -0.30066032959E+02 -0.23989112071E+02  0.81764308310E+02  0.69397961623E+02 0.  0.
         13    1    3    3    0    0 -0.76225765338E+01  0.18824993844E+02  0.11728907038E+01  0.20343817313E+02  0.10566000000E+00 0. -1.
         22    1    1    0    0    0 -0.19745409594E+02  0.30066032959E+02  0.23989112071E+02  0.43235691690E+02  0.00000000000E+00 0.  1.
</event>
<event>
 5    1  0.1285375E-004  0.9118800E+02  0.7818608E-02  0.1130116E+00
         25   -1    0    0    0    0  0.00000000000E+00  0.00000000000E+00  0.99999998245E-14  0.12500000000E+03  0.12500000000E+03 0.  0.
        -13    1    3    3    0    0 -0.21434661785E+02  0.29992773323E+02  0.12324217536E+02  0.38870408788E+02  0.10566000000E+00 0.  1.
         23    2    1    0    0    0  0.10823216292E+02  0.25107481558E+01 -0.26450865201E+02  0.96310382765E+02  0.91937999169E+02 0.  0.
         13    1    3    3    0    0  0.32257878077E+02 -0.27482025167E+02 -0.38775082737E+02  0.57439973978E+02  0.10566000000E+00 0. -1.
         22    1    1    0    0    0 -0.10823216292E+02 -0.25107481558E+01  0.26450865201E+02  0.28689617235E+02  0.00000000000E+00 0. -1.
</event>
<event>
 5    1  0.1285375E-004  0.9118800E+02  0.7818608E-02  0.1130116E+00
         25   -1    0    0    0    0  0.00000000000E+00  0.00000000000E+00  0.99999998245E-14  0.12500000000E+03  0.12500000000E+03 0.  0.
        -13    1    3    3    0    0  0.97497599927E+01 -0.57957969301E+00 -0.50004109874E+02  0.50949150149E+02  0.10566000000E+00 0.  1.
         23    2    1    0    0    0 -0.21147069466E+02  0.78861251543E+01 -0.19891299516E+02  0.94915896002E+02  0.90022075073E+02 0.  0.
         13    1    3    3    0    0 -0.30896829459E+02  0.84657048473E+01  0.30112810358E+02  0.43966745853E+02  0.10566000000E+00 0. -1.
         22    1    1    0    0    0  0.21147069466E+02 -0.78861251543E+01  0.19891299516E+02  0.30084103998E+02  0.00000000000E+00 0.  1.
</event>
<event>
 5    1  0.1285375E-004  0.9118800E+02  0.7818608E-02  0.1130116E+00
         25   -1    0    0    0    0  0.00000000000E+00  0.00000000000E+00  0.99999998245E-14  0.12500000000E+03  0.12500000000E+03 0.  0.
        -13    1    3    3    0    0 -0.20070793259E+02 -0.13671480555E+02 -0.31743411240E+02  0.39967504848E+02  0.10566000000E+00 0.  1.
         23    2    1    0    0    0 -0.18652576846E+02  0.22643817055E+02  0.87573249975E+01  0.94383798163E+02  0.89280174399E+02 0.  0.
         13    1    3    3    0    0  0.14182164127E+01  0.36315297610E+02  0.40500736237E+02  0.54416293315E+02  0.10566000000E+00 0. -1.
         22    1    1    0    0    0  0.18652576846E+02 -0.22643817055E+02 -0.87573249975E+01  0.30616201837E+02  0.00000000000E+00 0. -1.
</event>
<event>
 5    1  0.1285375E-004  0.9118800E+02  0.7818608E-02  0.1130116E+00
         25   -1    0    0    0    0  0.00000000000E+00  0.00000000000E+00  0.99999998245E-14  0.12500000000E+03  0.12500000000E+03 0.  0.
        -13    1    3    3    0    0 -0.36945101141E+01  0.13193692537E+02  0.37481904596E+02  0.39907734388E+02  0.10566000000E+00 0. -1.
         23    2    1    0    0    0  0.31250869969E+01  0.22541431131E+02 -0.17624683164E+02  0.96216120088E+02  0.91809749057E+02 0.  0.
         13    1    3    3    0    0  0.68195971110E+01  0.93477385945E+01 -0.55106587760E+02  0.56308385700E+02  0.10566000000E+00 0.  1.
         22    1    1    0    0    0 -0.31250869969E+01 -0.22541431131E+02  0.17624683164E+02  0.28783879912E+02  0.00000000000E+00 0.  1.
</event>
<event>
 5    1  0.1285375E-004  0.9118800E+02  0.7818608E-02  0.1130116E+00
         25   -1    0    0    0    0  0.00000000000E+00  0.00000000000E+00  0.99999998245E-14  0.12500000000E+03  0.12500000000E+03 0.  0.
        -13    1    3    3    0    0  0.33302857425E+02  0.14737437581E+02  0.30825271605E+02  0.47712481728E+02  0.10566000000E+00 0. -1.
         23    2    1    0    0    0  0.47913684033E+01 -0.22532708411E+02  0.16104015597E+02  0.96892714861E+02  0.92726364726E+02 0.  0.
         13    1    3    3    0    0 -0.28511489021E+02 -0.37270145992E+02 -0.14721256008E+02  0.49180233133E+02  0.10566000000E+00 0.  1.
         22    1    1    0    0    0 -0.47913684033E+01  0.22532708411E+02 -0.16104015597E+02  0.28107285139E+02  0.00000000000E+00 0.  1.
</event>
<event>
 5    1  0.1285375E-004  0.9118800E+02  0.7818608E-02  0.1130116E+00
         25   -1    0    0    0    0  0.00000000000E+00  0.00000000000E+00  0.99999998245E-14  0.12500000000E+03  0.12500000000E+03 0.  0.
        -13    1    3    3    0    0 -0.33613814184E+02 -0.10965967865E+02 -0.22911731526E+01  0.35431646781E+02  0.10566000000E+00 0.  1.
         23    2    1    0    0    0  0.23136759090E+02  0.11392576533E+02 -0.10841597906E+02  0.97024284345E+02  0.92903557985E+02 0.  0.
         13    1    3    3    0    0  0.56750573274E+02  0.22358544398E+02 -0.85504247537E+01  0.61592637563E+02  0.10566000000E+00 0. -1.
         22    1    1    0    0    0 -0.23136759090E+02 -0.11392576533E+02  0.10841597906E+02  0.27975715655E+02  0.00000000000E+00 0. -1.
</event>
<event>
 5    1  0.1285375E-004  0.9118800E+02  0.7818608E-02  0.1130116E+00
         25   -1    0    0    0    0  0.00000000000E+00  0.00000000000E+00  0.99999998245E-14  0.12500000000E+03  0.12500000000E+03 0.  0.
        -13    1    3    3    0    0 -0.35926902261E+02 -0.27218831696E+02  0.22499431298E+01  0.45129596864E+02  0.10566000000E+00 0. -1.
         23    2    1    0    0    0  0.46123137461E+00 -0.38442387450E+02 -0.10255854424E+02  0.85210397876E+02  0.75349847173E+02 0.  0.
         13    1    3    3    0    0  0.36388133636E+02 -0.11223555754E+02 -0.12505797554E+02  0.40080801012E+02  0.10566000000E+00 0.  1.
         22    1    1    0    0    0 -0.46123137461E+00  0.38442387450E+02  0.10255854424E+02  0.39789602124E+02  0.00000000000E+00 0. -1.
</event>
<event>
 5    1  0.1285375E-004  0.9118800E+02  0.7818608E-02  0.1130116E+00
         25   -1    0    0    0    0  0.00000000000E+00  0.00000000000E+00  0.99999998245E-14  0.12500000000E+03  0.12500000000E+03 0.  0.
        -13    1    3    3    0    0 -0.38996939138E+02  0.19254935505E+02  0.30885640218E+02  0.53342738392E+02  0.10566000000E+00 0. -1.
         23    2    1    0    0    0 -0.11972016892E+02 -0.13521942942E+02  0.21631092212E+02  0.96820640893E+02  0.92629154284E+02 0.  0.
         13    1    3    3    0    0  0.27024922246E+02 -0.32776878447E+02 -0.92545480059E+01  0.43477902502E+02  0.10566000000E+00 0.  1.
         22    1    1    0    0    0  0.11972016892E+02  0.13521942942E+02 -0.21631092212E+02  0.28179359107E+02  0.00000000000E+00 0. -1.
</event>
<event>
 5    1  0.1285375E-004  0.9118800E+02  0.7818608E-02  0.1130116E+00
         25   -1    0    0    0    0  0.00000000000E+00  0.00000000000E+00  0.99999998245E-14  0.12500000000E+03  0.12500000000E+03 0.  0.
        -13    1    3    3    0    0 -0.19931657329E+02 -0.17378931309E+02 -0.33927050193E+02  0.43015742655E+02  0.10566000000E+00 0.  1.
         23    2    1    0    0    0  0.16304702707E+02 -0.24693859850E+02  0.29878723044E+01  0.95258489858E+02  0.90496532886E+02 0.  0.
         13    1    3    3    0    0  0.36236360036E+02 -0.73149285404E+01  0.36914922498E+02  0.52242747202E+02  0.10566000000E+00 0. -1.
         22    1    1    0    0    0 -0.16304702707E+02  0.24693859850E+02 -0.29878723044E+01  0.29741510142E+02  0.00000000000E+00 0. -1.
</event>
<event>
 5    1  0.1285375E-004  0.9118800E+02  0.7818608E-02  0.1130116E+00
         25   -1    0    0    0    0  0.00000000000E+00  0.00000000000E+00  0.99999998245E-14  0.12500000000E+03  0.12500000000E+03 0.  0.
        -13    1    3    3    0    0  0.15300034503E+02  0.51082909032E+02  0.30584841111E+02  0.61473557899E+02  0.10566000000E+00 0.  1.
         23    2    1    0    0    0  0.14602356643E+02  0.22331578118E+02  0.11797037026E+02  0.95826411202E+02  0.91277613907E+02 0.  0.
         13    1    3    3    0    0 -0.69767786033E+00 -0.28751330914E+02 -0.18787804085E+02  0.34352853303E+02  0.10566000000E+00 0. -1.
         22    1    1    0    0    0 -0.14602356643E+02 -0.22331578118E+02 -0.11797037026E+02  0.29173588798E+02  0.00000000000E+00 0.  1.
</event>
<event>
 5    1  0.1285375E-004  0.9118800E+02  0.7818608E-02  0.1130116E+00
         25   -1    0    0    0    0  0.00000000000E+00  0.00000000000E+00  0.99999998245E-14  0.12500000000E+03  0.12500000000E+03 0.  0.
        -13    1    3    3    0    0 -0.22594877637E+02  0.15075690881E+02 -0.30039622728E+02  0.40499321582E+02  0.10566000000E+00 0.  1.
         23    2    1    0    0    0  0.18055842450E+02 -0.12685794624E+02 -0.27431725044E+02  0.89794284971E+02  0.82604910524E+02 0.  0.
         13    1    3    3    0    0  0.40650720087E+02 -0.27761485505E+02  0.26078976836E+01  0.49294963388E+02  0.10566000000E+00 0. -1.
         22    1    1    0    0    0 -0.18055842450E+02  0.12685794624E+02  0.27431725044E+02  0.35205715029E+02  0.00000000000E+00 0.  1.
</event>
<event>
 5    1  0.1285375E-004  0.9118800E+02  0.7818608E-02  0.1130116E+00
         25   -1    0    0    0    0  0.00000000000E+00  0.00000000000E+00  0.99999998245E-14  0.12500000000E+03  0.12500000000E+03 0.  0.
        -13    1    3    3    0    0  0.31291419025E+02  0.10781962057E+02  0.35489692513E+02  0.48527652416E+02  0.10566000000E+00 0. -1.
         23    2    1    0    0    0  0.26133088469E+02  0.30791438350E+01 -0.11398359754E+02  0.96323493157E+02  0.91955822487E+02 0.  0.
         13    1    3    3    0    0 -0.51583305560E+01 -0.77028182216E+01 -0.46888052267E+02  0.47795840740E+02  0.10566000000E+00 0.  1.
         22    1    1    0    0    0 -0.26133088469E+02 -0.30791438350E+01  0.11398359754E+02  0.28676506843E+02  0.00000000000E+00 0. -1.
</event>
<event>
 5    1  0.1285375E-004  0.9118800E+02  0.7818608E-02  0.1130116E+00
         25   -1    0    0    0    0  0.00000000000E+00  0.00000000000E+00  0.99999998245E-14  0.12500000000E+03  0.12500000000E+03 0.  0.
        -13    1    3    3    0    0 -0.11668803763E+02 -0.20675160751E+02  0.43003090497E+02  0.49121280619E+02  0.10566000000E+00 0.  1.
         23    2    1    0    0    0 -0.18085087373E+02 -0.22270490900E+02 -0.35057404757E+01  0.96097831111E+02  0.91648555786E+02 0.  0.
         13    1    3    3    0    0 -0.64162836104E+01 -0.15953301488E+01 -0.46508830972E+02  0.46976550492E+02  0.10566000000E+00 0. -1.
         22    1    1    0    0    0  0.18085087373E+02  0.22270490900E+02  0.35057404757E+01  0.28902168889E+02  0.00000000000E+00 0.  1.
</event>
<event>
 5    1  0.1285375E-004  0.9118800E+02  0.7818608E-02  0.1130116E+00
         25   -1    0    0    0    0  0.00000000000E+00  0.00000000000E+00  0.99999998245E-14  0.12500000000E+03  0.12500000000E+03 0.  0.
        -13    1    3    3    0    0 -0.31644477540E+02  0.80811065158E+01  0.41789506949E+00  0.32662869464E+02  0.10566000000E+00 0.  1.
         23    2    1    0    0    0  0.21197338808E+02 -0.36426310851E+01  0.24923968034E+02  0.92078880391E+02  0.85992558386E+02 0.  0.
         13    1    3    3    0    0  0.52841816348E+02 -0.11723737601E+02  0.24506072964E+02  0.59416010927E+02  0.10566000000E+00 0. -1.
         22    1    1    0    0    0 -0.21197338808E+02  0.36426310851E+01 -0.24923968034E+02  0.32921119609E+02  0.00000000000E+00 0. -1.
</event>
<event>
 5    1  0.1285375E-004  0.9118800E+02  0.7818608E-02  0.1130116E+00
         25   -1    0    0    0    0  0.00000000000E+00  0.00000000000E+00  0.99999998245E-14  0.12500000000E+03  0.12500000000E+03 0.  0.
        -13    1    3    3    0    0  0.24475734579E+02  0.29079145064E+01 -0.33126881773E+02  0.41290664926E+02  0.10566000000E+00 0. -1.
         23    2    1    0    0    0  0.12812796759E+02 -0.23338076368E+02  0.12800269744E+02  0.95458834233E+02  0.90772840422E+02 0.  0.
         13    1    3    3    0    0 -0.11662937821E+02 -0.26245990875E+02  0.45927151517E+02  0.54168169307E+02  0.10566000000E+00 0.  1.
         22    1    1    0    0    0 -0.12812796759E+02  0.23338076368E+02 -0.12800269744E+02  0.29541165767E+02  0.00000000000E+00 0.  1.
</event>
<event>
 5    1  0.1285375E-004  0.9118800E+02  0.7818608E-02  0.1130116E+00
         25   -1    0    0    0    0  0.00000000000E+00  0.00000000000E+00  0.99999998245E-14  0.12500000000E+03  0.12500000000E+03 0.  0.
        -13    1    3    3    0    0  0.27903511753E+02  0.48493183026E+01 -0.50120125977E+02  0.57568741936E+02  0.10566000000E+00 0. -1.
         23    2    1    0    0    0  0.27192874492E+02 -0.15460662357E+01 -0.13777363028E+02  0.94476918963E+02  0.89410456552E+02 0.  0.
         13    1    3    3    0    0 -0.71063726057E+00 -0.63953845382E+01  0.36342762948E+02  0.36908177027E+02  0.10566000000E+00 0.  1.
         22    1    1    0    0    0 -0.27192874492E+02  0.15460662357E+01  0.13777363028E+02  0.30523081037E+02  0.00000000000E+00 0. -1.
</event>
<event>
 5    1  0.1285375E-004  0.9118800E+02  0.7818608E-02  0.1130116E+00
         25   -1    0    0    0    0  0.00000000000E+00  0.00000000000E+00  0.99999998245E-14  0.12500000000E+03  0.12500000000E+03 0.  0.
        -13    1    3    3    0    0 -0.35940779919E+02 -0.19964520101E+02 -0.21994592070E+01  0.41172448420E+02  0.10566000000E+00 0. -1.
         23    2    1    0    0    0  0.54684987489E+01  0.47842553410E+01 -0.28133744559E+02  0.95943139181E+02  0.91437327144E+02 0.  0.
         13    1    3    3    0    0  0.41409278668E+02  0.24748775443E+02 -0.25934285352E+02  0.54770690761E+02  0.10566000000E+00 0.  1.
         22    1    1    0    0    0 -0.54684987489E+01 -0.47842553410E+01  0.28133744559E+02  0.29056860819E+02  0.00000000000E+00 0.  1.
</event>
<event>
 5    1  0.1285375E-004  0.9118800E+02  0.7818608E-02  0.1130116E+00
         25   -1    0    0    0    0  0.00000000000E+00  0.00000000000E+00  0.99999998245E-14  0.12500000000E+03  0.12500000000E+03 0.  0.
        -13    1    3    3    0    0  0.52867835167E+02 -0.17139409304E+02  0.52462372735E+01  0.55823843616E+02  0.10566000000E+00 0.  1.
         23    2    1    0    0    0  0.19782089806E+02 -0.14117940990E+02 -0.16583961225E+02  0.95577642773E+02  0.90936300196E+02 0.  0.
         13    1    3    3    0    0 -0.33085745361E+02  0.30214683147E+01 -0.21830198499E+02  0.39753799157E+02  0.10566000000E+00 0. -1.
         22    1    1    0    0    0 -0.19782089806E+02  0.14117940990E+02  0.16583961225E+02  0.29422357227E+02  0.00000000000E+00 0.  1.
</event>
<event>
 5    1  0.1285375E-004  0.9118800E+02  0.7818608E-02  0.1130116E+00
         25   -1    0    0    0    0  0.00000000000E+00  0.00000000000E+00  0.99999998245E-14  0.12500000000E+03  0.12500000000E+03 0.  0.
        -13    1    3    3    0    0 -0.12774882875E+02 -0.36575937029E+02 -0.47198845686E+02  0.61063401479E+02  0.10566000000E+00 0.  1.
         23    2    1    0    0    0 -0.68085991614E+01 -0.95342160220E+01 -0.27678279670E+02  0.94944293999E+02  0.90061498432E+02 0.  0.
         13    1    3    3    0    0  0.59662837133E+01  0.27041721007E+02  0.19520566016E+02  0.33880892520E+02  0.10566000000E+00 0. -1.
         22    1    1    0    0    0  0.68085991614E+01  0.95342160220E+01  0.27678279670E+02  0.30055706001E+02  0.00000000000E+00 0.  1.
</event>
<event>
 5    1  0.1285375E-004  0.9118800E+02  0.7818608E-02  0.1130116E+00
         25   -1    0    0    0    0  0.00000000000E+00  0.00000000000E+00  0.99999998245E-14  0.12500000000E+03  0.12500000000E+03 0.  0.
        -13    1    3    3    0    0  0.12516191413E+02 -0.28063540619E+02  0.29540141366E+02  0.42624505575E+02  0.10566000000E+00 0.  1.
         23    2    1    0    0    0  0.23810081777E+02  0.17507311305E+02  0.15498419071E+02  0.91628950615E+02  0.85336027877E+02 0.  0.
         13    1    3    3    0    0  0.11293890364E+02  0.45570851924E+02 -0.14041722294E+02  0.49004445040E+02  0.10566000000E+00 0. -1.
         22    1    1    0    0    0 -0.23810081777E+02 -0.17507311305E+02 -0.15498419071E+02  0.33371049385E+02  0.00000000000E+00 0. -1.
</event>
<event>
 5    1  0.1285375E-004  0.9118800E+02  0.7818608E-02  0.1130116E+00
         25   -1    0    0    0    0  0.00000000000E+00  0.00000000000E+00  0.99999998245E-14  0.12500000000E+03  0.12500000000E+03 0.  0.
        -13    1    3    3    0    0 -0.28654539186E+02 -0.30314381748E+01 -0.19970916058E+02  0.35058820368E+02  0.10566000000E+00 0. -1.
         23    2    1    0    0    0  0.21810362987E+02 -0.20915073096E+02  0.53954418276E+01  0.94304022922E+02  0.89168412179E+02 0.  0.
         13    1    3    3    0    0  0.50464902173E+02 -0.17883634921E+02  0.25366357886E+02  0.59245202554E+02  0.10566000000E+00 0.  1.
         22    1    1    0    0    0 -0.21810362987E+02  0.20915073096E+02 -0.53954418276E+01  0.30695977078E+02  0.00000000000E+00 0.  1.
</event>
<event>
 5    1  0.1285375E-004  0.9118800E+02  0.7818608E-02  0.1130116E+00
         25   -1    0    0    0    0  0.00000000000E+00  0.00000000000E+00  0.99999998245E-14  0.12500000000E+03  0.12500000000E+03 0.  0.
        -13    1    3    3    0    0 -0.45871862851E+01 -0.31684230418E+02 -0.30100736216E+02  0.43943124831E+02  0.10566000000E+00 0. -1.
         23    2    1    0    0    0  0.17219234002E+02  0.14015093664E+02 -0.18992682890E+02  0.95782764104E+02  0.91217821867E+02 0.  0.
         13    1    3    3    0    0  0.21806420287E+02  0.45699324082E+02  0.11108053326E+02  0.51839639273E+02  0.10566000000E+00 0.  1.
         22    1    1    0    0    0 -0.17219234002E+02 -0.14015093664E+02  0.18992682890E+02  0.29217235896E+02  0.00000000000E+00 0.  1.
</event>
<event>
 5    1  0.1285375E-004  0.9118800E+02  0.7818608E-02  0.1130116E+00
         25   -1    0    0    0    0  0.00000000000E+00  0.00000000000E+00  0.99999998245E-14  0.12500000000E+03  0.12500000000E+03 0.  0.
        -13    1    3    3    0    0 -0.44330856317E+02  0.12934282240E+02  0.37179732362E+02  0.59286289658E+02  0.10566000000E+00 0. -1.
         23    2    1    0    0    0 -0.19509053855E+02  0.38139223124E+01  0.33583658738E+02  0.85974222366E+02  0.76606498363E+02 0.  0.
         13    1    3    3    0    0  0.24821802462E+02 -0.91203599277E+01 -0.35960736236E+01  0.26687932708E+02  0.10566000000E+00 0.  1.
         22    1    1    0    0    0  0.19509053855E+02 -0.38139223124E+01 -0.33583658738E+02  0.39025777634E+02  0.00000000000E+00 0. -1.
</event>
<event>
 5    1  0.1285375E-004  0.9118800E+02  0.7818608E-02  0.1130116E+00
         25   -1    0    0    0    0  0.00000000000E+00  0.00000000000E+00  0.99999998245E-14  0.12500000000E+03  0.12500000000E+03 0.  0.
        -13    1    3    3    0    0  0.12529481181E+02  0.26753933861E+02 -0.17596028762E+02  0.34385931250E+02  0.10566000000E+00 0.  1.
         23    2    1    0    0    0 -0.10967601209E+02 -0.26894005878E+02  0.12991144965E+01  0.95926583845E+02  0.91414692262E+02 0.  0.
         13    1    3    3    0    0 -0.23497082390E+02 -0.53647939739E+02  0.18895143258E+02  0.61540652595E+02  0.10566000000E+00 0. -1.
         22    1    1    0    0    0  0.10967601209E+02  0.26894005878E+02 -0.12991144965E+01  0.29073416155E+02  0.00000000000E+00 0. -1.
</event>
<event>
 5    1  0.1285375E-004  0.9118800E+02  0.7818608E-02  0.1130116E+00
         25   -1    0    0    0    0  0.00000000000E+00  0.00000000000E+00  0.99999998245E-14  0.12500000000E+03  0.12500000000E+03 0.  0.
        -13    1    3    3    0    0 -0.23913337956E+02  0.26770208185E+01  0.42296201597E+02  0.48662038657E+02  0.10566000000E+00 0.  1.
         23    2    1    0    0    0 -0.27417634561E+02 -0.11384824333E+02 -0.19770242439E+01  0.95246856722E+02  0.90480462977E+02 0.  0.
         13    1    3    3    0    0 -0.35042966050E+01 -0.14061845152E+02 -0.44273225841E+02  0.46584818065E+02  0.10566000000E+00 0. -1.
         22    1    1    0    0    0  0.27417634561E+02  0.11384824333E+02  0.19770242439E+01  0.29753143278E+02  0.00000000000E+00 0.  1.
</event>
<event>
 5    1  0.1285375E-004  0.9118800E+02  0.7818608E-02  0.1130116E+00
         25   -1    0    0    0    0  0.00000000000E+00  0.00000000000E+00  0.99999998245E-14  0.12500000000E+03  0.12500000000E+03 0.  0.
        -13    1    3    3    0    0 -0.14400523278E+02 -0.31116637186E+02  0.17426090529E+01  0.34331735039E+02  0.10566000000E+00 0. -1.
         23    2    1    0    0    0 -0.28480395968E+01  0.28325523150E+02  0.85695755675E+01  0.95269809676E+02  0.90512167243E+02 0.  0.
         13    1    3    3    0    0  0.11552483681E+02  0.59442160336E+02  0.68269665146E+01  0.60938074637E+02  0.10566000000E+00 0.  1.
         22    1    1    0    0    0  0.28480395968E+01 -0.28325523150E+02 -0.85695755675E+01  0.29730190324E+02  0.00000000000E+00 0.  1.
</event>
<event>
 5    1  0.1285375E-004  0.9118800E+02  0.7818608E-02  0.1130116E+00
         25   -1    0    0    0    0  0.00000000000E+00  0.00000000000E+00  0.99999998245E-14  0.12500000000E+03  0.12500000000E+03 0.  0.
        -13    1    3    3    0    0  0.20947927129E+02  0.24069860403E+02  0.37742233108E+02  0.49423285552E+02  0.10566000000E+00 0. -1.
         23    2    1    0    0    0 -0.39467200375E+01 -0.12900348834E+02  0.26303905361E+02  0.95438351935E+02  0.90744630606E+02 0.  0.
         13    1    3    3    0    0 -0.24894647167E+02 -0.36970209236E+02 -0.11438327747E+02  0.46015066383E+02  0.10566000000E+00 0.  1.
         22    1    1    0    0    0  0.39467200375E+01  0.12900348834E+02 -0.26303905361E+02  0.29561648065E+02  0.00000000000E+00 0.  1.
</event>
<event>
 5    1  0.1285375E-004  0.9118800E+02  0.7818608E-02  0.1130116E+00
         25   -1    0    0    0    0  0.00000000000E+00  0.00000000000E+00  0.99999998245E-14  0.12500000000E+03  0.12500000000E+03 0.  0.
        -13    1    3    3    0    0  0.28817492727E+02  0.40801271886E+02 -0.31106967738E+02  0.58845953816E+02  0.10566000000E+00 0. -1.
         23    2    1    0    0    0  0.15430212353E+02  0.73614739061E+01 -0.23956199421E+02  0.95569025805E+02  0.90924454639E+02 0.  0.
         13    1    3    3    0    0 -0.13387280375E+02 -0.33439797980E+02  0.71507683163E+01  0.36723071989E+02  0.10566000000E+00 0.  1.
         22    1    1    0    0    0 -0.15430212353E+02 -0.73614739061E+01  0.23956199421E+02  0.29430974195E+02  0.00000000000E+00 0. -1.
</event>
<event>
 5    1  0.1285375E-004  0.9118800E+02  0.7818608E-02  0.1130116E+00
         25   -1    0    0    0    0  0.00000000000E+00  0.00000000000E+00  0.99999998245E-14  0.12500000000E+03  0.12500000000E+03 0.  0.
        -13    1    3    3    0    0 -0.22940006939E+02 -0.52375625402E+02  0.96555028264E+01  0.57988705396E+02  0.10566000000E+00 0.  1.
         23    2    1    0    0    0 -0.23717988024E+02 -0.13667959977E+02  0.67040174816E+01  0.96816672726E+02  0.92623799217E+02 0.  0.
         13    1    3    3    0    0 -0.77798108454E+00  0.38707665425E+02 -0.29514853448E+01  0.38827967330E+02  0.10566000000E+00 0. -1.
         22    1    1    0    0    0  0.23717988024E+02  0.13667959977E+02 -0.67040174816E+01  0.28183327274E+02  0.00000000000E+00 0.  1.
</event>
<event>
 5    1  0.1285375E-004  0.9118800E+02  0.7818608E-02  0.1130116E+00
         25   -1    0    0    0    0  0.00000000000E+00  0.00000000000E+00  0.99999998245E-14  0.12500000000E+03  0.12500000000E+03 0.  0.
        -13    1    3    3    0    0  0.27691259646E+02 -0.24970969292E+02  0.48894567972E-01  0.37287648395E+02  0.10566000000E+00 0. -1.
         23    2    1    0    0    0 -0.11006001372E+02  0.17211872717E+02 -0.18476185156E+02  0.97454582113E+02  0.93480722763E+02 0.  0.
         13    1    3    3    0    0 -0.38697261018E+02  0.42182842009E+02 -0.18525079724E+02  0.60166933718E+02  0.10566000000E+00 0.  1.
         22    1    1    0    0    0  0.11006001372E+02 -0.17211872717E+02  0.18476185156E+02  0.27545417887E+02  0.00000000000E+00 0.  1.
</event>
<event>
 5    1  0.1285375E-004  0.9118800E+02  0.7818608E-02  0.1130116E+00
         25   -1    0    0    0    0  0.00000000000E+00  0.00000000000E+00  0.99999998245E-14  0.12500000000E+03  0.12500000000E+03 0.  0.
        -13    1    3    3    0    0 -0.89274025874E-01  0.31197705186E+02  0.15343193855E+02  0.34766787894E+02  0.10566000000E+00 0.  1.
         23    2    1    0    0    0  0.15733161987E+02 -0.24499410840E+02 -0.35404126546E+01  0.95669332783E+02  0.91062249015E+02 0.  0.
         13    1    3    3    0    0  0.15822436013E+02 -0.55697116027E+02 -0.18883606510E+02  0.60902544889E+02  0.10566000000E+00 0. -1.
         22    1    1    0    0    0 -0.15733161987E+02  0.24499410840E+02  0.35404126546E+01  0.29330667217E+02  0.00000000000E+00 0. -1.
</event>
<event>
 5    1  0.1285375E-004  0.9118800E+02  0.7818608E-02  0.1130116E+00
         25   -1    0    0    0    0  0.00000000000E+00  0.00000000000E+00  0.99999998245E-14  0.12500000000E+03  0.12500000000E+03 0.  0.
        -13    1    3    3    0    0  0.26327633070E+02 -0.30119747557E+02  0.14253275964E+01  0.40029816122E+02  0.10566000000E+00 0. -1.
         23    2    1    0    0    0 -0.20626019449E+02 -0.29074846584E+02  0.10444611461E+02  0.87853408087E+02  0.79613767790E+02 0.  0.
         13    1    3    3    0    0 -0.46953652520E+02  0.10449009727E+01  0.90192838643E+01  0.47823591965E+02  0.10566000000E+00 0.  1.
         22    1    1    0    0    0  0.20626019449E+02  0.29074846584E+02 -0.10444611461E+02  0.37146591913E+02  0.00000000000E+00 0.  1.
</event>
<event>
 5    1  0.1285375E-004  0.9118800E+02  0.7818608E-02  0.1130116E+00
         25   -1    0    0    0    0  0.00000000000E+00  0.00000000000E+00  0.99999998245E-14  0.12500000000E+03  0.12500000000E+03 0.  0.
        -13    1    3    3    0    0  0.22504266580E+02  0.22559255328E+02  0.46608329940E+02  0.56459805163E+02  0.10566000000E+00 0.  1.
         23    2    1    0    0    0 -0.76622200424E+01  0.17691935157E+02  0.22410733546E+02  0.95437267318E+02  0.90743136542E+02 0.  0.
         13    1    3    3    0    0 -0.30166486622E+02 -0.48673201707E+01 -0.24197596394E+02  0.38977462155E+02  0.10566000000E+00 0. -1.
         22    1    1    0    0    0  0.76622200424E+01 -0.17691935157E+02 -0.22410733546E+02  0.29562732682E+02  0.00000000000E+00 0.  1.
</event>
<event>
 5    1  0.1285375E-004  0.9118800E+02  0.7818608E-02  0.1130116E+00
         25   -1    0    0    0    0  0.00000000000E+00  0.00000000000E+00  0.99999998245E-14  0.12500000000E+03  0.12500000000E+03 0.  0.
        -13    1    3    3    0    0 -0.18820304973E+02 -0.37071574190E+02  0.22882461008E+02  0.47456545155E+02  0.10566000000E+00 0.  1.
         23    2    1    0    0    0  0.19785141649E+02 -0.91492142622E+01  0.20366389058E+02  0.95167974341E+02  0.90371420179E+02 0.  0.
         13    1    3    3    0    0  0.38605446622E+02  0.27922359928E+02 -0.25160719495E+01  0.47711429186E+02  0.10566000000E+00 0. -1.
         22    1    1    0    0    0 -0.19785141649E+02  0.91492142622E+01 -0.20366389058E+02  0.29832025659E+02  0.00000000000E+00 0. -1.
</event>
<event>
 5    1  0.1285375E-004  0.9118800E+02  0.7818608E-02  0.1130116E+00
         25   -1    0    0    0    0  0.00000000000E+00  0.00000000000E+00  0.99999998245E-14  0.12500000000E+03  0.12500000000E+03 0.  0.
        -13    1    3    3    0    0 -0.25781850564E+02 -0.70519030376E+01 -0.27494770848E+02  0.38345882999E+02  0.10566000000E+00 0.  1.
         23    2    1    0    0    0  0.21843183672E+02 -0.15568712545E+02  0.64063542091E+01  0.97421913455E+02  0.93437028868E+02 0.  0.
         13    1    3    3    0    0  0.47625034237E+02 -0.85168095077E+01  0.33901125057E+02  0.59076030456E+02  0.10566000000E+00 0. -1.
         22    1    1    0    0    0 -0.21843183672E+02  0.15568712545E+02 -0.64063542091E+01  0.27578086545E+02  0.00000000000E+00 0. -1.
</event>
<event>
 5    1  0.1285375E-004  0.9118800E+02  0.7818608E-02  0.1130116E+00
         25   -1    0    0    0    0  0.00000000000E+00  0.00000000000E+00  0.99999998245E-14  0.12500000000E+03  0.12500000000E+03 0.  0.
        -13    1    3    3    0    0  0.40562287379E+02 -0.65040524057E+01  0.11664799515E+01  0.41097125138E+02  0.10566000000E+00 0.  1.
         23    2    1    0    0    0  0.41379485797E+01  0.30787548798E+02  0.56788348689E+01  0.93420814689E+02  0.87921576830E+02 0.  0.
         13    1    3    3    0    0 -0.36424338799E+02  0.37291601204E+02  0.45123549173E+01  0.52323689551E+02  0.10566000000E+00 0. -1.
         22    1    1    0    0    0 -0.41379485797E+01 -0.30787548798E+02 -0.56788348689E+01  0.31579185311E+02  0.00000000000E+00 0. -1.
</event>
<event>
 5    1  0.1285375E-004  0.9118800E+02  0.7818608E-02  0.1130116E+00
         25   -1    0    0    0    0  0.00000000000E+00  0.00000000000E+00  0.99999998245E-14  0.12500000000E+03  0.12500000000E+03 0.  0.
        -13    1    3    3    0    0 -0.94900784395E+01  0.24487637710E+02 -0.38469125089E+02  0.46578865793E+02  0.10566000000E+00 0.  1.
         23    2    1    0    0    0 -0.13767633826E+02 -0.58245894377E+01  0.12150842588E+02  0.10573561424E+03  0.10396587690E+03 0.  0.
         13    1    3    3    0    0 -0.42775553864E+01 -0.30312227147E+02  0.50619967677E+02  0.59156748443E+02  0.10566000000E+00 0. -1.
         22    1    1    0    0    0  0.13767633826E+02  0.58245894377E+01 -0.12150842588E+02  0.19264385764E+02  0.00000000000E+00 0. -1.
</event>
<event>
 5    1  0.1285375E-004  0.9118800E+02  0.7818608E-02  0.1130116E+00
         25   -1    0    0    0    0  0.00000000000E+00  0.00000000000E+00  0.99999998245E-14  0.12500000000E+03  0.12500000000E+03 0.  0.
        -13    1    3    3    0    0 -0.21382837083E+02 -0.42757476551E+00  0.45539767093E+02  0.50311927938E+02  0.10566000000E+00 0. -1.
         23    2    1    0    0    0  0.44023947597E+01  0.23450227075E+02  0.15468999909E+02  0.96564385224E+02  0.92282697761E+02 0.  0.
         13    1    3    3    0    0  0.25785231843E+02  0.23877801841E+02 -0.30070767185E+02  0.46252457286E+02  0.10566000000E+00 0.  1.
         22    1    1    0    0    0 -0.44023947597E+01 -0.23450227075E+02 -0.15468999909E+02  0.28435614776E+02  0.00000000000E+00 0. -1.
</event>
<event>
 5    1  0.1285375E-004  0.9118800E+02  0.7818608E-02  0.1130116E+00
         25   -1    0    0    0    0  0.00000000000E+00  0.00000000000E+00  0.99999998245E-14  0.12500000000E+03  0.12500000000E+03 0.  0.
        -13    1    3    3    0    0  0.54492283017E+02 -0.28885215521E+02  0.16168609675E+01  0.61695947902E+02  0.10566000000E+00 0.  1.
         23    2    1    0    0    0  0.23525758450E+02 -0.16638369851E+02 -0.52858465885E+01  0.95704320522E+02  0.91110263584E+02 0.  0.
         13    1    3    3    0    0 -0.30966524567E+02  0.12246845670E+02 -0.69027075559E+01  0.34008372620E+02  0.10566000000E+00 0. -1.
         22    1    1    0    0    0 -0.23525758450E+02  0.16638369851E+02  0.52858465885E+01  0.29295679478E+02  0.00000000000E+00 0.  1.
</event>
<event>
 5    1  0.1285375E-004  0.9118800E+02  0.7818608E-02  0.1130116E+00
         25   -1    0    0    0    0  0.00000000000E+00  0.00000000000E+00  0.99999998245E-14  0.12500000000E+03  0.12500000000E+03 0.  0.
        -13    1    3    3    0    0  0.11429204461E+02 -0.68173929600E+01  0.37391729246E+02  0.39689496614E+02  0.10566000000E+00 0.  1.
         23    2    1    0    0    0  0.52900448299E+01  0.28849155063E+02 -0.48031431194E+01  0.95279157045E+02  0.90525075317E+02 0.  0.
         13    1    3    3    0    0 -0.61391596310E+01  0.35666548023E+02 -0.42194872366E+02  0.55589660431E+02  0.10566000000E+00 0. -1.
         22    1    1    0    0    0 -0.52900448299E+01 -0.28849155063E+02  0.48031431194E+01  0.29720842955E+02  0.00000000000E+00 0. -1.
</event>
<event>
 5    1  0.1285375E-004  0.9118800E+02  0.7818608E-02  0.1130116E+00
         25   -1    0    0    0    0  0.00000000000E+00  0.00000000000E+00  0.99999998245E-14  0.12500000000E+03  0.12500000000E+03 0.  0.
        -13    1    3    3    0    0 -0.51411517879E+02  0.20492570629E+02 -0.20087501743E+02  0.58877911919E+02  0.10566000000E+00 0. -1.
         23    2    1    0    0    0 -0.22480764991E+02  0.20705150169E+01  0.56129260761E+01  0.10173679373E+03  0.99041397565E+02 0.  0.
         13    1    3    3    0    0  0.28930752888E+02 -0.18422055613E+02  0.25700427819E+02  0.42858881808E+02  0.10566000000E+00 0.  1.
         22    1    1    0    0    0  0.22480764991E+02 -0.20705150169E+01 -0.56129260761E+01  0.23263206274E+02  0.00000000000E+00 0. -1.
</event>
<event>
 5    1  0.1285375E-004  0.9118800E+02  0.7818608E-02  0.1130116E+00
         25   -1    0    0    0    0  0.00000000000E+00  0.00000000000E+00  0.99999998245E-14  0.12500000000E+03  0.12500000000E+03 0.  0.
        -13    1    3    3    0    0 -0.16961580192E+02 -0.15094843954E+02  0.56164527251E+02  0.60580647091E+02  0.10566000000E+00 0. -1.
         23    2    1    0    0    0 -0.18269693189E+02 -0.86947224947E+01  0.23067681829E+02  0.94316163319E+02  0.89185429470E+02 0.  0.
         13    1    3    3    0    0 -0.13081129972E+01  0.64001214593E+01 -0.33096845422E+02  0.33735516228E+02  0.10566000000E+00 0.  1.
         22    1    1    0    0    0  0.18269693189E+02  0.86947224947E+01 -0.23067681829E+02  0.30683836681E+02  0.00000000000E+00 0. -1.
</event>
<event>
 5    1  0.1285375E-004  0.9118800E+02  0.7818608E-02  0.1130116E+00
         25   -1    0    0    0    0  0.00000000000E+00  0.00000000000E+00  0.99999998245E-14  0.12500000000E+03  0.12500000000E+03 0.  0.
        -13    1    3    3    0    0 -0.40014523109E+02 -0.32446556245E+02  0.14100196437E+02  0.53411307562E+02  0.10566000000E+00 0.  1.
         23    2    1    0    0    0 -0.28505988759E+02  0.65161693757E+01  0.25526126712E+01  0.95647526682E+02  0.91032311134E+02 0.  0.
         13    1    3    3    0    0  0.11508534350E+02  0.38962725621E+02 -0.11547583766E+02  0.42236219120E+02  0.10566000000E+00 0. -1.
         22    1    1    0    0    0  0.28505988759E+02 -0.65161693757E+01 -0.25526126712E+01  0.29352473318E+02  0.00000000000E+00 0.  1.
</event>
<event>
 5    1  0.1285375E-004  0.9118800E+02  0.7818608E-02  0.1130116E+00
         25   -1    0    0    0    0  0.00000000000E+00  0.00000000000E+00  0.99999998245E-14  0.12500000000E+03  0.12500000000E+03 0.  0.
        -13    1    3    3    0    0 -0.11921703762E+02 -0.91093367517E+01 -0.31968906185E+02  0.35314715960E+02  0.10566000000E+00 0.  1.
         23    2    1    0    0    0  0.27141218395E+02  0.63075235668E+01  0.10670563042E+02  0.95162246983E+02  0.90363497861E+02 0.  0.
         13    1    3    3    0    0  0.39062922157E+02  0.15416860318E+02  0.42639469227E+02  0.59847531022E+02  0.10566000000E+00 0. -1.
         22    1    1    0    0    0 -0.27141218395E+02 -0.63075235668E+01 -0.10670563042E+02  0.29837753017E+02  0.00000000000E+00 0. -1.
</event>
<event>
 5    1  0.1285375E-004  0.9118800E+02  0.7818608E-02  0.1130116E+00
         25   -1    0    0    0    0  0.00000000000E+00  0.00000000000E+00  0.99999998245E-14  0.12500000000E+03  0.12500000000E+03 0.  0.
        -13    1    3    3    0    0 -0.95293117028E+01  0.10296388828E+02  0.45062121582E+02  0.47195649904E+02  0.10566000000E+00 0.  1.
         23    2    1    0    0    0  0.25828738380E+02  0.22806878026E+01  0.11376446408E+02  0.96684830990E+02  0.92445701618E+02 0.  0.
         13    1    3    3    0    0  0.35358050083E+02 -0.80157010258E+01 -0.33685675173E+02  0.49489181086E+02  0.10566000000E+00 0. -1.
         22    1    1    0    0    0 -0.25828738380E+02 -0.22806878026E+01 -0.11376446408E+02  0.28315169010E+02  0.00000000000E+00 0. -1.
</event>
<event>
 5    1  0.1285375E-004  0.9118800E+02  0.7818608E-02  0.1130116E+00
         25   -1    0    0    0    0  0.00000000000E+00  0.00000000000E+00  0.99999998245E-14  0.12500000000E+03  0.12500000000E+03 0.  0.
        -13    1    3    3    0    0  0.40975589512E+01 -0.53663184312E+02 -0.29889439308E+02  0.61562302475E+02  0.10566000000E+00 0.  1.
         23    2    1    0    0    0 -0.57119318395E+01 -0.25501418150E+02 -0.14047661371E+02  0.95330397998E+02  0.90595802880E+02 0.  0.
         13    1    3    3    0    0 -0.98094907907E+01  0.28161766162E+02  0.15841777937E+02  0.33768095522E+02  0.10566000000E+00 0. -1.
         22    1    1    0    0    0  0.57119318395E+01  0.25501418150E+02  0.14047661371E+02  0.29669602002E+02  0.00000000000E+00 0.  1.
</event>
<event>
 5    1  0.1285375E-004  0.9118800E+02  0.7818608E-02  0.1130116E+00
         25   -1    0    0    0    0  0.00000000000E+00  0.00000000000E+00  0.99999998245E-14  0.12500000000E+03  0.12500000000E+03 0.  0.
        -13    1    3    3    0    0 -0.40815321381E+02  0.53011881155E+00 -0.38788630040E+02  0.56309328444E+02  0.10566000000E+00 0. -1.
         23    2    1    0    0    0 -0.35505130086E+01  0.97842811246E+01 -0.26346916767E+02  0.96671598653E+02  0.92427807846E+02 0.  0.
         13    1    3    3    0    0  0.37264808373E+02  0.92541623130E+01  0.12441713273E+02  0.40362270208E+02  0.10566000000E+00 0.  1.
         22    1    1    0    0    0  0.35505130086E+01 -0.97842811246E+01  0.26346916767E+02  0.28328401347E+02  0.00000000000E+00 0. -1.
</event>
<event>
 5    1  0.1285375E-004  0.9118800E+02  0.7818608E-02  0.1130116E+00
         25   -1    0    0    0    0  0.00000000000E+00  0.00000000000E+00  0.99999998245E-14  0.12500000000E+03  0.12500000000E+03 0.  0.
        -13    1    3    3    0    0 -0.30003968033E+02  0.80554606820E+01 -0.44604858386E+02  0.54357456712E+02  0.10566000000E+00 0.  1.
         23    2    1    0    0    0 -0.71267007971E+01  0.24302358566E+02 -0.13310121399E+02  0.96389620279E+02  0.92045668392E+02 0.  0.
         13    1    3    3    0    0  0.22877267235E+02  0.16246897884E+02  0.31294736987E+02  0.42032163567E+02  0.10566000000E+00 0. -1.
         22    1    1    0    0    0  0.71267007971E+01 -0.24302358566E+02  0.13310121399E+02  0.28610379721E+02  0.00000000000E+00 0. -1.
</event>
<event>
 5    1  0.1285375E-004  0.9118800E+02  0.7818608E-02  0.1130116E+00
         25   -1    0    0    0    0  0.00000000000E+00  0.00000000000E+00  0.99999998245E-14  0.12500000000E+03  0.12500000000E+03 0.  0.
        -13    1    3    3    0    0 -0.33852932935E+02 -0.82101815300E+01  0.96471500080E+01  0.36145633435E+02  0.10566000000E+00 0. -1.
         23    2    1    0    0    0  0.15683252484E+02  0.18439227908E+02 -0.13855888566E+02  0.97108152047E+02  0.93016331962E+02 0.  0.
         13    1    3    3    0    0  0.49536185419E+02  0.26649409438E+02 -0.23503038574E+02  0.60962518612E+02  0.10566000000E+00 0.  1.
         22    1    1    0    0    0 -0.15683252484E+02 -0.18439227908E+02  0.13855888566E+02  0.27891847953E+02  0.00000000000E+00 0.  1.
</event>
<event>
 5    1  0.1285375E-004  0.9118800E+02  0.7818608E-02  0.1130116E+00
         25   -1    0    0    0    0  0.00000000000E+00  0.00000000000E+00  0.99999998245E-14  0.12500000000E+03  0.12500000000E+03 0.  0.
        -13    1    3    3    0    0 -0.18152394770E+02  0.50345120868E+02  0.31318981729E+02  0.62008309215E+02  0.10566000000E+00 0.  1.
         23    2    1    0    0    0 -0.33449381860E+01  0.25591563812E+02  0.14894849058E+02  0.95201119513E+02  0.90417254318E+02 0.  0.
         13    1    3    3    0    0  0.14807456585E+02 -0.24753557056E+02 -0.16424132671E+02  0.33192810298E+02  0.10566000000E+00 0. -1.
         22    1    1    0    0    0  0.33449381860E+01 -0.25591563812E+02 -0.14894849058E+02  0.29798880487E+02  0.00000000000E+00 0.  1.
</event>
<event>
 5    1  0.1285375E-004  0.9118800E+02  0.7818608E-02  0.1130116E+00
         25   -1    0    0    0    0  0.00000000000E+00  0.00000000000E+00  0.99999998245E-14  0.12500000000E+03  0.12500000000E+03 0.  0.
        -13    1    3    3    0    0  0.44909579754E+02  0.15417047236E+02  0.37382668552E+02  0.60432034314E+02  0.10566000000E+00 0. -1.
         23    2    1    0    0    0  0.22757657774E+02 -0.39792055630E+01  0.18408212684E+02  0.95460071793E+02  0.90774544605E+02 0.  0.
         13    1    3    3    0    0 -0.22151921981E+02 -0.19396252799E+02 -0.18974455868E+02  0.35028037479E+02  0.10566000000E+00 0.  1.
         22    1    1    0    0    0 -0.22757657774E+02  0.39792055630E+01 -0.18408212684E+02  0.29539928207E+02  0.00000000000E+00 0. -1.
</event>
<event>
 5    1  0.1285375E-004  0.9118800E+02  0.7818608E-02  0.1130116E+00
         25   -1    0    0    0    0  0.00000000000E+00  0.00000000000E+00  0.99999998245E-14  0.12500000000E+03  0.12500000000E+03 0.  0.
        -13    1    3    3    0    0  0.14086819271E+02 -0.42293715540E+02 -0.26675537962E+02  0.51949902223E+02  0.10566000000E+00 0.  1.
         23    2    1    0    0    0 -0.11662797131E+02 -0.79716354862E+01 -0.26627107573E+02  0.94857494017E+02  0.89940944537E+02 0.  0.
         13    1    3    3    0    0 -0.25749616402E+02  0.34322080053E+02  0.48430389497E-01  0.42907591794E+02  0.10566000000E+00 0. -1.
         22    1    1    0    0    0  0.11662797131E+02  0.79716354862E+01  0.26627107573E+02  0.30142505983E+02  0.00000000000E+00 0. -1.
</event>
<event>
 5    1  0.1285375E-004  0.9118800E+02  0.7818608E-02  0.1130116E+00
         25   -1    0    0    0    0  0.00000000000E+00  0.00000000000E+00  0.99999998245E-14  0.12500000000E+03  0.12500000000E+03 0.  0.
        -13    1    3    3    0    0 -0.35600566939E+02  0.20281798605E+02  0.17438646702E+02  0.44529420430E+02  0.10566000000E+00 0. -1.
         23    2    1    0    0    0  0.16625053388E+01 -0.12227007846E+02  0.27378549812E+02  0.94969205227E+02  0.90096067099E+02 0.  0.
         13    1    3    3    0    0  0.37263072278E+02 -0.32508806451E+02  0.99399031108E+01  0.50439784797E+02  0.10566000000E+00 0.  1.
         22    1    1    0    0    0 -0.16625053388E+01  0.12227007846E+02 -0.27378549812E+02  0.30030794773E+02  0.00000000000E+00 0.  1.
</event>
<event>
 5    1  0.1285375E-004  0.9118800E+02  0.7818608E-02  0.1130116E+00
         25   -1    0    0    0    0  0.00000000000E+00  0.00000000000E+00  0.99999998245E-14  0.12500000000E+03  0.12500000000E+03 0.  0.
        -13    1    3    3    0    0 -0.11740505290E+02 -0.11033089389E+02 -0.31769709483E+02  0.35621540262E+02  0.10566000000E+00 0. -1.
         23    2    1    0    0    0  0.11803535639E+02  0.24073864380E+02  0.11241046514E+02  0.95927065396E+02  0.91415350729E+02 0.  0.
         13    1    3    3    0    0  0.23544040929E+02  0.35106953769E+02  0.43010755997E+02  0.60305525134E+02  0.10566000000E+00 0.  1.
         22    1    1    0    0    0 -0.11803535639E+02 -0.24073864380E+02 -0.11241046514E+02  0.29072934604E+02  0.00000000000E+00 0.  1.
</event>
<event>
 5    1  0.1285375E-004  0.9118800E+02  0.7818608E-02  0.1130116E+00
         25   -1    0    0    0    0  0.00000000000E+00  0.00000000000E+00  0.99999998245E-14  0.12500000000E+03  0.12500000000E+03 0.  0.
        -13    1    3    3    0    0 -0.30390553098E+02  0.31424073020E+02 -0.19753539303E+02  0.47971570350E+02  0.10566000000E+00 0. -1.
         23    2    1    0    0    0  0.14338244014E+02  0.13673397888E+02 -0.21024810420E+02  0.96110733751E+02  0.91666152084E+02 0.  0.
         13    1    3    3    0    0  0.44728797112E+02 -0.17750675132E+02 -0.12712711172E+01  0.48139163402E+02  0.10566000000E+00 0.  1.
         22    1    1    0    0    0 -0.14338244014E+02 -0.13673397888E+02  0.21024810420E+02  0.28889266249E+02  0.00000000000E+00 0.  1.
</event>
<event>
 5    1  0.1285375E-004  0.9118800E+02  0.7818608E-02  0.1130116E+00
         25   -1    0    0    0    0  0.00000000000E+00  0.00000000000E+00  0.99999998245E-14  0.12500000000E+03  0.12500000000E+03 0.  0.
        -13    1    3    3    0    0  0.18178901868E+02 -0.25283708052E+02 -0.47922567423E+02  0.57151745366E+02  0.10566000000E+00 0.  1.
         23    2    1    0    0    0  0.19598994436E+02  0.28541061190E+01 -0.21310930605E+02  0.95906662827E+02  0.91387448299E+02 0.  0.
         13    1    3    3    0    0  0.14200925681E+01  0.28137814171E+02  0.26611636818E+02  0.38754917461E+02  0.10566000000E+00 0. -1.
         22    1    1    0    0    0 -0.19598994436E+02 -0.28541061190E+01  0.21310930605E+02  0.29093337173E+02  0.00000000000E+00 0.  1.
</event>
<event>
 5    1  0.1285375E-004  0.9118800E+02  0.7818608E-02  0.1130116E+00
         25   -1    0    0    0    0  0.00000000000E+00  0.00000000000E+00  0.99999998245E-14  0.12500000000E+03  0.12500000000E+03 0.  0.
        -13    1    3    3    0    0 -0.28356474396E+02 -0.47235995986E+02 -0.12954885755E+02  0.56596547474E+02  0.10566000000E+00 0. -1.
         23    2    1    0    0    0 -0.22951818809E+02 -0.16123792874E+02  0.95454721477E+01  0.95370981761E+02  0.90651781230E+02 0.  0.
         13    1    3    3    0    0  0.54046555867E+01  0.31112203112E+02  0.22500357903E+02  0.38774434287E+02  0.10566000000E+00 0.  1.
         22    1    1    0    0    0  0.22951818809E+02  0.16123792874E+02 -0.95454721477E+01  0.29629018239E+02  0.00000000000E+00 0. -1.
</event>
<event>
 5    1  0.1285375E-004  0.9118800E+02  0.7818608E-02  0.1130116E+00
         25   -1    0    0    0    0  0.00000000000E+00  0.00000000000E+00  0.99999998245E-14  0.12500000000E+03  0.12500000000E+03 0.  0.
        -13    1    3    3    0    0  0.18076263749E+02 -0.17812328362E+02  0.30160592230E+02  0.39417037440E+02  0.10566000000E+00 0. -1.
         23    2    1    0    0    0  0.31720849487E+02  0.19489252402E+02  0.26495599207E+02  0.79304704523E+02  0.64816480395E+02 0.  0.
         13    1    3    3    0    0  0.13644585738E+02  0.37301580764E+02 -0.36649930234E+01  0.39887667084E+02  0.10566000000E+00 0.  1.
         22    1    1    0    0    0 -0.31720849487E+02 -0.19489252402E+02 -0.26495599207E+02  0.45695295477E+02  0.00000000000E+00 0.  1.
</event>
<event>
 5    1  0.1285375E-004  0.9118800E+02  0.7818608E-02  0.1130116E+00
         25   -1    0    0    0    0  0.00000000000E+00  0.00000000000E+00  0.99999998245E-14  0.12500000000E+03  0.12500000000E+03 0.  0.
        -13    1    3    3    0    0  0.15458914263E+01  0.19810820398E+02 -0.53484168661E+02  0.57056339232E+02  0.10566000000E+00 0. -1.
         23    2    1    0    0    0 -0.16271065999E+02  0.16552635641E+01 -0.23354246985E+02  0.96488452542E+02  0.92179787023E+02 0.  0.
         13    1    3    3    0    0 -0.17816957425E+02 -0.18155556834E+02  0.30129921676E+02  0.39432113310E+02  0.10566000000E+00 0.  1.
         22    1    1    0    0    0  0.16271065999E+02 -0.16552635641E+01  0.23354246985E+02  0.28511547458E+02  0.00000000000E+00 0. -1.
</event>
<event>
 5    1  0.1285375E-004  0.9118800E+02  0.7818608E-02  0.1130116E+00
         25   -1    0    0    0    0  0.00000000000E+00  0.00000000000E+00  0.99999998245E-14  0.12500000000E+03  0.12500000000E+03 0.  0.
        -13    1    3    3    0    0  0.10600973324E+02  0.53663203307E+02  0.23205829804E+02  0.59419203339E+02  0.10566000000E+00 0. -1.
         23    2    1    0    0    0  0.15852271456E+02  0.22166374479E+02  0.21592197823E+01  0.97663122015E+02  0.93759162240E+02 0.  0.
         13    1    3    3    0    0  0.52512981325E+01 -0.31496828828E+02 -0.21046610022E+02  0.38243918676E+02  0.10566000000E+00 0.  1.
         22    1    1    0    0    0 -0.15852271456E+02 -0.22166374479E+02 -0.21592197823E+01  0.27336877985E+02  0.00000000000E+00 0. -1.
</event>
<event>
 5    1  0.1285375E-004  0.9118800E+02  0.7818608E-02  0.1130116E+00
         25   -1    0    0    0    0  0.00000000000E+00  0.00000000000E+00  0.99999998245E-14  0.12500000000E+03  0.12500000000E+03 0.  0.
        -13    1    3    3    0    0 -0.26370605068E+02 -0.19902799596E+02 -0.22525583740E+02  0.39986789447E+02  0.10566000000E+00 0.  1.
         23    2    1    0    0    0  0.19744711552E+02 -0.14431868214E+01  0.13228878401E+02  0.10118950554E+03  0.98348240381E+02 0.  0.
         13    1    3    3    0    0  0.46115316620E+02  0.18459612775E+02  0.35754462141E+02  0.61202716098E+02  0.10566000000E+00 0. -1.
         22    1    1    0    0    0 -0.19744711552E+02  0.14431868214E+01 -0.13228878401E+02  0.23810494456E+02  0.00000000000E+00 0. -1.
</event>
<event>
 5    1  0.1285375E-004  0.9118800E+02  0.7818608E-02  0.1130116E+00
         25   -1    0    0    0    0  0.00000000000E+00  0.00000000000E+00  0.99999998245E-14  0.12500000000E+03  0.12500000000E+03 0.  0.
        -13    1    3    3    0    0 -0.96898368736E+00 -0.42643149420E+02  0.87267618585E+01  0.43537853168E+02  0.10566000000E+00 0. -1.
         23    2    1    0    0    0  0.24081760978E+02 -0.24152190239E+02 -0.19626700979E+02  0.85649435881E+02  0.76074693363E+02 0.  0.
         13    1    3    3    0    0  0.25050744665E+02  0.18490959181E+02 -0.28353462838E+02  0.42111582713E+02  0.10566000000E+00 0.  1.
         22    1    1    0    0    0 -0.24081760978E+02  0.24152190239E+02  0.19626700979E+02  0.39350564119E+02  0.00000000000E+00 0. -1.
</event>
<event>
 5    1  0.1285375E-004  0.9118800E+02  0.7818608E-02  0.1130116E+00
         25   -1    0    0    0    0  0.00000000000E+00  0.00000000000E+00  0.99999998245E-14  0.12500000000E+03  0.12500000000E+03 0.  0.
        -13    1    3    3    0    0 -0.23193822422E+02  0.46122903903E+02  0.28265050549E+02  0.58857454154E+02  0.10566000000E+00 0. -1.
         23    2    1    0    0    0  0.11500944183E+01  0.23064684682E+02  0.22266050704E+02  0.92920732387E+02  0.87207700903E+02 0.  0.
         13    1    3    3    0    0  0.24343916841E+02 -0.23058219221E+02 -0.59989998454E+01  0.34063278233E+02  0.10566000000E+00 0.  1.
         22    1    1    0    0    0 -0.11500944183E+01 -0.23064684682E+02 -0.22266050704E+02  0.32079267613E+02  0.00000000000E+00 0. -1.
</event>
<event>
 5    1  0.1285375E-004  0.9118800E+02  0.7818608E-02  0.1130116E+00
         25   -1    0    0    0    0  0.00000000000E+00  0.00000000000E+00  0.99999998245E-14  0.12500000000E+03  0.12500000000E+03 0.  0.
        -13    1    3    3    0    0 -0.14090084308E+02  0.96749397440E+00  0.36649525196E+02  0.39276779164E+02  0.10566000000E+00 0.  1.
         23    2    1    0    0    0  0.23455285640E+02  0.15897740575E+02 -0.37539513339E+01  0.96417125224E+02  0.92083013124E+02 0.  0.
         13    1    3    3    0    0  0.37545369948E+02  0.14930246600E+02 -0.40403476530E+02  0.57140346060E+02  0.10566000000E+00 0. -1.
         22    1    1    0    0    0 -0.23455285640E+02 -0.15897740575E+02  0.37539513339E+01  0.28582874776E+02  0.00000000000E+00 0. -1.
</event>
<event>
 5    1  0.1285375E-004  0.9118800E+02  0.7818608E-02  0.1130116E+00
         25   -1    0    0    0    0  0.00000000000E+00  0.00000000000E+00  0.99999998245E-14  0.12500000000E+03  0.12500000000E+03 0.  0.
        -13    1    3    3    0    0 -0.37678685585E+00  0.30101776474E+02 -0.21135598337E+02  0.36782925336E+02  0.10566000000E+00 0.  1.
         23    2    1    0    0    0  0.18487513825E+02 -0.21410530780E+02  0.26762562587E+01  0.96585895347E+02  0.92311829343E+02 0.  0.
         13    1    3    3    0    0  0.18864300681E+02 -0.51512307253E+02  0.23811854596E+02  0.59802970010E+02  0.10566000000E+00 0. -1.
         22    1    1    0    0    0 -0.18487513825E+02  0.21410530780E+02 -0.26762562587E+01  0.28414104653E+02  0.00000000000E+00 0. -1.
</event>
<event>
 5    1  0.1285375E-004  0.9118800E+02  0.7818608E-02  0.1130116E+00
         25   -1    0    0    0    0  0.00000000000E+00  0.00000000000E+00  0.99999998245E-14  0.12500000000E+03  0.12500000000E+03 0.  0.
        -13    1    3    3    0    0 -0.43909029567E+02 -0.18847030666E+02  0.87408291912E+01  0.48575988939E+02  0.10566000000E+00 0. -1.
         23    2    1    0    0    0  0.23582957169E+01 -0.28386169296E+02  0.59657538448E+01  0.95898000328E+02  0.91375598942E+02 0.  0.
         13    1    3    3    0    0  0.46267325283E+02 -0.95391386302E+01 -0.27750753463E+01  0.47322011389E+02  0.10566000000E+00 0.  1.
         22    1    1    0    0    0 -0.23582957169E+01  0.28386169296E+02 -0.59657538448E+01  0.29101999672E+02  0.00000000000E+00 0. -1.
</event>
<event>
 5    1  0.1285375E-004  0.9118800E+02  0.7818608E-02  0.1130116E+00
         25   -1    0    0    0    0  0.00000000000E+00  0.00000000000E+00  0.99999998245E-14  0.12500000000E+03  0.12500000000E+03 0.  0.
        -13    1    3    3    0    0 -0.30679607899E+02  0.89513494340E+01  0.36666625207E+02  0.48639670699E+02  0.10566000000E+00 0.  1.
         23    2    1    0    0    0  0.30542715497E+01  0.27581827194E+02  0.10001764015E+02  0.95502185684E+02  0.90832518521E+02 0.  0.
         13    1    3    3    0    0  0.33733879449E+02  0.18630477760E+02 -0.26664861193E+02  0.46862514985E+02  0.10566000000E+00 0. -1.
         22    1    1    0    0    0 -0.30542715497E+01 -0.27581827194E+02 -0.10001764015E+02  0.29497814316E+02  0.00000000000E+00 0.  1.
</event>
<event>
 5    1  0.1285375E-004  0.9118800E+02  0.7818608E-02  0.1130116E+00
         25   -1    0    0    0    0  0.00000000000E+00  0.00000000000E+00  0.99999998245E-14  0.12500000000E+03  0.12500000000E+03 0.  0.
        -13    1    3    3    0    0  0.39847890473E+02 -0.58304925455E+00 -0.16509216903E+02  0.43136524296E+02  0.10566000000E+00 0.  1.
         23    2    1    0    0    0 -0.10916225219E+01 -0.29731929546E+02 -0.35496136135E+01  0.95037039014E+02  0.90190131131E+02 0.  0.
         13    1    3    3    0    0 -0.40939512995E+02 -0.29148880291E+02  0.12959603289E+02  0.51900514718E+02  0.10566000000E+00 0. -1.
         22    1    1    0    0    0  0.10916225219E+01  0.29731929546E+02  0.35496136135E+01  0.29962960986E+02  0.00000000000E+00 0.  1.
</event>
<event>
 5    1  0.1285375E-004  0.9118800E+02  0.7818608E-02  0.1130116E+00
         25   -1    0    0    0    0  0.00000000000E+00  0.00000000000E+00  0.99999998245E-14  0.12500000000E+03  0.12500000000E+03 0.  0.
        -13    1    3    3    0    0  0.23974563108E+02  0.50480046422E+02  0.23310019638E+02  0.60550664262E+02  0.10566000000E+00 0.  1.
         23    2    1    0    0    0  0.11711969284E+02  0.25823983460E+02 -0.23276298874E-01  0.96644244182E+02  0.92390806066E+02 0.  0.
         13    1    3    3    0    0 -0.12262593824E+02 -0.24656062963E+02 -0.23333295937E+02  0.36093579920E+02  0.10566000000E+00 0. -1.
         22    1    1    0    0    0 -0.11711969284E+02 -0.25823983460E+02  0.23276298874E-01  0.28355755818E+02  0.00000000000E+00 0.  1.
</event>
<event>
 5    1  0.1285375E-004  0.9118800E+02  0.7818608E-02  0.1130116E+00
         25   -1    0    0    0    0  0.00000000000E+00  0.00000000000E+00  0.99999998245E-14  0.12500000000E+03  0.12500000000E+03 0.  0.
        -13    1    3    3    0    0 -0.14188264267E+02 -0.84822076160E+01 -0.34044856623E+02  0.37845978855E+02  0.10566000000E+00 0.  1.
         23    2    1    0    0    0 -0.99032711013E+01  0.18379069156E+02  0.18558778731E+02  0.97066270755E+02  0.92960032749E+02 0.  0.
         13    1    3    3    0    0  0.42849931661E+01  0.26861276772E+02  0.52603635354E+02  0.59220291900E+02  0.10566000000E+00 0. -1.
         22    1    1    0    0    0  0.99032711013E+01 -0.18379069156E+02 -0.18558778731E+02  0.27933729245E+02  0.00000000000E+00 0. -1.
</event>
<event>
 5    1  0.1285375E-004  0.9118800E+02  0.7818608E-02  0.1130116E+00
         25   -1    0    0    0    0  0.00000000000E+00  0.00000000000E+00  0.99999998245E-14  0.12500000000E+03  0.12500000000E+03 0.  0.
        -13    1    3    3    0    0  0.39514842738E+02 -0.46785583983E+01 -0.18336996807E+02  0.43812878485E+02  0.10566000000E+00 0. -1.
         23    2    1    0    0    0  0.16552948800E+02  0.31316618754E+01  0.25806996245E+02  0.94181037083E+02  0.88995838503E+02 0.  0.
         13    1    3    3    0    0 -0.22961893938E+02  0.78102202737E+01  0.44143993052E+02  0.50368158598E+02  0.10566000000E+00 0.  1.
         22    1    1    0    0    0 -0.16552948800E+02 -0.31316618754E+01 -0.25806996245E+02  0.30818962917E+02  0.00000000000E+00 0.  1.
</event>
<event>
 5    1  0.1285375E-004  0.9118800E+02  0.7818608E-02  0.1130116E+00
         25   -1    0    0    0    0  0.00000000000E+00  0.00000000000E+00  0.99999998245E-14  0.12500000000E+03  0.12500000000E+03 0.  0.
        -13    1    3    3    0    0 -0.39454233244E+02  0.42438360880E+02  0.15491278074E+02  0.59980345576E+02  0.10566000000E+00 0.  1.
         23    2    1    0    0    0 -0.17032841903E+02  0.30587128083E+02 -0.54468084652E+00  0.89985905911E+02  0.82894369397E+02 0.  0.
         13    1    3    3    0    0  0.22421391340E+02 -0.11851232798E+02 -0.16035958921E+02  0.30005560335E+02  0.10566000000E+00 0. -1.
         22    1    1    0    0    0  0.17032841903E+02 -0.30587128083E+02  0.54468084652E+00  0.35014094089E+02  0.00000000000E+00 0.  1.
</event>
<event>
 5    1  0.1285375E-004  0.9118800E+02  0.7818608E-02  0.1130116E+00
         25   -1    0    0    0    0  0.00000000000E+00  0.00000000000E+00  0.99999998245E-14  0.12500000000E+03  0.12500000000E+03 0.  0.
        -13    1    3    3    0    0 -0.52076316708E+02 -0.67618800177E+01 -0.20619064159E+02  0.56416511361E+02  0.10566000000E+00 0.  1.
         23    2    1    0    0    0 -0.38615848013E+02 -0.16293943552E+01  0.52186869268E+01  0.85999059794E+02  0.76647015261E+02 0.  0.
         13    1    3    3    0    0  0.13460468695E+02  0.51324856625E+01  0.25837751086E+02  0.29582548433E+02  0.10566000000E+00 0. -1.
         22    1    1    0    0    0  0.38615848013E+02  0.16293943552E+01 -0.52186869268E+01  0.39000940206E+02  0.00000000000E+00 0.  1.
</event>
<event>
 5    1  0.1285375E-004  0.9118800E+02  0.7818608E-02  0.1130116E+00
         25   -1    0    0    0    0  0.00000000000E+00  0.00000000000E+00  0.99999998245E-14  0.12500000000E+03  0.12500000000E+03 0.  0.
        -13    1    3    3    0    0 -0.16859278085E+02  0.24119582452E+02 -0.17652437974E+02  0.34316311655E+02  0.10566000000E+00 0.  1.
         23    2    1    0    0    0  0.18189557618E+02 -0.19866918175E+02  0.90610320210E+01  0.96580697661E+02  0.92304790858E+02 0.  0.
         13    1    3    3    0    0  0.35048835703E+02 -0.43986500626E+02  0.26713469995E+02  0.62264386006E+02  0.10566000000E+00 0. -1.
         22    1    1    0    0    0 -0.18189557618E+02  0.19866918175E+02 -0.90610320210E+01  0.28419302339E+02  0.00000000000E+00 0. -1.
</event>
<event>
 5    1  0.1285375E-004  0.9118800E+02  0.7818608E-02  0.1130116E+00
         25   -1    0    0    0    0  0.00000000000E+00  0.00000000000E+00  0.99999998245E-14  0.12500000000E+03  0.12500000000E+03 0.  0.
        -13    1    3    3    0    0  0.39391099529E+02  0.47390443433E+02 -0.90220460780E+01  0.62280986909E+02  0.10566000000E+00 0. -1.
         23    2    1    0    0    0  0.20027363738E+02  0.19322199811E+02 -0.61369087235E+01  0.96502555334E+02  0.92198909068E+02 0.  0.
         13    1    3    3    0    0 -0.19363735791E+02 -0.28068243622E+02  0.28851373545E+01  0.34221568424E+02  0.10566000000E+00 0.  1.
         22    1    1    0    0    0 -0.20027363738E+02 -0.19322199811E+02  0.61369087235E+01  0.28497444666E+02  0.00000000000E+00 0. -1.
</event>
<event>
 5    1  0.1285375E-004  0.9118800E+02  0.7818608E-02  0.1130116E+00
         25   -1    0    0    0    0  0.00000000000E+00  0.00000000000E+00  0.99999998245E-14  0.12500000000E+03  0.12500000000E+03 0.  0.
        -13    1    3    3    0    0 -0.11435453406E+02  0.42399633148E+02 -0.37465029282E+02  0.57724674697E+02  0.10566000000E+00 0. -1.
         23    2    1    0    0    0 -0.79849851115E+01  0.64373764325E+01 -0.28158489436E+02  0.95031677893E+02  0.90182700521E+02 0.  0.
         13    1    3    3    0    0  0.34504682941E+01 -0.35962256716E+02  0.93065398458E+01  0.37307003196E+02  0.10566000000E+00 0.  1.
         22    1    1    0    0    0  0.79849851115E+01 -0.64373764325E+01  0.28158489436E+02  0.29968322107E+02  0.00000000000E+00 0. -1.
</event>
<event>
 5    1  0.1285375E-004  0.9118800E+02  0.7818608E-02  0.1130116E+00
         25   -1    0    0    0    0  0.00000000000E+00  0.00000000000E+00  0.99999998245E-14  0.12500000000E+03  0.12500000000E+03 0.  0.
        -13    1    3    3    0    0  0.94431555405E+01 -0.50016131578E+02 -0.97809362081E+00  0.50909276520E+02  0.10566000000E+00 0.  1.
         23    2    1    0    0    0  0.25815815327E+02 -0.95285603889E+01 -0.10391567490E+02  0.95585132008E+02  0.90946594230E+02 0.  0.
         13    1    3    3    0    0  0.16372659787E+02  0.40487571189E+02 -0.94134738692E+01  0.44675855488E+02  0.10566000000E+00 0. -1.
         22    1    1    0    0    0 -0.25815815327E+02  0.95285603889E+01  0.10391567490E+02  0.29414867992E+02  0.00000000000E+00 0. -1.
</event>
<event>
 5    1  0.1285375E-004  0.9118800E+02  0.7818608E-02  0.1130116E+00
         25   -1    0    0    0    0  0.00000000000E+00  0.00000000000E+00  0.99999998245E-14  0.12500000000E+03  0.12500000000E+03 0.  0.
        -13    1    3    3    0    0 -0.34165946768E+02 -0.89326103436E+01  0.18681151962E+02  0.39951220867E+02  0.10566000000E+00 0.  1.
         23    2    1    0    0    0  0.76212758936E+01  0.26040532070E+02 -0.89529625285E+00  0.97852353470E+02  0.94011107681E+02 0.  0.
         13    1    3    3    0    0  0.41787222661E+02  0.34973142414E+02 -0.19576448215E+02  0.57901132603E+02  0.10566000000E+00 0. -1.
         22    1    1    0    0    0 -0.76212758936E+01 -0.26040532070E+02  0.89529625285E+00  0.27147646530E+02  0.00000000000E+00 0. -1.
</event>
<event>
 5    1  0.1285375E-004  0.9118800E+02  0.7818608E-02  0.1130116E+00
         25   -1    0    0    0    0  0.00000000000E+00  0.00000000000E+00  0.99999998245E-14  0.12500000000E+03  0.12500000000E+03 0.  0.
        -13    1    3    3    0    0 -0.15559507514E+02  0.75827633454E+00  0.48715420663E+02  0.51145641373E+02  0.10566000000E+00 0. -1.
         23    2    1    0    0    0 -0.10709452906E+02  0.24738647268E+02  0.11479193688E+02  0.95700427684E+02  0.91104922595E+02 0.  0.
         13    1    3    3    0    0  0.48500546086E+01  0.23980370933E+02 -0.37236226975E+02  0.44554786310E+02  0.10566000000E+00 0.  1.
         22    1    1    0    0    0  0.10709452906E+02 -0.24738647268E+02 -0.11479193688E+02  0.29299572316E+02  0.00000000000E+00 0. -1.
</event>
<event>
 5    1  0.1285375E-004  0.9118800E+02  0.7818608E-02  0.1130116E+00
         25   -1    0    0    0    0  0.00000000000E+00  0.00000000000E+00  0.99999998245E-14  0.12500000000E+03  0.12500000000E+03 0.  0.
        -13    1    3    3    0    0  0.20026141649E+01  0.53177350427E+02  0.24473864965E+01  0.53271398767E+02  0.10566000000E+00 0.  1.
         23    2    1    0    0    0 -0.23030022264E+02  0.25330082634E+02  0.16908036788E+01  0.90723859190E+02  0.83999790461E+02 0.  0.
         13    1    3    3    0    0 -0.25032636429E+02 -0.27847267793E+02 -0.75658281769E+00  0.37452460423E+02  0.10566000000E+00 0. -1.
         22    1    1    0    0    0  0.23030022264E+02 -0.25330082634E+02 -0.16908036788E+01  0.34276140810E+02  0.00000000000E+00 0.  1.
</event>
<event>
 5    1  0.1285375E-004  0.9118800E+02  0.7818608E-02  0.1130116E+00
         25   -1    0    0    0    0  0.00000000000E+00  0.00000000000E+00  0.99999998245E-14  0.12500000000E+03  0.12500000000E+03 0.  0.
        -13    1    3    3    0    0  0.43789776689E+02  0.42207315118E+02 -0.30836201667E+01  0.60897634349E+02  0.10566000000E+00 0. -1.
         23    2    1    0    0    0  0.24751312545E+02  0.17157575600E+02 -0.10286270844E+02  0.93175210275E+02  0.87571699588E+02 0.  0.
         13    1    3    3    0    0 -0.19038464143E+02 -0.25049739518E+02 -0.72026506769E+01  0.32277575926E+02  0.10566000000E+00 0.  1.
         22    1    1    0    0    0 -0.24751312545E+02 -0.17157575600E+02  0.10286270844E+02  0.31824789725E+02  0.00000000000E+00 0. -1.
</event>
<event>
 5    1  0.1285375E-004  0.9118800E+02  0.7818608E-02  0.1130116E+00
         25   -1    0    0    0    0  0.00000000000E+00  0.00000000000E+00  0.99999998245E-14  0.12500000000E+03  0.12500000000E+03 0.  0.
        -13    1    3    3    0    0 -0.19619936788E+02 -0.21663568296E+02 -0.15337822348E+02  0.33007757714E+02  0.10566000000E+00 0.  1.
         23    2    1    0    0    0  0.21464747370E+02  0.21995157510E+02 -0.61394076332E+01  0.93659695923E+02  0.88260546004E+02 0.  0.
         13    1    3    3    0    0  0.41084684157E+02  0.43658725806E+02  0.91984147145E+01  0.60651938210E+02  0.10566000000E+00 0. -1.
         22    1    1    0    0    0 -0.21464747370E+02 -0.21995157510E+02  0.61394076332E+01  0.31340304077E+02  0.00000000000E+00 0. -1.
</event>
<event>
 5    1  0.1285375E-004  0.9118800E+02  0.7818608E-02  0.1130116E+00
         25   -1    0    0    0    0  0.00000000000E+00  0.00000000000E+00  0.99999998245E-14  0.12500000000E+03  0.12500000000E+03 0.  0.
        -13    1    3    3    0    0 -0.61400280533E+01  0.28865730993E+02 -0.53686537593E+02  0.61263250428E+02  0.10566000000E+00 0. -1.
         23    2    1    0    0    0 -0.10535413508E+02  0.89297488684E+01 -0.24391254384E+02  0.96970218640E+02  0.92830785088E+02 0.  0.
         13    1    3    3    0    0 -0.43953854546E+01 -0.19935982125E+02  0.29295283209E+02  0.35706968212E+02  0.10566000000E+00 0.  1.
         22    1    1    0    0    0  0.10535413508E+02 -0.89297488684E+01  0.24391254384E+02  0.28029781360E+02  0.00000000000E+00 0. -1.
</event>
<event>
 5    1  0.1285375E-004  0.9118800E+02  0.7818608E-02  0.1130116E+00
         25   -1    0    0    0    0  0.00000000000E+00  0.00000000000E+00  0.99999998245E-14  0.12500000000E+03  0.12500000000E+03 0.  0.
        -13    1    3    3    0    0 -0.39990784174E+02 -0.39690762004E+02 -0.22063855796E+02  0.60509869475E+02  0.10566000000E+00 0. -1.
         23    2    1    0    0    0 -0.95201331410E+01 -0.24948232384E+02 -0.10973203906E+02  0.96130319744E+02  0.91692856516E+02 0.  0.
         13    1    3    3    0    0  0.30470651033E+02  0.14742529619E+02  0.11090651889E+02  0.35620450269E+02  0.10566000000E+00 0.  1.
         22    1    1    0    0    0  0.95201331410E+01  0.24948232384E+02  0.10973203906E+02  0.28869680256E+02  0.00000000000E+00 0. -1.
</event>
<event>
 5    1  0.1285375E-004  0.9118800E+02  0.7818608E-02  0.1130116E+00
         25   -1    0    0    0    0  0.00000000000E+00  0.00000000000E+00  0.99999998245E-14  0.12500000000E+03  0.12500000000E+03 0.  0.
        -13    1    3    3    0    0  0.11227060947E+02  0.46868810446E+02 -0.20157272484E+02  0.52240397090E+02  0.10566000000E+00 0. -1.
         23    2    1    0    0    0  0.21124590823E+02  0.18636770476E+02  0.10368468996E+02  0.94981960415E+02  0.90113762010E+02 0.  0.
         13    1    3    3    0    0  0.98975298763E+01 -0.28232039970E+02  0.30525741480E+02  0.42741563324E+02  0.10566000000E+00 0.  1.
         22    1    1    0    0    0 -0.21124590823E+02 -0.18636770476E+02 -0.10368468996E+02  0.30018039585E+02  0.00000000000E+00 0. -1.
</event>
<event>
 5    1  0.1285375E-004  0.9118800E+02  0.7818608E-02  0.1130116E+00
         25   -1    0    0    0    0  0.00000000000E+00  0.00000000000E+00  0.99999998245E-14  0.12500000000E+03  0.12500000000E+03 0.  0.
        -13    1    3    3    0    0 -0.32336056947E+02  0.49702807249E+00 -0.10324568533E+02  0.33948129481E+02  0.10566000000E+00 0.  1.
         23    2    1    0    0    0  0.28914305336E+02 -0.28737316748E+01 -0.49295799216E+01  0.95528044771E+02  0.90868097773E+02 0.  0.
         13    1    3    3    0    0  0.61250362283E+02 -0.33707597472E+01  0.53949886117E+01  0.61579915291E+02  0.10566000000E+00 0. -1.
         22    1    1    0    0    0 -0.28914305336E+02  0.28737316748E+01  0.49295799216E+01  0.29471955229E+02  0.00000000000E+00 0. -1.
</event>
<event>
 5    1  0.1285375E-004  0.9118800E+02  0.7818608E-02  0.1130116E+00
         25   -1    0    0    0    0  0.00000000000E+00  0.00000000000E+00  0.99999998245E-14  0.12500000000E+03  0.12500000000E+03 0.  0.
        -13    1    3    3    0    0 -0.17702631360E+02  0.45405564699E+02 -0.25726853009E+02  0.55108353201E+02  0.10566000000E+00 0. -1.
         23    2    1    0    0    0 -0.22500982177E+01  0.57926600920E+01 -0.26646383850E+02  0.97638574138E+02  0.93726429221E+02 0.  0.
         13    1    3    3    0    0  0.15452533142E+02 -0.39612904607E+02 -0.91953084081E+00  0.42530220937E+02  0.10566000000E+00 0.  1.
         22    1    1    0    0    0  0.22500982177E+01 -0.57926600920E+01  0.26646383850E+02  0.27361425862E+02  0.00000000000E+00 0. -1.
</event>
<event>
 5    1  0.1285375E-004  0.9118800E+02  0.7818608E-02  0.1130116E+00
         25   -1    0    0    0    0  0.00000000000E+00  0.00000000000E+00  0.99999998245E-14  0.12500000000E+03  0.12500000000E+03 0.  0.
        -13    1    3    3    0    0  0.95945273169E+01 -0.34386836012E+02  0.69033355468E+01  0.36361747085E+02  0.10566000000E+00 0. -1.
         23    2    1    0    0    0 -0.15728000796E+02  0.17515163416E+02  0.18247538143E+02  0.95215379694E+02  0.90436966576E+02 0.  0.
         13    1    3    3    0    0 -0.25322528113E+02  0.51901999428E+02  0.11344202596E+02  0.58853632609E+02  0.10566000000E+00 0.  1.
         22    1    1    0    0    0  0.15728000796E+02 -0.17515163416E+02 -0.18247538143E+02  0.29784620306E+02  0.00000000000E+00 0.  1.
</event>
<event>
 5    1  0.1285375E-004  0.9118800E+02  0.7818608E-02  0.1130116E+00
         25   -1    0    0    0    0  0.00000000000E+00  0.00000000000E+00  0.99999998245E-14  0.12500000000E+03  0.12500000000E+03 0.  0.
        -13    1    3    3    0    0 -0.32083056314E+02 -0.34909178052E+02 -0.12747908653E+02  0.49096777428E+02  0.10566000000E+00 0.  1.
         23    2    1    0    0    0 -0.14032404661E+02 -0.11300911332E+02  0.23127650772E+02  0.95682646645E+02  0.91080522952E+02 0.  0.
         13    1    3    3    0    0  0.18050651653E+02  0.23608266720E+02  0.35875559425E+02  0.46585869218E+02  0.10566000000E+00 0. -1.
         22    1    1    0    0    0  0.14032404661E+02  0.11300911332E+02 -0.23127650772E+02  0.29317353355E+02  0.00000000000E+00 0.  1.
</event>
<event>
 5    1  0.1285375E-004  0.9118800E+02  0.7818608E-02  0.1130116E+00
         25   -1    0    0    0    0  0.00000000000E+00  0.00000000000E+00  0.99999998245E-14  0.12500000000E+03  0.12500000000E+03 0.  0.
        -13    1    3    3    0    0 -0.25911368640E+02 -0.10198411551E+02  0.19968297245E+02  0.34265882184E+02  0.10566000000E+00 0. -1.
         23    2    1    0    0    0  0.24417906722E+02 -0.15163393005E+02 -0.11733508286E+02  0.93954261600E+02  0.88676746670E+02 0.  0.
         13    1    3    3    0    0  0.50329275362E+02 -0.49649814536E+01 -0.31701805530E+02  0.59688379416E+02  0.10566000000E+00 0.  1.
         22    1    1    0    0    0 -0.24417906722E+02  0.15163393005E+02  0.11733508286E+02  0.31045738400E+02  0.00000000000E+00 0.  1.
</event>
<event>
 5    1  0.1285375E-004  0.9118800E+02  0.7818608E-02  0.1130116E+00
         25   -1    0    0    0    0  0.00000000000E+00  0.00000000000E+00  0.99999998245E-14  0.12500000000E+03  0.12500000000E+03 0.  0.
        -13    1    3    3    0    0 -0.17274935406E+02  0.52467418101E+02 -0.15102137024E+02  0.57265513725E+02  0.10566000000E+00 0. -1.
         23    2    1    0    0    0  0.22935010463E+01  0.17184492196E+02 -0.20700769869E+02  0.97998355749E+02  0.94205036688E+02 0.  0.
         13    1    3    3    0    0  0.19568436453E+02 -0.35282925905E+02 -0.55986328447E+01  0.40732842024E+02  0.10566000000E+00 0.  1.
         22    1    1    0    0    0 -0.22935010463E+01 -0.17184492196E+02  0.20700769869E+02  0.27001644251E+02  0.00000000000E+00 0. -1.
</event>
<event>
 5    1  0.1285375E-004  0.9118800E+02  0.7818608E-02  0.1130116E+00
         25   -1    0    0    0    0  0.00000000000E+00  0.00000000000E+00  0.99999998245E-14  0.12500000000E+03  0.12500000000E+03 0.  0.
        -13    1    3    3    0    0  0.41242413622E+02  0.70910860634E+01  0.21357887437E+02  0.46982876697E+02  0.10566000000E+00 0. -1.
         23    2    1    0    0    0  0.15988949075E+02 -0.22488407150E+02 -0.86236470483E+01  0.96090793212E+02  0.91638956253E+02 0.  0.
         13    1    3    3    0    0 -0.25253464547E+02 -0.29579493214E+02 -0.29981534485E+02  0.49107916516E+02  0.10566000000E+00 0.  1.
         22    1    1    0    0    0 -0.15988949075E+02  0.22488407150E+02  0.86236470483E+01  0.28909206788E+02  0.00000000000E+00 0.  1.
</event>
<event>
 5    1  0.1285375E-004  0.9118800E+02  0.7818608E-02  0.1130116E+00
         25   -1    0    0    0    0  0.00000000000E+00  0.00000000000E+00  0.99999998245E-14  0.12500000000E+03  0.12500000000E+03 0.  0.
        -13    1    3    3    0    0  0.99820850381E+01  0.49848989104E+02 -0.16358462345E+02  0.53405750540E+02  0.10566000000E+00 0.  1.
         23    2    1    0    0    0  0.38888456834E+01  0.25993746217E+02  0.16124146035E+02  0.94165181231E+02  0.88973565219E+02 0.  0.
         13    1    3    3    0    0 -0.60932393547E+01 -0.23855242887E+02  0.32482608380E+02  0.40759430691E+02  0.10566000000E+00 0. -1.
         22    1    1    0    0    0 -0.38888456834E+01 -0.25993746217E+02 -0.16124146035E+02  0.30834818769E+02  0.00000000000E+00 0.  1.
</event>
<event>
 5    1  0.1285375E-004  0.9118800E+02  0.7818608E-02  0.1130116E+00
         25   -1    0    0    0    0  0.00000000000E+00  0.00000000000E+00  0.99999998245E-14  0.12500000000E+03  0.12500000000E+03 0.  0.
        -13    1    3    3    0    0  0.14878341011E+02  0.15894655631E+02 -0.27903930348E+02  0.35392733743E+02  0.10566000000E+00 0. -1.
         23    2    1    0    0    0  0.78749447281E+01 -0.16291661517E+02  0.22821713832E+02  0.95875034563E+02  0.91344176831E+02 0.  0.
         13    1    3    3    0    0 -0.70033962827E+01 -0.32186317148E+02  0.50725644180E+02  0.60482300821E+02  0.10566000000E+00 0.  1.
         22    1    1    0    0    0 -0.78749447281E+01  0.16291661517E+02 -0.22821713832E+02  0.29124965437E+02  0.00000000000E+00 0.  1.
</event>
<event>
 5    1  0.1285375E-004  0.9118800E+02  0.7818608E-02  0.1130116E+00
         25   -1    0    0    0    0  0.00000000000E+00  0.00000000000E+00  0.99999998245E-14  0.12500000000E+03  0.12500000000E+03 0.  0.
        -13    1    3    3    0    0 -0.15114148567E+02 -0.12757616766E+02  0.51016794501E+02  0.54716713696E+02  0.10566000000E+00 0. -1.
         23    2    1    0    0    0 -0.24279158049E+02  0.19814360511E+01  0.11126579836E+02  0.98219328178E+02  0.94497788570E+02 0.  0.
         13    1    3    3    0    0 -0.91650094815E+01  0.14739052818E+02 -0.39890214665E+02  0.43502614482E+02  0.10566000000E+00 0.  1.
         22    1    1    0    0    0  0.24279158049E+02 -0.19814360511E+01 -0.11126579836E+02  0.26780671822E+02  0.00000000000E+00 0. -1.
</event>
<event>
 5    1  0.1285375E-004  0.9118800E+02  0.7818608E-02  0.1130116E+00
         25   -1    0    0    0    0  0.00000000000E+00  0.00000000000E+00  0.99999998245E-14  0.12500000000E+03  0.12500000000E+03 0.  0.
        -13    1    3    3    0    0 -0.46177932253E+02 -0.34088740098E+02 -0.13652525772E+02  0.58998697042E+02  0.10566000000E+00 0.  1.
         23    2    1    0    0    0 -0.21801243087E+02 -0.65092269795E+01 -0.17898720463E+02  0.96051279299E+02  0.91585041490E+02 0.  0.
         13    1    3    3    0    0  0.24376689166E+02  0.27579513119E+02 -0.42461946913E+01  0.37052582257E+02  0.10566000000E+00 0. -1.
         22    1    1    0    0    0  0.21801243087E+02  0.65092269795E+01  0.17898720463E+02  0.28948720701E+02  0.00000000000E+00 0.  1.
</event>
<event>
 5    1  0.1285375E-004  0.9118800E+02  0.7818608E-02  0.1130116E+00
         25   -1    0    0    0    0  0.00000000000E+00  0.00000000000E+00  0.99999998245E-14  0.12500000000E+03  0.12500000000E+03 0.  0.
        -13    1    3    3    0    0 -0.23376498941E+02 -0.24120446636E+02  0.26109476556E+02  0.42543772503E+02  0.10566000000E+00 0. -1.
         23    2    1    0    0    0 -0.18988249287E+02  0.22637621600E+02  0.18696531252E+01  0.95394069420E+02  0.90683611281E+02 0.  0.
         13    1    3    3    0    0  0.43882496539E+01  0.46758068237E+02 -0.24239823431E+02  0.52850296917E+02  0.10566000000E+00 0.  1.
         22    1    1    0    0    0  0.18988249287E+02 -0.22637621600E+02 -0.18696531252E+01  0.29605930580E+02  0.00000000000E+00 0.  1.
</event>
<event>
 5    1  0.1285375E-004  0.9118800E+02  0.7818608E-02  0.1130116E+00
         25   -1    0    0    0    0  0.00000000000E+00  0.00000000000E+00  0.99999998245E-14  0.12500000000E+03  0.12500000000E+03 0.  0.
        -13    1    3    3    0    0  0.30109297630E+01  0.26928836473E+02  0.11781728777E+02  0.29547389543E+02  0.10566000000E+00 0.  1.
         23    2    1    0    0    0  0.19467431098E+01 -0.33304389530E+02  0.11251670701E+02  0.89792440240E+02  0.82602118980E+02 0.  0.
         13    1    3    3    0    0 -0.10641866532E+01 -0.60233226002E+02 -0.53005807616E+00  0.60245050697E+02  0.10566000000E+00 0. -1.
         22    1    1    0    0    0 -0.19467431098E+01  0.33304389530E+02 -0.11251670701E+02  0.35207559760E+02  0.00000000000E+00 0. -1.
</event>
<event>
 5    1  0.1285375E-004  0.9118800E+02  0.7818608E-02  0.1130116E+00
         25   -1    0    0    0    0  0.00000000000E+00  0.00000000000E+00  0.99999998245E-14  0.12500000000E+03  0.12500000000E+03 0.  0.
        -13    1    3    3    0    0 -0.39186044939E+02  0.12926336112E+02  0.44048638558E+00  0.41265499822E+02  0.10566000000E+00 0.  1.
         23    2    1    0    0    0  0.33388932484E+01 -0.21344804096E+02  0.16070651560E+02  0.98073902778E+02  0.94305226232E+02 0.  0.
         13    1    3    3    0    0  0.42524938188E+02 -0.34271140208E+02  0.15630165174E+02  0.56808402956E+02  0.10566000000E+00 0. -1.
         22    1    1    0    0    0 -0.33388932484E+01  0.21344804096E+02 -0.16070651560E+02  0.26926097222E+02  0.00000000000E+00 0. -1.
</event>
<event>
 5    1  0.1285375E-004  0.9118800E+02  0.7818608E-02  0.1130116E+00
         25   -1    0    0    0    0  0.00000000000E+00  0.00000000000E+00  0.99999998245E-14  0.12500000000E+03  0.12500000000E+03 0.  0.
        -13    1    3    3    0    0 -0.39498936806E-01  0.54224618125E+02  0.27847388137E+02  0.60957353626E+02  0.10566000000E+00 0. -1.
         23    2    1    0    0    0  0.95593858207E+01  0.24757754288E+02  0.10619626327E+02  0.96414956394E+02  0.92080068953E+02 0.  0.
         13    1    3    3    0    0  0.95988847575E+01 -0.29466863837E+02 -0.17227761810E+02  0.35457602767E+02  0.10566000000E+00 0.  1.
         22    1    1    0    0    0 -0.95593858207E+01 -0.24757754288E+02 -0.10619626327E+02  0.28585043606E+02  0.00000000000E+00 0. -1.
</event>
<event>
 5    1  0.1285375E-004  0.9118800E+02  0.7818608E-02  0.1130116E+00
         25   -1    0    0    0    0  0.00000000000E+00  0.00000000000E+00  0.99999998245E-14  0.12500000000E+03  0.12500000000E+03 0.  0.
        -13    1    3    3    0    0  0.33610091048E+02 -0.54695309834E+01  0.12420210181E+02  0.36246748467E+02  0.10566000000E+00 0. -1.
         23    2    1    0    0    0 -0.20966240047E+02 -0.14381300852E+02 -0.12224818633E+02  0.96789164732E+02  0.92586668495E+02 0.  0.
         13    1    3    3    0    0 -0.54576331095E+02 -0.89117698686E+01 -0.24645028814E+02  0.60542416265E+02  0.10566000000E+00 0.  1.
         22    1    1    0    0    0  0.20966240047E+02  0.14381300852E+02  0.12224818633E+02  0.28210835268E+02  0.00000000000E+00 0.  1.
</event>
<event>
 5    1  0.1285375E-004  0.9118800E+02  0.7818608E-02  0.1130116E+00
         25   -1    0    0    0    0  0.00000000000E+00  0.00000000000E+00  0.99999998245E-14  0.12500000000E+03  0.12500000000E+03 0.  0.
        -13    1    3    3    0    0  0.12426052641E+01 -0.22498715513E+02  0.24415828225E+02  0.33224691112E+02  0.10566000000E+00 0.  1.
         23    2    1    0    0    0  0.41864851964E+00  0.29168544488E+02 -0.86507062488E+01  0.94572808662E+02  0.89544414485E+02 0.  0.
         13    1    3    3    0    0 -0.82395674442E+00  0.51667260001E+02 -0.33066534474E+02  0.61348117549E+02  0.10566000000E+00 0. -1.
         22    1    1    0    0    0 -0.41864851964E+00 -0.29168544488E+02  0.86507062488E+01  0.30427191338E+02  0.00000000000E+00 0. -1.
</event>
<event>
 5    1  0.1285375E-004  0.9118800E+02  0.7818608E-02  0.1130116E+00
         25   -1    0    0    0    0  0.00000000000E+00  0.00000000000E+00  0.99999998245E-14  0.12500000000E+03  0.12500000000E+03 0.  0.
        -13    1    3    3    0    0 -0.25884908485E+02 -0.35221828656E+02  0.43681736886E+01  0.43928325789E+02  0.10566000000E+00 0.  1.
         23    2    1    0    0    0  0.55865407669E-02  0.19760504645E+02 -0.24727929167E+01  0.10508537523E+03  0.10318112137E+03 0.  0.
         13    1    3    3    0    0  0.25890495026E+02  0.54982333301E+02 -0.68409666053E+01  0.61157049439E+02  0.10566000000E+00 0. -1.
         22    1    1    0    0    0 -0.55865407669E-02 -0.19760504645E+02  0.24727929167E+01  0.19914624773E+02  0.00000000000E+00 0. -1.
</event>
<event>
 5    1  0.1285375E-004  0.9118800E+02  0.7818608E-02  0.1130116E+00
         25   -1    0    0    0    0  0.00000000000E+00  0.00000000000E+00  0.99999998245E-14  0.12500000000E+03  0.12500000000E+03 0.  0.
        -13    1    3    3    0    0  0.42335098070E+01 -0.34061048855E+02 -0.14396684681E+02  0.37220335144E+02  0.10566000000E+00 0. -1.
         23    2    1    0    0    0  0.58851661449E+01  0.24495957613E+02 -0.14759568853E+02  0.95801849499E+02  0.91243971718E+02 0.  0.
         13    1    3    3    0    0  0.16516563379E+01  0.58557006468E+02 -0.36288417206E+00  0.58581514355E+02  0.10566000000E+00 0.  1.
         22    1    1    0    0    0 -0.58851661449E+01 -0.24495957613E+02  0.14759568853E+02  0.29198150501E+02  0.00000000000E+00 0.  1.
</event>
<event>
 5    1  0.1285375E-004  0.9118800E+02  0.7818608E-02  0.1130116E+00
         25   -1    0    0    0    0  0.00000000000E+00  0.00000000000E+00  0.99999998245E-14  0.12500000000E+03  0.12500000000E+03 0.  0.
        -13    1    3    3    0    0  0.34647444996E+02 -0.33720247446E+01  0.42788754171E+02  0.55160716485E+02  0.10566000000E+00 0.  1.
         23    2    1    0    0    0 -0.33505434671E+01  0.88977300586E+00  0.28978812197E+02  0.95814568807E+02  0.91261394915E+02 0.  0.
         13    1    3    3    0    0 -0.37997988463E+02  0.42617977505E+01 -0.13809941973E+02  0.40653852322E+02  0.10566000000E+00 0. -1.
         22    1    1    0    0    0  0.33505434671E+01 -0.88977300586E+00 -0.28978812197E+02  0.29185431193E+02  0.00000000000E+00 0.  1.
</event>
<event>
 5    1  0.1285375E-004  0.9118800E+02  0.7818608E-02  0.1130116E+00
         25   -1    0    0    0    0  0.00000000000E+00  0.00000000000E+00  0.99999998245E-14  0.12500000000E+03  0.12500000000E+03 0.  0.
        -13    1    3    3    0    0  0.21902000255E+02  0.46888134480E+02  0.17208096314E+02  0.54537368042E+02  0.10566000000E+00 0.  1.
         23    2    1    0    0    0 -0.97627492873E+01  0.28127058165E+02 -0.14006193771E+00  0.95226483378E+02  0.90452312544E+02 0.  0.
         13    1    3    3    0    0 -0.31664749542E+02 -0.18761076315E+02 -0.17348158252E+02  0.40689115336E+02  0.10566000000E+00 0. -1.
         22    1    1    0    0    0  0.97627492873E+01 -0.28127058165E+02  0.14006193771E+00  0.29773516622E+02  0.00000000000E+00 0.  1.
</event>
<event>
 5    1  0.1285375E-004  0.9118800E+02  0.7818608E-02  0.1130116E+00
         25   -1    0    0    0    0  0.00000000000E+00  0.00000000000E+00  0.99999998245E-14  0.12500000000E+03  0.12500000000E+03 0.  0.
        -13    1    3    3    0    0  0.67518262358E+01  0.26539429161E+02  0.48301729283E+02  0.55524739292E+02  0.10566000000E+00 0.  1.
         23    2    1    0    0    0 -0.15121552892E+02  0.19290481462E+01  0.24468443438E+02  0.96171415003E+02  0.91748862395E+02 0.  0.
         13    1    3    3    0    0 -0.21873379128E+02 -0.24610381015E+02 -0.23833285845E+02  0.40646675711E+02  0.10566000000E+00 0. -1.
         22    1    1    0    0    0  0.15121552892E+02 -0.19290481462E+01 -0.24468443438E+02  0.28828584997E+02  0.00000000000E+00 0.  1.
</event>
<event>
 5    1  0.1285375E-004  0.9118800E+02  0.7818608E-02  0.1130116E+00
         25   -1    0    0    0    0  0.00000000000E+00  0.00000000000E+00  0.99999998245E-14  0.12500000000E+03  0.12500000000E+03 0.  0.
        -13    1    3    3    0    0  0.20893410680E+02  0.33279171898E+02  0.21915743404E+02  0.44992764586E+02  0.10566000000E+00 0.  1.
         23    2    1    0    0    0 -0.24097743705E+02  0.14951357369E+02  0.75651512204E+01  0.95649091124E+02  0.91034459306E+02 0.  0.
         13    1    3    3    0    0 -0.44991154385E+02 -0.18327814529E+02 -0.14350592184E+02  0.50656326539E+02  0.10566000000E+00 0. -1.
         22    1    1    0    0    0  0.24097743705E+02 -0.14951357369E+02 -0.75651512204E+01  0.29350908876E+02  0.00000000000E+00 0. -1.
</event>
<event>
 5    1  0.1285375E-004  0.9118800E+02  0.7818608E-02  0.1130116E+00
         25   -1    0    0    0    0  0.00000000000E+00  0.00000000000E+00  0.99999998245E-14  0.12500000000E+03  0.12500000000E+03 0.  0.
        -13    1    3    3    0    0 -0.60659449371E+01  0.54885585329E+02  0.26138507832E+02  0.61093828826E+02  0.10566000000E+00 0.  1.
         23    2    1    0    0    0  0.57600262628E+01  0.27047200453E+02  0.86857762097E+01  0.96014285186E+02  0.91534536086E+02 0.  0.
         13    1    3    3    0    0  0.11825971200E+02 -0.27838384875E+02 -0.17452731622E+02  0.34920456360E+02  0.10566000000E+00 0. -1.
         22    1    1    0    0    0 -0.57600262628E+01 -0.27047200453E+02 -0.86857762097E+01  0.28985714814E+02  0.00000000000E+00 0.  1.
</event>
<event>
 5    1  0.1285375E-004  0.9118800E+02  0.7818608E-02  0.1130116E+00
         25   -1    0    0    0    0  0.00000000000E+00  0.00000000000E+00  0.99999998245E-14  0.12500000000E+03  0.12500000000E+03 0.  0.
        -13    1    3    3    0    0  0.24577322406E+02  0.19773321457E+02 -0.25547101635E+02  0.40591804396E+02  0.10566000000E+00 0.  1.
         23    2    1    0    0    0 -0.56237126410E+01  0.18211078559E+02  0.21341269021E+02  0.96386728786E+02  0.92041741598E+02 0.  0.
         13    1    3    3    0    0 -0.30201035047E+02 -0.15622428980E+01  0.46888370657E+02  0.55794924390E+02  0.10566000000E+00 0. -1.
         22    1    1    0    0    0  0.56237126410E+01 -0.18211078559E+02 -0.21341269021E+02  0.28613271214E+02  0.00000000000E+00 0. -1.
</event>
<event>
 5    1  0.1285375E-004  0.9118800E+02  0.7818608E-02  0.1130116E+00
         25   -1    0    0    0    0  0.00000000000E+00  0.00000000000E+00  0.99999998245E-14  0.12500000000E+03  0.12500000000E+03 0.  0.
        -13    1    3    3    0    0 -0.36498384454E+01 -0.32600230413E+02  0.37781518581E+02  0.50035493942E+02  0.10566000000E+00 0.  1.
         23    2    1    0    0    0  0.11977341428E+02  0.98289018307E+01  0.22335522396E+02  0.97816556885E+02  0.93963499409E+02 0.  0.
         13    1    3    3    0    0  0.15627179874E+02  0.42429132244E+02 -0.15445996185E+02  0.47781062943E+02  0.10566000000E+00 0. -1.
         22    1    1    0    0    0 -0.11977341428E+02 -0.98289018307E+01 -0.22335522396E+02  0.27183443115E+02  0.00000000000E+00 0.  1.
</event>
<event>
 5    1  0.1285375E-004  0.9118800E+02  0.7818608E-02  0.1130116E+00
         25   -1    0    0    0    0  0.00000000000E+00  0.00000000000E+00  0.99999998245E-14  0.12500000000E+03  0.12500000000E+03 0.  0.
        -13    1    3    3    0    0 -0.31944050987E+02 -0.32076286844E+02 -0.18147965320E+02  0.48771614495E+02  0.10566000000E+00 0.  1.
         23    2    1    0    0    0 -0.43757315044E+01 -0.22966897805E+02  0.18256469148E+02  0.95336485597E+02  0.90604201885E+02 0.  0.
         13    1    3    3    0    0  0.27568319482E+02  0.91093890391E+01  0.36404434468E+02  0.46564871102E+02  0.10566000000E+00 0. -1.
         22    1    1    0    0    0  0.43757315044E+01  0.22966897805E+02 -0.18256469148E+02  0.29663514403E+02  0.00000000000E+00 0.  1.
</event>
<event>
 5    1  0.1285375E-004  0.9118800E+02  0.7818608E-02  0.1130116E+00
         25   -1    0    0    0    0  0.00000000000E+00  0.00000000000E+00  0.99999998245E-14  0.12500000000E+03  0.12500000000E+03 0.  0.
        -13    1    3    3    0    0 -0.53963268386E+02  0.18781219379E+02 -0.80887154530E+01  0.57707945882E+02  0.10566000000E+00 0.  1.
         23    2    1    0    0    0 -0.28340099185E+02 -0.82433901477E+01 -0.48508562338E+01  0.95089374645E+02  0.90262637128E+02 0.  0.
         13    1    3    3    0    0  0.25623169201E+02 -0.27024609526E+02  0.32378592193E+01  0.37381428763E+02  0.10566000000E+00 0. -1.
         22    1    1    0    0    0  0.28340099185E+02  0.82433901477E+01  0.48508562338E+01  0.29910625355E+02  0.00000000000E+00 0.  1.
</event>
<event>
 5    1  0.1285375E-004  0.9118800E+02  0.7818608E-02  0.1130116E+00
         25   -1    0    0    0    0  0.00000000000E+00  0.00000000000E+00  0.99999998245E-14  0.12500000000E+03  0.12500000000E+03 0.  0.
        -13    1    3    3    0    0 -0.29211693639E+02 -0.17436039219E+02  0.49538261725E+02  0.60094833785E+02  0.10566000000E+00 0. -1.
         23    2    1    0    0    0 -0.79672113850E+01  0.17426590686E+01  0.27780685858E+02  0.96046937561E+02  0.91579115470E+02 0.  0.
         13    1    3    3    0    0  0.21244482254E+02  0.19178698288E+02 -0.21757575868E+02  0.35952103776E+02  0.10566000000E+00 0.  1.
         22    1    1    0    0    0  0.79672113850E+01 -0.17426590686E+01 -0.27780685858E+02  0.28953062439E+02  0.00000000000E+00 0. -1.
</event>
<event>
 5    1  0.1285375E-004  0.9118800E+02  0.7818608E-02  0.1130116E+00
         25   -1    0    0    0    0  0.00000000000E+00  0.00000000000E+00  0.99999998245E-14  0.12500000000E+03  0.12500000000E+03 0.  0.
        -13    1    3    3    0    0 -0.41406888076E+02  0.41028997818E+02 -0.13033976505E+02  0.59731103704E+02  0.10566000000E+00 0. -1.
         23    2    1    0    0    0 -0.22470290967E+02  0.10276297035E+02 -0.15334230775E+02  0.95919854018E+02  0.91405489466E+02 0.  0.
         13    1    3    3    0    0  0.18936597109E+02 -0.30752700784E+02 -0.23002542702E+01  0.36188750314E+02  0.10566000000E+00 0.  1.
         22    1    1    0    0    0  0.22470290967E+02 -0.10276297035E+02  0.15334230775E+02  0.29080145982E+02  0.00000000000E+00 0. -1.
</event>
<event>
 5    1  0.1285375E-004  0.9118800E+02  0.7818608E-02  0.1130116E+00
         25   -1    0    0    0    0  0.00000000000E+00  0.00000000000E+00  0.99999998245E-14  0.12500000000E+03  0.12500000000E+03 0.  0.
        -13    1    3    3    0    0  0.43202818507E+02 -0.19471985004E+02  0.12393797943E+02  0.48982232681E+02  0.10566000000E+00 0. -1.
         23    2    1    0    0    0  0.21652962271E+02  0.73941749885E+01 -0.18751306469E+02  0.95417300780E+02  0.90715628173E+02 0.  0.
         13    1    3    3    0    0 -0.21549856235E+02  0.26866159993E+02 -0.31145104411E+02  0.46435068099E+02  0.10566000000E+00 0.  1.
         22    1    1    0    0    0 -0.21652962271E+02 -0.73941749885E+01  0.18751306469E+02  0.29582699220E+02  0.00000000000E+00 0. -1.
</event>
<event>
 5    1  0.1285375E-004  0.9118800E+02  0.7818608E-02  0.1130116E+00
         25   -1    0    0    0    0  0.00000000000E+00  0.00000000000E+00  0.99999998245E-14  0.12500000000E+03  0.12500000000E+03 0.  0.
        -13    1    3    3    0    0  0.16046795418E+02  0.53863857978E+02 -0.68742620064E+01  0.56622270191E+02  0.10566000000E+00 0. -1.
         23    2    1    0    0    0 -0.12075167106E+02  0.24229552634E+02 -0.46061385888E+01  0.97539166178E+02  0.93593758043E+02 0.  0.
         13    1    3    3    0    0 -0.28121962523E+02 -0.29634305343E+02  0.22681234176E+01  0.40916895987E+02  0.10566000000E+00 0.  1.
         22    1    1    0    0    0  0.12075167106E+02 -0.24229552634E+02  0.46061385888E+01  0.27460833822E+02  0.00000000000E+00 0.  1.
</event>
<event>
 5    1  0.1285375E-004  0.9118800E+02  0.7818608E-02  0.1130116E+00
         25   -1    0    0    0    0  0.00000000000E+00  0.00000000000E+00  0.99999998245E-14  0.12500000000E+03  0.12500000000E+03 0.  0.
        -13    1    3    3    0    0 -0.48064158355E+01 -0.28309463458E+02  0.17422911364E+02  0.33587145739E+02  0.10566000000E+00 0. -1.
         23    2    1    0    0    0  0.14337797884E+02  0.16466008706E+02 -0.20301359988E+02  0.95186460991E+02  0.90396986940E+02 0.  0.
         13    1    3    3    0    0  0.19144213719E+02  0.44775472164E+02 -0.37724271352E+02  0.61599315252E+02  0.10566000000E+00 0.  1.
         22    1    1    0    0    0 -0.14337797884E+02 -0.16466008706E+02  0.20301359988E+02  0.29813539009E+02  0.00000000000E+00 0.  1.
</event>
<event>
 5    1  0.1285375E-004  0.9118800E+02  0.7818608E-02  0.1130116E+00
         25   -1    0    0    0    0  0.00000000000E+00  0.00000000000E+00  0.99999998245E-14  0.12500000000E+03  0.12500000000E+03 0.  0.
        -13    1    3    3    0    0 -0.12164368356E+02 -0.44923189505E+02  0.16329801530E+01  0.46569760586E+02  0.10566000000E+00 0.  1.
         23    2    1    0    0    0  0.25187355044E+02 -0.15954973607E+02 -0.63715218004E+01  0.94511308212E+02  0.89458521411E+02 0.  0.
         13    1    3    3    0    0  0.37351723399E+02  0.28968215898E+02 -0.80045019534E+01  0.47941547626E+02  0.10566000000E+00 0. -1.
         22    1    1    0    0    0 -0.25187355044E+02  0.15954973607E+02  0.63715218004E+01  0.30488691788E+02  0.00000000000E+00 0. -1.
</event>
<event>
 5    1  0.1285375E-004  0.9118800E+02  0.7818608E-02  0.1130116E+00
         25   -1    0    0    0    0  0.00000000000E+00  0.00000000000E+00  0.99999998245E-14  0.12500000000E+03  0.12500000000E+03 0.  0.
        -13    1    3    3    0    0  0.11369875176E+02 -0.14290626981E+02  0.42634657851E+02  0.46381260172E+02  0.10566000000E+00 0.  1.
         23    2    1    0    0    0 -0.17588643166E+02  0.16184142478E+02  0.17687446396E+02  0.95265632743E+02  0.90506398590E+02 0.  0.
         13    1    3    3    0    0 -0.28958518342E+02  0.30474769460E+02 -0.24947211455E+02  0.48884372571E+02  0.10566000000E+00 0. -1.
         22    1    1    0    0    0  0.17588643166E+02 -0.16184142478E+02 -0.17687446396E+02  0.29734367257E+02  0.00000000000E+00 0. -1.
</event>
<event>
 5    1  0.1285375E-004  0.9118800E+02  0.7818608E-02  0.1130116E+00
         25   -1    0    0    0    0  0.00000000000E+00  0.00000000000E+00  0.99999998245E-14  0.12500000000E+03  0.12500000000E+03 0.  0.
        -13    1    3    3    0    0  0.48887643606E+01  0.59831911122E+02  0.66702966576E+01  0.60400841277E+02  0.10566000000E+00 0.  1.
         23    2    1    0    0    0 -0.70833021919E+01  0.28785992668E+02 -0.33881027103E+01  0.95162342857E+02  0.90363630484E+02 0.  0.
         13    1    3    3    0    0 -0.11972066553E+02 -0.31045918454E+02 -0.10058399368E+02  0.34761501580E+02  0.10566000000E+00 0. -1.
         22    1    1    0    0    0  0.70833021919E+01 -0.28785992668E+02  0.33881027103E+01  0.29837657143E+02  0.00000000000E+00 0.  1.
</event>
<event>
 5    1  0.1285375E-004  0.9118800E+02  0.7818608E-02  0.1130116E+00
         25   -1    0    0    0    0  0.00000000000E+00  0.00000000000E+00  0.99999998245E-14  0.12500000000E+03  0.12500000000E+03 0.  0.
        -13    1    3    3    0    0  0.14354560346E+02 -0.11095537996E+02 -0.43292365301E+02  0.46940434846E+02  0.10566000000E+00 0. -1.
         23    2    1    0    0    0 -0.19884257701E+02 -0.39906228451E+01  0.25089673173E+01  0.10456464603E+03  0.10254833742E+03 0.  0.
         13    1    3    3    0    0 -0.34238818047E+02  0.71049151508E+01  0.45801332618E+02  0.57624211181E+02  0.10566000000E+00 0.  1.
         22    1    1    0    0    0  0.19884257701E+02  0.39906228451E+01 -0.25089673173E+01  0.20435353974E+02  0.00000000000E+00 0.  1.
</event>
<event>
 5    1  0.1285375E-004  0.9118800E+02  0.7818608E-02  0.1130116E+00
         25   -1    0    0    0    0  0.00000000000E+00  0.00000000000E+00  0.99999998245E-14  0.12500000000E+03  0.12500000000E+03 0.  0.
        -13    1    3    3    0    0  0.92809015339E+01 -0.32092306094E+02  0.38536741810E+02  0.51001400736E+02  0.10566000000E+00 0. -1.
         23    2    1    0    0    0 -0.17155017305E+02 -0.21719216529E+02  0.20361630492E+01  0.97248154200E+02  0.93204283968E+02 0.  0.
         13    1    3    3    0    0 -0.26435918839E+02  0.10373089565E+02 -0.36500578761E+02  0.46246753463E+02  0.10566000000E+00 0.  1.
         22    1    1    0    0    0  0.17155017305E+02  0.21719216529E+02 -0.20361630492E+01  0.27751845800E+02  0.00000000000E+00 0.  1.
</event>
<event>
 5    1  0.1285375E-004  0.9118800E+02  0.7818608E-02  0.1130116E+00
         25   -1    0    0    0    0  0.00000000000E+00  0.00000000000E+00  0.99999998245E-14  0.12500000000E+03  0.12500000000E+03 0.  0.
        -13    1    3    3    0    0  0.51519135402E+02  0.18539513215E+02  0.11486152047E+02  0.55945310042E+02  0.10566000000E+00 0. -1.
         23    2    1    0    0    0  0.27222109539E+02 -0.10456679088E+02 -0.11097806723E+01  0.95817522408E+02  0.91265440348E+02 0.  0.
         13    1    3    3    0    0 -0.24297025863E+02 -0.28996192302E+02 -0.12595932720E+02  0.39872212366E+02  0.10566000000E+00 0.  1.
         22    1    1    0    0    0 -0.27222109539E+02  0.10456679088E+02  0.11097806723E+01  0.29182477592E+02  0.00000000000E+00 0. -1.
</event>
<event>
 5    1  0.1285375E-004  0.9118800E+02  0.7818608E-02  0.1130116E+00
         25   -1    0    0    0    0  0.00000000000E+00  0.00000000000E+00  0.99999998245E-14  0.12500000000E+03  0.12500000000E+03 0.  0.
        -13    1    3    3    0    0  0.51496958126E+02 -0.27924290902E+02 -0.21487394555E+02  0.62397291667E+02  0.10566000000E+00 0. -1.
         23    2    1    0    0    0  0.22544251415E+02 -0.10110193522E+02 -0.72676349596E+01  0.99245819702E+02  0.95845995877E+02 0.  0.
         13    1    3    3    0    0 -0.28952706711E+02  0.17814097380E+02  0.14219759595E+02  0.36848528035E+02  0.10566000000E+00 0.  1.
         22    1    1    0    0    0 -0.22544251415E+02  0.10110193522E+02  0.72676349596E+01  0.25754180298E+02  0.00000000000E+00 0. -1.
</event>
<event>
 5    1  0.1285375E-004  0.9118800E+02  0.7818608E-02  0.1130116E+00
         25   -1    0    0    0    0  0.00000000000E+00  0.00000000000E+00  0.99999998245E-14  0.12500000000E+03  0.12500000000E+03 0.  0.
        -13    1    3    3    0    0 -0.36879378455E+01 -0.68477224348E+01 -0.60110617941E+02  0.60611795398E+02  0.10566000000E+00 0.  1.
         23    2    1    0    0    0 -0.36149051975E+01  0.69712538427E+01 -0.33442209308E+02  0.90648183700E+02  0.83887102256E+02 0.  0.
         13    1    3    3    0    0  0.73032648072E-01  0.13818976278E+02  0.26668408633E+02  0.30036388301E+02  0.10566000000E+00 0. -1.
         22    1    1    0    0    0  0.36149051975E+01 -0.69712538427E+01  0.33442209308E+02  0.34351816300E+02  0.00000000000E+00 0.  1.
</event>
<event>
 5    1  0.1285375E-004  0.9118800E+02  0.7818608E-02  0.1130116E+00
         25   -1    0    0    0    0  0.00000000000E+00  0.00000000000E+00  0.99999998245E-14  0.12500000000E+03  0.12500000000E+03 0.  0.
        -13    1    3    3    0    0  0.14028740978E+02 -0.15271075165E+02  0.48865143850E+02  0.53083187147E+02  0.10566000000E+00 0.  1.
         23    2    1    0    0    0 -0.10730505615E+02 -0.23071285321E+02  0.16083486820E+02  0.94898396963E+02  0.89997773532E+02 0.  0.
         13    1    3    3    0    0 -0.24759246593E+02 -0.78002101556E+01 -0.32781657030E+02  0.41815209816E+02  0.10566000000E+00 0. -1.
         22    1    1    0    0    0  0.10730505615E+02  0.23071285321E+02 -0.16083486820E+02  0.30101603037E+02  0.00000000000E+00 0. -1.
</event>
<event>
 5    1  0.1285375E-004  0.9118800E+02  0.7818608E-02  0.1130116E+00
         25   -1    0    0    0    0  0.00000000000E+00  0.00000000000E+00  0.99999998245E-14  0.12500000000E+03  0.12500000000E+03 0.  0.
        -13    1    3    3    0    0  0.31489391029E+02  0.96294915451E+01 -0.11695322849E+02  0.34944249818E+02  0.10566000000E+00 0. -1.
         23    2    1    0    0    0 -0.17288834234E+02 -0.56030452466E+01  0.22233532980E+02  0.96283665032E+02  0.91901666242E+02 0.  0.
         13    1    3    3    0    0 -0.48778225263E+02 -0.15232536792E+02  0.33928855829E+02  0.61339415214E+02  0.10566000000E+00 0.  1.
         22    1    1    0    0    0  0.17288834234E+02  0.56030452466E+01 -0.22233532980E+02  0.28716334968E+02  0.00000000000E+00 0.  1.
</event>
<event>
 5    1  0.1285375E-004  0.9118800E+02  0.7818608E-02  0.1130116E+00
         25   -1    0    0    0    0  0.00000000000E+00  0.00000000000E+00  0.99999998245E-14  0.12500000000E+03  0.12500000000E+03 0.  0.
        -13    1    3    3    0    0 -0.15814012000E+02 -0.52633484199E+01 -0.34084219715E+02  0.37941151929E+02  0.10566000000E+00 0. -1.
         23    2    1    0    0    0  0.61700565909E+01 -0.27985165111E+02  0.12085494553E+02  0.93898581331E+02  0.88598224207E+02 0.  0.
         13    1    3    3    0    0  0.21984068591E+02 -0.22721816692E+02  0.46169714268E+02  0.55957429401E+02  0.10566000000E+00 0.  1.
         22    1    1    0    0    0 -0.61700565909E+01  0.27985165111E+02 -0.12085494553E+02  0.31101418669E+02  0.00000000000E+00 0.  1.
</event>
<event>
 5    1  0.1285375E-004  0.9118800E+02  0.7818608E-02  0.1130116E+00
         25   -1    0    0    0    0  0.00000000000E+00  0.00000000000E+00  0.99999998245E-14  0.12500000000E+03  0.12500000000E+03 0.  0.
        -13    1    3    3    0    0  0.37779254594E+02 -0.39632077911E+02 -0.23022509638E+02  0.59397144640E+02  0.10566000000E+00 0. -1.
         23    2    1    0    0    0  0.62596322370E+01 -0.19098239455E+02 -0.19192844323E+02  0.97209875509E+02  0.93152932736E+02 0.  0.
         13    1    3    3    0    0 -0.31519622357E+02  0.20533838457E+02  0.38296653152E+01  0.37812730869E+02  0.10566000000E+00 0.  1.
         22    1    1    0    0    0 -0.62596322370E+01  0.19098239455E+02  0.19192844323E+02  0.27790124491E+02  0.00000000000E+00 0. -1.
</event>
<event>
 5    1  0.1285375E-004  0.9118800E+02  0.7818608E-02  0.1130116E+00
         25   -1    0    0    0    0  0.00000000000E+00  0.00000000000E+00  0.99999998245E-14  0.12500000000E+03  0.12500000000E+03 0.  0.
        -13    1    3    3    0    0  0.56232532660E+02  0.96604493606E+01  0.19426582933E+01  0.57089465722E+02  0.10566000000E+00 0. -1.
         23    2    1    0    0    0  0.21768777229E+02  0.20556522521E+02 -0.68429006398E+01  0.94287208375E+02  0.89144837730E+02 0.  0.
         13    1    3    3    0    0 -0.34463755430E+02  0.10896073160E+02 -0.87855589331E+01  0.37197742653E+02  0.10566000000E+00 0.  1.
         22    1    1    0    0    0 -0.21768777229E+02 -0.20556522521E+02  0.68429006398E+01  0.30712791625E+02  0.00000000000E+00 0. -1.
</event>
<event>
 5    1  0.1285375E-004  0.9118800E+02  0.7818608E-02  0.1130116E+00
         25   -1    0    0    0    0  0.00000000000E+00  0.00000000000E+00  0.99999998245E-14  0.12500000000E+03  0.12500000000E+03 0.  0.
        -13    1    3    3    0    0  0.17422389654E+02 -0.54971223073E+02  0.45659632525E+01  0.57846643912E+02  0.10566000000E+00 0.  1.
         23    2    1    0    0    0 -0.61387743413E+01 -0.25813549177E+02  0.11690849227E+02  0.96005175855E+02  0.91522095495E+02 0.  0.
         13    1    3    3    0    0 -0.23561163996E+02  0.29157673896E+02  0.71248859750E+01  0.38158531943E+02  0.10566000000E+00 0. -1.
         22    1    1    0    0    0  0.61387743413E+01  0.25813549177E+02 -0.11690849227E+02  0.28994824145E+02  0.00000000000E+00 0.  1.
</event>
<event>
 5    1  0.1285375E-004  0.9118800E+02  0.7818608E-02  0.1130116E+00
         25   -1    0    0    0    0  0.00000000000E+00  0.00000000000E+00  0.99999998245E-14  0.12500000000E+03  0.12500000000E+03 0.  0.
        -13    1    3    3    0    0  0.30085686687E+02 -0.11813389030E+02  0.41752897205E+02  0.52801707291E+02  0.10566000000E+00 0.  1.
         23    2    1    0    0    0 -0.73119745798E+01 -0.37689193070E+01  0.31554211107E+02  0.92391136733E+02  0.86445266980E+02 0.  0.
         13    1    3    3    0    0 -0.37397661267E+02  0.80444697230E+01 -0.10198686099E+02  0.39589429442E+02  0.10566000000E+00 0. -1.
         22    1    1    0    0    0  0.73119745798E+01  0.37689193070E+01 -0.31554211107E+02  0.32608863267E+02  0.00000000000E+00 0.  1.
</event>
<event>
 5    1  0.1285375E-004  0.9118800E+02  0.7818608E-02  0.1130116E+00
         25   -1    0    0    0    0  0.00000000000E+00  0.00000000000E+00  0.99999998245E-14  0.12500000000E+03  0.12500000000E+03 0.  0.
        -13    1    3    3    0    0 -0.59611041825E+02  0.34011702266E+01  0.14644430775E+02  0.61477758443E+02  0.10566000000E+00 0. -1.
         23    2    1    0    0    0 -0.25241202669E+02  0.81419887112E+01  0.10716687078E+02  0.96394796377E+02  0.92052697377E+02 0.  0.
         13    1    3    3    0    0  0.34369839156E+02  0.47408184846E+01 -0.39277436975E+01  0.34917037934E+02  0.10566000000E+00 0.  1.
         22    1    1    0    0    0  0.25241202669E+02 -0.81419887112E+01 -0.10716687078E+02  0.28605203623E+02  0.00000000000E+00 0. -1.
</event>
<event>
 5    1  0.1285375E-004  0.9118800E+02  0.7818608E-02  0.1130116E+00
         25   -1    0    0    0    0  0.00000000000E+00  0.00000000000E+00  0.99999998245E-14  0.12500000000E+03  0.12500000000E+03 0.  0.
        -13    1    3    3    0    0 -0.35480126638E+01  0.34928143137E+02 -0.13897073843E+02  0.37758487818E+02  0.10566000000E+00 0. -1.
         23    2    1    0    0    0 -0.18554945542E+02 -0.18944165932E+02  0.71893564570E+01  0.97525388571E+02  0.93575355424E+02 0.  0.
         13    1    3    3    0    0 -0.15006932878E+02 -0.53872309069E+02  0.21086430300E+02  0.59766900753E+02  0.10566000000E+00 0.  1.
         22    1    1    0    0    0  0.18554945542E+02  0.18944165932E+02 -0.71893564570E+01  0.27474611429E+02  0.00000000000E+00 0.  1.
</event>
<event>
 5    1  0.1285375E-004  0.9118800E+02  0.7818608E-02  0.1130116E+00
         25   -1    0    0    0    0  0.00000000000E+00  0.00000000000E+00  0.99999998245E-14  0.12500000000E+03  0.12500000000E+03 0.  0.
        -13    1    3    3    0    0 -0.24064371145E+02  0.32401950421E+02  0.44114380191E+02  0.59791889528E+02  0.10566000000E+00 0.  1.
         23    2    1    0    0    0 -0.14435929639E+02  0.39314211490E+01  0.26334760597E+02  0.94711854588E+02  0.89738306464E+02 0.  0.
         13    1    3    3    0    0  0.96284415062E+01 -0.28470529272E+02 -0.17779619594E+02  0.34919965060E+02  0.10566000000E+00 0. -1.
         22    1    1    0    0    0  0.14435929639E+02 -0.39314211490E+01 -0.26334760597E+02  0.30288145412E+02  0.00000000000E+00 0.  1.
</event>
<event>
 5    1  0.1285375E-004  0.9118800E+02  0.7818608E-02  0.1130116E+00
         25   -1    0    0    0    0  0.00000000000E+00  0.00000000000E+00  0.99999998245E-14  0.12500000000E+03  0.12500000000E+03 0.  0.
        -13    1    3    3    0    0 -0.13737919642E+02  0.48732885500E+02 -0.22818700509E+02  0.55536733990E+02  0.10566000000E+00 0.  1.
         23    2    1    0    0    0 -0.13406918780E+02  0.25145982683E+02  0.89726533591E+01  0.95124015923E+02  0.90310597278E+02 0.  0.
         13    1    3    3    0    0  0.33100086242E+00 -0.23586902817E+02  0.31791353868E+02  0.39587281934E+02  0.10566000000E+00 0. -1.
         22    1    1    0    0    0  0.13406918780E+02 -0.25145982683E+02 -0.89726533591E+01  0.29875984077E+02  0.00000000000E+00 0. -1.
</event>
<event>
 5    1  0.1285375E-004  0.9118800E+02  0.7818608E-02  0.1130116E+00
         25   -1    0    0    0    0  0.00000000000E+00  0.00000000000E+00  0.99999998245E-14  0.12500000000E+03  0.12500000000E+03 0.  0.
        -13    1    3    3    0    0  0.27855026034E+02  0.70725829484E+01  0.49683899690E+02  0.57397081436E+02  0.10566000000E+00 0.  1.
         23    2    1    0    0    0  0.16220114753E+02 -0.14048389686E+02  0.19741054413E+02  0.95842520604E+02  0.91299672239E+02 0.  0.
         13    1    3    3    0    0 -0.11634911281E+02 -0.21120972634E+02 -0.29942845277E+02  0.38445439168E+02  0.10566000000E+00 0. -1.
         22    1    1    0    0    0 -0.16220114753E+02  0.14048389686E+02 -0.19741054413E+02  0.29157479396E+02  0.00000000000E+00 0.  1.
</event>
<event>
 5    1  0.1285375E-004  0.9118800E+02  0.7818608E-02  0.1130116E+00
         25   -1    0    0    0    0  0.00000000000E+00  0.00000000000E+00  0.99999998245E-14  0.12500000000E+03  0.12500000000E+03 0.  0.
        -13    1    3    3    0    0  0.35631296488E+02  0.16833960802E+01 -0.20468678434E+02  0.41126646747E+02  0.10566000000E+00 0.  1.
         23    2    1    0    0    0  0.53787225263E+01  0.11203982985E+02  0.25301265005E+02  0.96811103221E+02  0.92616282614E+02 0.  0.
         13    1    3    3    0    0 -0.30252573962E+02  0.95205869049E+01  0.45769943439E+02  0.55684456474E+02  0.10566000000E+00 0. -1.
         22    1    1    0    0    0 -0.53787225263E+01 -0.11203982985E+02 -0.25301265005E+02  0.28188896779E+02  0.00000000000E+00 0. -1.
</event>
<event>
 5    1  0.1285375E-004  0.9118800E+02  0.7818608E-02  0.1130116E+00
         25   -1    0    0    0    0  0.00000000000E+00  0.00000000000E+00  0.99999998245E-14  0.12500000000E+03  0.12500000000E+03 0.  0.
        -13    1    3    3    0    0 -0.15323318458E+02  0.23334214677E+02 -0.47904443244E+02  0.55444896156E+02  0.10566000000E+00 0. -1.
         23    2    1    0    0    0  0.44936900553E+01 -0.60288672158E+01 -0.27850890841E+02  0.96151904554E+02  0.91722277221E+02 0.  0.
         13    1    3    3    0    0  0.19817008513E+02 -0.29363081893E+02  0.20053552404E+02  0.40707008398E+02  0.10566000000E+00 0.  1.
         22    1    1    0    0    0 -0.44936900553E+01  0.60288672158E+01  0.27850890841E+02  0.28848095446E+02  0.00000000000E+00 0. -1.
</event>
<event>
 5    1  0.1285375E-004  0.9118800E+02  0.7818608E-02  0.1130116E+00
         25   -1    0    0    0    0  0.00000000000E+00  0.00000000000E+00  0.99999998245E-14  0.12500000000E+03  0.12500000000E+03 0.  0.
        -13    1    3    3    0    0 -0.45294102910E+01 -0.34500159422E+02 -0.30771012773E+02  0.46450435400E+02  0.10566000000E+00 0. -1.
         23    2    1    0    0    0 -0.21773191660E+02  0.99301191009E+01 -0.15464443961E+02  0.96507401532E+02  0.92205479137E+02 0.  0.
         13    1    3    3    0    0 -0.17243781369E+02  0.44430278522E+02  0.15306568812E+02  0.50056966132E+02  0.10566000000E+00 0.  1.
         22    1    1    0    0    0  0.21773191660E+02 -0.99301191009E+01  0.15464443961E+02  0.28492598468E+02  0.00000000000E+00 0.  1.
</event>
<event>
 5    1  0.1285375E-004  0.9118800E+02  0.7818608E-02  0.1130116E+00
         25   -1    0    0    0    0  0.00000000000E+00  0.00000000000E+00  0.99999998245E-14  0.12500000000E+03  0.12500000000E+03 0.  0.
        -13    1    3    3    0    0  0.25783291766E+02  0.28935199920E+02  0.16683126468E+02  0.42194333760E+02  0.10566000000E+00 0.  1.
         23    2    1    0    0    0 -0.10891268740E+01  0.11704060612E+02 -0.26566516630E+02  0.95949164590E+02  0.91445563848E+02 0.  0.
         13    1    3    3    0    0 -0.26872418640E+02 -0.17231139308E+02 -0.43249643098E+02  0.53754830830E+02  0.10566000000E+00 0. -1.
         22    1    1    0    0    0  0.10891268740E+01 -0.11704060612E+02  0.26566516630E+02  0.29050835410E+02  0.00000000000E+00 0. -1.
</event>
<event>
 5    1  0.1285375E-004  0.9118800E+02  0.7818608E-02  0.1130116E+00
         25   -1    0    0    0    0  0.00000000000E+00  0.00000000000E+00  0.99999998245E-14  0.12500000000E+03  0.12500000000E+03 0.  0.
        -13    1    3    3    0    0 -0.36459765140E+02 -0.11951747681E+02  0.23948965708E+02  0.45229668020E+02  0.10566000000E+00 0.  1.
         23    2    1    0    0    0  0.10686775548E+02  0.13287634017E+02  0.19802367391E+02  0.98867603560E+02  0.95351459821E+02 0.  0.
         13    1    3    3    0    0  0.47146540688E+02  0.25239381699E+02 -0.41465983169E+01  0.53637935540E+02  0.10566000000E+00 0. -1.
         22    1    1    0    0    0 -0.10686775548E+02 -0.13287634017E+02 -0.19802367391E+02  0.26132396440E+02  0.00000000000E+00 0. -1.
</event>
<event>
 5    1  0.1285375E-004  0.9118800E+02  0.7818608E-02  0.1130116E+00
         25   -1    0    0    0    0  0.00000000000E+00  0.00000000000E+00  0.99999998245E-14  0.12500000000E+03  0.12500000000E+03 0.  0.
        -13    1    3    3    0    0  0.28274900952E+02 -0.13422875335E+02  0.35931499086E+02  0.47652149969E+02  0.10566000000E+00 0. -1.
         23    2    1    0    0    0  0.86240078271E+01 -0.27248031402E+02 -0.58289924468E+01  0.95831423085E+02  0.91284477165E+02 0.  0.
         13    1    3    3    0    0 -0.19650893125E+02 -0.13825156068E+02 -0.41760491532E+02  0.48179273116E+02  0.10566000000E+00 0.  1.
         22    1    1    0    0    0 -0.86240078271E+01  0.27248031402E+02  0.58289924468E+01  0.29168576915E+02  0.00000000000E+00 0.  1.
</event>
<event>
 5    1  0.1285375E-004  0.9118800E+02  0.7818608E-02  0.1130116E+00
         25   -1    0    0    0    0  0.00000000000E+00  0.00000000000E+00  0.99999998245E-14  0.12500000000E+03  0.12500000000E+03 0.  0.
        -13    1    3    3    0    0  0.16787546472E+02 -0.25283865001E+01  0.29231784232E+02  0.33804183591E+02  0.10566000000E+00 0.  1.
         23    2    1    0    0    0 -0.21654865691E+02  0.11323399748E+02 -0.16791961627E+02  0.95349998900E+02  0.90622843285E+02 0.  0.
         13    1    3    3    0    0 -0.38442412162E+02  0.13851786248E+02 -0.46023745859E+02  0.61545815309E+02  0.10566000000E+00 0. -1.
         22    1    1    0    0    0  0.21654865691E+02 -0.11323399748E+02  0.16791961627E+02  0.29650001100E+02  0.00000000000E+00 0. -1.
</event>
<event>
 5    1  0.1285375E-004  0.9118800E+02  0.7818608E-02  0.1130116E+00
         25   -1    0    0    0    0  0.00000000000E+00  0.00000000000E+00  0.99999998245E-14  0.12500000000E+03  0.12500000000E+03 0.  0.
        -13    1    3    3    0    0  0.36615335576E+02 -0.31092536456E+02 -0.17863389398E+02  0.51249785047E+02  0.10566000000E+00 0.  1.
         23    2    1    0    0    0  0.23252925846E+02  0.11367912225E+02 -0.13022113372E+02  0.96025814499E+02  0.91550279218E+02 0.  0.
         13    1    3    3    0    0 -0.13362409730E+02  0.42460448680E+02  0.48412760257E+01  0.44776029452E+02  0.10566000000E+00 0. -1.
         22    1    1    0    0    0 -0.23252925846E+02 -0.11367912225E+02  0.13022113372E+02  0.28974185501E+02  0.00000000000E+00 0.  1.
</event>
<event>
 5    1  0.1285375E-004  0.9118800E+02  0.7818608E-02  0.1130116E+00
         25   -1    0    0    0    0  0.00000000000E+00  0.00000000000E+00  0.99999998245E-14  0.12500000000E+03  0.12500000000E+03 0.  0.
        -13    1    3    3    0    0  0.20691442824E+02 -0.30978101200E+02 -0.29201217769E+02  0.47333929092E+02  0.10566000000E+00 0. -1.
         23    2    1    0    0    0 -0.12508509806E+02  0.52550963831E+01 -0.24872358668E+02  0.96667808393E+02  0.92422681730E+02 0.  0.
         13    1    3    3    0    0 -0.33199952629E+02  0.36233197583E+02  0.43288591015E+01  0.49333879301E+02  0.10566000000E+00 0.  1.
         22    1    1    0    0    0  0.12508509806E+02 -0.52550963831E+01  0.24872358668E+02  0.28332191607E+02  0.00000000000E+00 0. -1.
</event>
<event>
 5    1  0.1285375E-004  0.9118800E+02  0.7818608E-02  0.1130116E+00
         25   -1    0    0    0    0  0.00000000000E+00  0.00000000000E+00  0.99999998245E-14  0.12500000000E+03  0.12500000000E+03 0.  0.
        -13    1    3    3    0    0  0.32771142529E+02 -0.32902741799E+02 -0.28817173859E+02  0.54653260413E+02  0.10566000000E+00 0. -1.
         23    2    1    0    0    0  0.14981395833E+02  0.33880737097E+01 -0.25532904797E+02  0.95203179835E+02  0.90420102625E+02 0.  0.
         13    1    3    3    0    0 -0.17789746695E+02  0.36290815509E+02  0.32842690623E+01  0.40549919422E+02  0.10566000000E+00 0.  1.
         22    1    1    0    0    0 -0.14981395833E+02 -0.33880737097E+01  0.25532904797E+02  0.29796820165E+02  0.00000000000E+00 0.  1.
</event>
<event>
 5    1  0.1285375E-004  0.9118800E+02  0.7818608E-02  0.1130116E+00
         25   -1    0    0    0    0  0.00000000000E+00  0.00000000000E+00  0.99999998245E-14  0.12500000000E+03  0.12500000000E+03 0.  0.
        -13    1    3    3    0    0  0.12424847174E+02  0.88736783866E+01  0.36286281097E+02  0.39367808617E+02  0.10566000000E+00 0.  1.
         23    2    1    0    0    0 -0.19404715886E+02  0.15025013542E+02 -0.12121290070E+02  0.97628122031E+02  0.93712488537E+02 0.  0.
         13    1    3    3    0    0 -0.31829563061E+02  0.61513351550E+01 -0.48407571167E+02  0.58260313415E+02  0.10566000000E+00 0. -1.
         22    1    1    0    0    0  0.19404715886E+02 -0.15025013542E+02  0.12121290070E+02  0.27371877969E+02  0.00000000000E+00 0. -1.
</event>
<event>
 5    1  0.1285375E-004  0.9118800E+02  0.7818608E-02  0.1130116E+00
         25   -1    0    0    0    0  0.00000000000E+00  0.00000000000E+00  0.99999998245E-14  0.12500000000E+03  0.12500000000E+03 0.  0.
        -13    1    3    3    0    0  0.19334798961E+02  0.23354028085E+02 -0.32924431875E+02  0.44757954120E+02  0.10566000000E+00 0. -1.
         23    2    1    0    0    0  0.16216521008E+01 -0.22914349816E+02 -0.55237802913E+01  0.10137354593E+03  0.98581877055E+02 0.  0.
         13    1    3    3    0    0 -0.17713146860E+02 -0.46268377901E+02  0.27400651584E+02  0.56615591815E+02  0.10566000000E+00 0.  1.
         22    1    1    0    0    0 -0.16216521008E+01  0.22914349816E+02  0.55237802913E+01  0.23626454066E+02  0.00000000000E+00 0.  1.
</event>
<event>
 5    1  0.1285375E-004  0.9118800E+02  0.7818608E-02  0.1130116E+00
         25   -1    0    0    0    0  0.00000000000E+00  0.00000000000E+00  0.99999998245E-14  0.12500000000E+03  0.12500000000E+03 0.  0.
        -13    1    3    3    0    0  0.13234262953E+02 -0.18199128569E+02 -0.56896115155E+02  0.61184418607E+02  0.10566000000E+00 0. -1.
         23    2    1    0    0    0  0.12511722031E+02 -0.24931392998E+01 -0.30964458853E+02  0.91510350199E+02  0.85162125089E+02 0.  0.
         13    1    3    3    0    0 -0.72254092193E+00  0.15705989269E+02  0.25931656301E+02  0.30325931591E+02  0.10566000000E+00 0.  1.
         22    1    1    0    0    0 -0.12511722031E+02  0.24931392998E+01  0.30964458853E+02  0.33489649801E+02  0.00000000000E+00 0. -1.
</event>
<event>
 5    1  0.1285375E-004  0.9118800E+02  0.7818608E-02  0.1130116E+00
         25   -1    0    0    0    0  0.00000000000E+00  0.00000000000E+00  0.99999998245E-14  0.12500000000E+03  0.12500000000E+03 0.  0.
        -13    1    3    3    0    0 -0.43764512423E+01 -0.35123952630E+02  0.20299184676E+02  0.40803350798E+02  0.10566000000E+00 0.  1.
         23    2    1    0    0    0 -0.68972982385E+01  0.18539554823E+02  0.23086158750E+02  0.94598379289E+02  0.89580102825E+02 0.  0.
         13    1    3    3    0    0 -0.25208469962E+01  0.53663507453E+02  0.27869740746E+01  0.53795028490E+02  0.10566000000E+00 0. -1.
         22    1    1    0    0    0  0.68972982385E+01 -0.18539554823E+02 -0.23086158750E+02  0.30401620711E+02  0.00000000000E+00 0. -1.
</event>
<event>
 5    1  0.1285375E-004  0.9118800E+02  0.7818608E-02  0.1130116E+00
         25   -1    0    0    0    0  0.00000000000E+00  0.00000000000E+00  0.99999998245E-14  0.12500000000E+03  0.12500000000E+03 0.  0.
        -13    1    3    3    0    0  0.13005125752E+02  0.40875540592E+02  0.25266206882E+02  0.49782883492E+02  0.10566000000E+00 0. -1.
         23    2    1    0    0    0  0.22381941668E+02  0.14610641914E+02 -0.11477006549E+02  0.95911448140E+02  0.91393993430E+02 0.  0.
         13    1    3    3    0    0  0.93768159159E+01 -0.26264898678E+02 -0.36743213431E+02  0.46128564649E+02  0.10566000000E+00 0.  1.
         22    1    1    0    0    0 -0.22381941668E+02 -0.14610641914E+02  0.11477006549E+02  0.29088551860E+02  0.00000000000E+00 0. -1.
</event>
<event>
 5    1  0.1285375E-004  0.9118800E+02  0.7818608E-02  0.1130116E+00
         25   -1    0    0    0    0  0.00000000000E+00  0.00000000000E+00  0.99999998245E-14  0.12500000000E+03  0.12500000000E+03 0.  0.
        -13    1    3    3    0    0 -0.99638019460E+01 -0.39729144313E+01 -0.32972104823E+02  0.34673221062E+02  0.10566000000E+00 0. -1.
         23    2    1    0    0    0  0.21877490304E+02  0.11164202482E+02  0.16491401013E+02  0.95415708451E+02  0.90713434026E+02 0.  0.
         13    1    3    3    0    0  0.31841292250E+02  0.15137116913E+02  0.49463505836E+02  0.60742487390E+02  0.10566000000E+00 0.  1.
         22    1    1    0    0    0 -0.21877490304E+02 -0.11164202482E+02 -0.16491401013E+02  0.29584291549E+02  0.00000000000E+00 0.  1.
</event>
<event>
 5    1  0.1285375E-004  0.9118800E+02  0.7818608E-02  0.1130116E+00
         25   -1    0    0    0    0  0.00000000000E+00  0.00000000000E+00  0.99999998245E-14  0.12500000000E+03  0.12500000000E+03 0.  0.
        -13    1    3    3    0    0  0.89104664015E+01 -0.32587247091E+02  0.12634591980E+02  0.36068950123E+02  0.10566000000E+00 0.  1.
         23    2    1    0    0    0  0.74418279290E+01  0.12603110099E+02 -0.25751183273E+02  0.95380029928E+02  0.90664256916E+02 0.  0.
         13    1    3    3    0    0 -0.14686384725E+01  0.45190357190E+02 -0.38385775252E+02  0.59311079805E+02  0.10566000000E+00 0. -1.
         22    1    1    0    0    0 -0.74418279290E+01 -0.12603110099E+02  0.25751183273E+02  0.29619970072E+02  0.00000000000E+00 0. -1.
</event>
<event>
 5    1  0.1285375E-004  0.9118800E+02  0.7818608E-02  0.1130116E+00
         25   -1    0    0    0    0  0.00000000000E+00  0.00000000000E+00  0.99999998245E-14  0.12500000000E+03  0.12500000000E+03 0.  0.
        -13    1    3    3    0    0 -0.10722588579E+02 -0.29204228247E+01 -0.30870924841E+02  0.32810485213E+02  0.10566000000E+00 0. -1.
         23    2    1    0    0    0 -0.13676257621E+02 -0.22653640332E+01  0.29052134459E+02  0.92809964067E+02  0.87048785269E+02 0.  0.
         13    1    3    3    0    0 -0.29536690416E+01  0.65505879156E+00  0.59923059300E+02  0.59999478854E+02  0.10566000000E+00 0.  1.
         22    1    1    0    0    0  0.13676257621E+02  0.22653640332E+01 -0.29052134459E+02  0.32190035933E+02  0.00000000000E+00 0.  1.
</event>
<event>
 5    1  0.1285375E-004  0.9118800E+02  0.7818608E-02  0.1130116E+00
         25   -1    0    0    0    0  0.00000000000E+00  0.00000000000E+00  0.99999998245E-14  0.12500000000E+03  0.12500000000E+03 0.  0.
        -13    1    3    3    0    0  0.42046393889E+01 -0.27845605550E+02  0.55717949075E+02  0.62430423304E+02  0.10566000000E+00 0.  1.
         23    2    1    0    0    0  0.88979745443E+00 -0.14691431167E+02  0.25427057822E+02  0.95620327457E+02  0.90994955158E+02 0.  0.
         13    1    3    3    0    0 -0.33148419345E+01  0.13154174383E+02 -0.30290891253E+02  0.33189904152E+02  0.10566000000E+00 0. -1.
         22    1    1    0    0    0 -0.88979745443E+00  0.14691431167E+02 -0.25427057822E+02  0.29379672543E+02  0.00000000000E+00 0.  1.
</event>
<event>
 5    1  0.1285375E-004  0.9118800E+02  0.7818608E-02  0.1130116E+00
         25   -1    0    0    0    0  0.00000000000E+00  0.00000000000E+00  0.99999998245E-14  0.12500000000E+03  0.12500000000E+03 0.  0.
        -13    1    3    3    0    0 -0.16457196510E+02 -0.14443559535E+02 -0.33082338589E+02  0.39672509620E+02  0.10566000000E+00 0. -1.
         23    2    1    0    0    0 -0.56407499678E+01 -0.16929957931E+02  0.22460527012E+02  0.96313473382E+02  0.91942201113E+02 0.  0.
         13    1    3    3    0    0  0.10816446542E+02 -0.24863983959E+01  0.55542865600E+02  0.56640963762E+02  0.10566000000E+00 0.  1.
         22    1    1    0    0    0  0.56407499678E+01  0.16929957931E+02 -0.22460527012E+02  0.28686526618E+02  0.00000000000E+00 0.  1.
</event>
<event>
 5    1  0.1285375E-004  0.9118800E+02  0.7818608E-02  0.1130116E+00
         25   -1    0    0    0    0  0.00000000000E+00  0.00000000000E+00  0.99999998245E-14  0.12500000000E+03  0.12500000000E+03 0.  0.
        -13    1    3    3    0    0 -0.12299657878E+02  0.28880909567E+01  0.52238591047E+02  0.53744806371E+02  0.10566000000E+00 0. -1.
         23    2    1    0    0    0 -0.15902012048E+02 -0.18598861773E+02  0.16895314805E+02  0.95263771107E+02  0.90503827414E+02 0.  0.
         13    1    3    3    0    0 -0.36023541697E+01 -0.21486952730E+02 -0.35343276241E+02  0.41518964735E+02  0.10566000000E+00 0.  1.
         22    1    1    0    0    0  0.15902012048E+02  0.18598861773E+02 -0.16895314805E+02  0.29736228893E+02  0.00000000000E+00 0. -1.
</event>
<event>
 5    1  0.1285375E-004  0.9118800E+02  0.7818608E-02  0.1130116E+00
         25   -1    0    0    0    0  0.00000000000E+00  0.00000000000E+00  0.99999998245E-14  0.12500000000E+03  0.12500000000E+03 0.  0.
        -13    1    3    3    0    0 -0.33983404652E+02 -0.37043234498E+02 -0.34408736795E+02  0.60918349827E+02  0.10566000000E+00 0.  1.
         23    2    1    0    0    0 -0.79295255389E+01 -0.23064001234E+02 -0.17533225932E+02  0.94962697528E+02  0.90087037814E+02 0.  0.
         13    1    3    3    0    0  0.26053879113E+02  0.13979233264E+02  0.16875510862E+02  0.34044347701E+02  0.10566000000E+00 0. -1.
         22    1    1    0    0    0  0.79295255389E+01  0.23064001234E+02  0.17533225932E+02  0.30037302472E+02  0.00000000000E+00 0.  1.
</event>
<event>
 5    1  0.1285375E-004  0.9118800E+02  0.7818608E-02  0.1130116E+00
         25   -1    0    0    0    0  0.00000000000E+00  0.00000000000E+00  0.99999998245E-14  0.12500000000E+03  0.12500000000E+03 0.  0.
        -13    1    3    3    0    0 -0.14333051052E+02 -0.12306951782E+02 -0.59224226877E+02  0.62164440220E+02  0.10566000000E+00 0.  1.
         23    2    1    0    0    0 -0.18656412991E+01 -0.65371283351E+01 -0.26202959961E+02  0.97929540546E+02  0.94113681983E+02 0.  0.
         13    1    3    3    0    0  0.12467409753E+02  0.57698234469E+01  0.33021266916E+02  0.35765100326E+02  0.10566000000E+00 0. -1.
         22    1    1    0    0    0  0.18656412991E+01  0.65371283351E+01  0.26202959961E+02  0.27070459454E+02  0.00000000000E+00 0.  1.
</event>
<event>
 5    1  0.1285375E-004  0.9118800E+02  0.7818608E-02  0.1130116E+00
         25   -1    0    0    0    0  0.00000000000E+00  0.00000000000E+00  0.99999998245E-14  0.12500000000E+03  0.12500000000E+03 0.  0.
        -13    1    3    3    0    0 -0.35195777780E+02 -0.43055990050E+02  0.22345353205E+02  0.59932353755E+02  0.10566000000E+00 0. -1.
         23    2    1    0    0    0 -0.23429189346E+02 -0.24847090410E+02  0.30644385818E+00  0.90847419964E+02  0.84183460318E+02 0.  0.
         13    1    3    3    0    0  0.11766588434E+02  0.18208899640E+02 -0.22038909347E+02  0.30915066209E+02  0.10566000000E+00 0.  1.
         22    1    1    0    0    0  0.23429189346E+02  0.24847090410E+02 -0.30644385818E+00  0.34152580036E+02  0.00000000000E+00 0. -1.
</event>
<event>
 5    1  0.1285375E-004  0.9118800E+02  0.7818608E-02  0.1130116E+00
         25   -1    0    0    0    0  0.00000000000E+00  0.00000000000E+00  0.99999998245E-14  0.12500000000E+03  0.12500000000E+03 0.  0.
        -13    1    3    3    0    0 -0.19382928375E+02 -0.43594403065E+02 -0.37588100793E+02  0.60737520333E+02  0.10566000000E+00 0.  1.
         23    2    1    0    0    0 -0.18335388519E+02 -0.17134002487E+02 -0.13660082711E+02  0.96428014191E+02  0.92097793392E+02 0.  0.
         13    1    3    3    0    0  0.10475398552E+01  0.26460400578E+02  0.23928018082E+02  0.35690493858E+02  0.10566000000E+00 0. -1.
         22    1    1    0    0    0  0.18335388519E+02  0.17134002487E+02  0.13660082711E+02  0.28571985809E+02  0.00000000000E+00 0.  1.
</event>
<event>
 5    1  0.1285375E-004  0.9118800E+02  0.7818608E-02  0.1130116E+00
         25   -1    0    0    0    0  0.00000000000E+00  0.00000000000E+00  0.99999998245E-14  0.12500000000E+03  0.12500000000E+03 0.  0.
        -13    1    3    3    0    0 -0.33341455724E+01  0.12484720191E+01  0.48702236964E+02  0.48832307527E+02  0.10566000000E+00 0.  1.
         23    2    1    0    0    0 -0.28457829125E+02 -0.57439456244E+01  0.12640359616E+02  0.93335830327E+02  0.87800669597E+02 0.  0.
         13    1    3    3    0    0 -0.25123683553E+02 -0.69924176435E+01 -0.36061877347E+02  0.44503522800E+02  0.10566000000E+00 0. -1.
         22    1    1    0    0    0  0.28457829125E+02  0.57439456244E+01 -0.12640359616E+02  0.31664169673E+02  0.00000000000E+00 0. -1.
</event>
<event>
 5    1  0.1285375E-004  0.9118800E+02  0.7818608E-02  0.1130116E+00
         25   -1    0    0    0    0  0.00000000000E+00  0.00000000000E+00  0.99999998245E-14  0.12500000000E+03  0.12500000000E+03 0.  0.
        -13    1    3    3    0    0  0.42720827063E+00  0.28568592840E+01  0.34992032353E+02  0.35111218209E+02  0.10566000000E+00 0. -1.
         23    2    1    0    0    0 -0.12787965937E+01 -0.28914610148E+02 -0.13463274149E+02  0.93079007667E+02  0.87434271981E+02 0.  0.
         13    1    3    3    0    0 -0.17060048643E+01 -0.31771469432E+02 -0.48455306502E+02  0.57967789458E+02  0.10566000000E+00 0.  1.
         22    1    1    0    0    0  0.12787965937E+01  0.28914610148E+02  0.13463274149E+02  0.31920992333E+02  0.00000000000E+00 0.  1.
</event>
<event>
 5    1  0.1285375E-004  0.9118800E+02  0.7818608E-02  0.1130116E+00
         25   -1    0    0    0    0  0.00000000000E+00  0.00000000000E+00  0.99999998245E-14  0.12500000000E+03  0.12500000000E+03 0.  0.
        -13    1    3    3    0    0  0.62845983035E+01 -0.10492522483E+02 -0.55526146147E+02  0.56857306248E+02  0.10566000000E+00 0. -1.
         23    2    1    0    0    0  0.53627109813E+01 -0.20898553056E+02 -0.14964658202E+02  0.98742635623E+02  0.95187493432E+02 0.  0.
         13    1    3    3    0    0 -0.92188732217E+00 -0.10406030574E+02  0.40561487945E+02  0.41885329375E+02  0.10566000000E+00 0.  1.
         22    1    1    0    0    0 -0.53627109813E+01  0.20898553056E+02  0.14964658202E+02  0.26257364377E+02  0.00000000000E+00 0. -1.
</event>
<event>
 5    1  0.1285375E-004  0.9118800E+02  0.7818608E-02  0.1130116E+00
         25   -1    0    0    0    0  0.00000000000E+00  0.00000000000E+00  0.99999998245E-14  0.12500000000E+03  0.12500000000E+03 0.  0.
        -13    1    3    3    0    0  0.12574532771E+02  0.47634551372E+01  0.32405442253E+02  0.35084658056E+02  0.10566000000E+00 0.  1.
         23    2    1    0    0    0 -0.10140872700E+02 -0.32290479459E+01 -0.25267287007E+02  0.97582854955E+02  0.93652088811E+02 0.  0.
         13    1    3    3    0    0 -0.22715405472E+02 -0.79925030831E+01 -0.57672729260E+02  0.62498196899E+02  0.10566000000E+00 0. -1.
         22    1    1    0    0    0  0.10140872700E+02  0.32290479459E+01  0.25267287007E+02  0.27417145045E+02  0.00000000000E+00 0. -1.
</event>
<event>
 5    1  0.1285375E-004  0.9118800E+02  0.7818608E-02  0.1130116E+00
         25   -1    0    0    0    0  0.00000000000E+00  0.00000000000E+00  0.99999998245E-14  0.12500000000E+03  0.12500000000E+03 0.  0.
        -13    1    3    3    0    0  0.41664700975E+02 -0.46192723357E+02 -0.13607523499E+01  0.62222004223E+02  0.10566000000E+00 0. -1.
         23    2    1    0    0    0  0.16134856109E+02 -0.22454177595E+02 -0.33940770280E+01  0.97142443897E+02  0.93062403657E+02 0.  0.
         13    1    3    3    0    0 -0.25529844866E+02  0.23738545762E+02 -0.20333246781E+01  0.34920439675E+02  0.10566000000E+00 0.  1.
         22    1    1    0    0    0 -0.16134856109E+02  0.22454177595E+02  0.33940770280E+01  0.27857556103E+02  0.00000000000E+00 0. -1.
</event>
<event>
 5    1  0.1285375E-004  0.9118800E+02  0.7818608E-02  0.1130116E+00
         25   -1    0    0    0    0  0.00000000000E+00  0.00000000000E+00  0.99999998245E-14  0.12500000000E+03  0.12500000000E+03 0.  0.
        -13    1    3    3    0    0  0.36033053987E+02 -0.18542130817E+02 -0.86266767600E+01  0.41432141036E+02  0.10566000000E+00 0. -1.
         23    2    1    0    0    0  0.82369979300E+01  0.18985672267E+02  0.20009185645E+02  0.96213346904E+02  0.91805973258E+02 0.  0.
         13    1    3    3    0    0 -0.27796056057E+02  0.37527803084E+02  0.28635862405E+02  0.54781205868E+02  0.10566000000E+00 0.  1.
         22    1    1    0    0    0 -0.82369979300E+01 -0.18985672267E+02 -0.20009185645E+02  0.28786653096E+02  0.00000000000E+00 0.  1.
</event>
<event>
 5    1  0.1285375E-004  0.9118800E+02  0.7818608E-02  0.1130116E+00
         25   -1    0    0    0    0  0.00000000000E+00  0.00000000000E+00  0.99999998245E-14  0.12500000000E+03  0.12500000000E+03 0.  0.
        -13    1    3    3    0    0 -0.11350651825E+02  0.32872362557E+02  0.10673435046E+02  0.36378055152E+02  0.10566000000E+00 0. -1.
         23    2    1    0    0    0 -0.11287640905E+02 -0.23622136637E+02  0.17830759469E+02  0.93324265443E+02  0.87784203367E+02 0.  0.
         13    1    3    3    0    0  0.63010919858E-01 -0.56494499194E+02  0.71573244232E+01  0.56946210291E+02  0.10566000000E+00 0.  1.
         22    1    1    0    0    0  0.11287640905E+02  0.23622136637E+02 -0.17830759469E+02  0.31675734557E+02  0.00000000000E+00 0.  1.
</event>
<event>
 5    1  0.1285375E-004  0.9118800E+02  0.7818608E-02  0.1130116E+00
         25   -1    0    0    0    0  0.00000000000E+00  0.00000000000E+00  0.99999998245E-14  0.12500000000E+03  0.12500000000E+03 0.  0.
        -13    1    3    3    0    0  0.36190880617E+02  0.81940862997E+01 -0.78586650401E+01  0.37930102431E+02  0.10566000000E+00 0.  1.
         23    2    1    0    0    0 -0.15075965625E+02 -0.12049525761E+02 -0.22887728200E+02  0.95061330812E+02  0.90223792334E+02 0.  0.
         13    1    3    3    0    0 -0.51266846243E+02 -0.20243612060E+02 -0.15029063160E+02  0.57131228382E+02  0.10566000000E+00 0. -1.
         22    1    1    0    0    0  0.15075965625E+02  0.12049525761E+02  0.22887728200E+02  0.29938669188E+02  0.00000000000E+00 0. -1.
</event>
<event>
 5    1  0.1285375E-004  0.9118800E+02  0.7818608E-02  0.1130116E+00
         25   -1    0    0    0    0  0.00000000000E+00  0.00000000000E+00  0.99999998245E-14  0.12500000000E+03  0.12500000000E+03 0.  0.
        -13    1    3    3    0    0  0.33548221944E+02 -0.41372857367E+01 -0.12607040861E+02  0.36076986739E+02  0.10566000000E+00 0.  1.
         23    2    1    0    0    0 -0.25552424328E+02 -0.11285518844E+02 -0.87273382490E+01  0.95734734624E+02  0.91151981087E+02 0.  0.
         13    1    3    3    0    0 -0.59100646272E+02 -0.71482331072E+01  0.38797026118E+01  0.59657747885E+02  0.10566000000E+00 0. -1.
         22    1    1    0    0    0  0.25552424328E+02  0.11285518844E+02  0.87273382490E+01  0.29265265376E+02  0.00000000000E+00 0. -1.
</event>
<event>
 5    1  0.1285375E-004  0.9118800E+02  0.7818608E-02  0.1130116E+00
         25   -1    0    0    0    0  0.00000000000E+00  0.00000000000E+00  0.99999998245E-14  0.12500000000E+03  0.12500000000E+03 0.  0.
        -13    1    3    3    0    0 -0.28230269254E+02  0.31511713779E+02  0.28879454384E+02  0.51224703581E+02  0.10566000000E+00 0.  1.
         23    2    1    0    0    0  0.78537964624E+01  0.27791833313E+02  0.26320739770E+01  0.96000070152E+02  0.91515121909E+02 0.  0.
         13    1    3    3    0    0  0.36084065716E+02 -0.37198804665E+01 -0.26247380407E+02  0.44775366571E+02  0.10566000000E+00 0. -1.
         22    1    1    0    0    0 -0.78537964624E+01 -0.27791833313E+02 -0.26320739770E+01  0.28999929848E+02  0.00000000000E+00 0.  1.
</event>
<event>
 5    1  0.1285375E-004  0.9118800E+02  0.7818608E-02  0.1130116E+00
         25   -1    0    0    0    0  0.00000000000E+00  0.00000000000E+00  0.99999998245E-14  0.12500000000E+03  0.12500000000E+03 0.  0.
        -13    1    3    3    0    0  0.35819131005E+02 -0.24404113023E+02 -0.73052689531E+01  0.43953941768E+02  0.10566000000E+00 0. -1.
         23    2    1    0    0    0 -0.15314797140E+02 -0.25038400887E+02 -0.55967088185E+01  0.95120447124E+02  0.90305657526E+02 0.  0.
         13    1    3    3    0    0 -0.51133928145E+02 -0.63428786416E+00  0.17085601346E+01  0.51166505357E+02  0.10566000000E+00 0.  1.
         22    1    1    0    0    0  0.15314797140E+02  0.25038400887E+02  0.55967088185E+01  0.29879552876E+02  0.00000000000E+00 0.  1.
</event>
<event>
 5    1  0.1285375E-004  0.9118800E+02  0.7818608E-02  0.1130116E+00
         25   -1    0    0    0    0  0.00000000000E+00  0.00000000000E+00  0.99999998245E-14  0.12500000000E+03  0.12500000000E+03 0.  0.
        -13    1    3    3    0    0 -0.42435161975E+02  0.17549119993E+02  0.30197589812E+02  0.54960169022E+02  0.10566000000E+00 0.  1.
         23    2    1    0    0    0 -0.20077280428E+02 -0.13829812909E+02  0.84867307116E+01  0.99185556123E+02  0.95767369343E+02 0.  0.
         13    1    3    3    0    0  0.22357881547E+02 -0.31378932902E+02 -0.21710859101E+02  0.44225387102E+02  0.10566000000E+00 0. -1.
         22    1    1    0    0    0  0.20077280428E+02  0.13829812909E+02 -0.84867307116E+01  0.25814443877E+02  0.00000000000E+00 0.  1.
</event>
<event>
 5    1  0.1285375E-004  0.9118800E+02  0.7818608E-02  0.1130116E+00
         25   -1    0    0    0    0  0.00000000000E+00  0.00000000000E+00  0.99999998245E-14  0.12500000000E+03  0.12500000000E+03 0.  0.
        -13    1    3    3    0    0  0.23451935482E+02 -0.20225257433E+02  0.19442626126E+02  0.36566120806E+02  0.10566000000E+00 0.  1.
         23    2    1    0    0    0 -0.38397750934E+01  0.29340694878E+02  0.46995314226E+01  0.95038260326E+02  0.90191823807E+02 0.  0.
         13    1    3    3    0    0 -0.27291710576E+02  0.49565952310E+02 -0.14743094704E+02  0.58472139520E+02  0.10566000000E+00 0. -1.
         22    1    1    0    0    0  0.38397750934E+01 -0.29340694878E+02 -0.46995314226E+01  0.29961739674E+02  0.00000000000E+00 0. -1.
</event>
<event>
 5    1  0.1285375E-004  0.9118800E+02  0.7818608E-02  0.1130116E+00
         25   -1    0    0    0    0  0.00000000000E+00  0.00000000000E+00  0.99999998245E-14  0.12500000000E+03  0.12500000000E+03 0.  0.
        -13    1    3    3    0    0 -0.11363075924E+02  0.89588948134E+01  0.42986156847E+02  0.45356390236E+02  0.10566000000E+00 0. -1.
         23    2    1    0    0    0  0.16171543629E+02 -0.20475980572E+02  0.11578671303E+02  0.96454418330E+02  0.92133623518E+02 0.  0.
         13    1    3    3    0    0  0.27534619553E+02 -0.29434875385E+02 -0.31407485544E+02  0.51098028094E+02  0.10566000000E+00 0.  1.
         22    1    1    0    0    0 -0.16171543629E+02  0.20475980572E+02 -0.11578671303E+02  0.28545581670E+02  0.00000000000E+00 0. -1.
</event>
<event>
 5    1  0.1285375E-004  0.9118800E+02  0.7818608E-02  0.1130116E+00
         25   -1    0    0    0    0  0.00000000000E+00  0.00000000000E+00  0.99999998245E-14  0.12500000000E+03  0.12500000000E+03 0.  0.
        -13    1    3    3    0    0  0.12433324494E+02  0.10245636973E+01 -0.42478969132E+02  0.44273143905E+02  0.10566000000E+00 0. -1.
         23    2    1    0    0    0  0.27812207001E+02  0.67147159412E+01  0.62730343497E+01  0.95709093077E+02  0.91116811123E+02 0.  0.
         13    1    3    3    0    0  0.15378882507E+02  0.56901522439E+01  0.48752003481E+02  0.51435949172E+02  0.10566000000E+00 0.  1.
         22    1    1    0    0    0 -0.27812207001E+02 -0.67147159412E+01 -0.62730343497E+01  0.29290906923E+02  0.00000000000E+00 0.  1.
</event>
<event>
 5    1  0.1285375E-004  0.9118800E+02  0.7818608E-02  0.1130116E+00
         25   -1    0    0    0    0  0.00000000000E+00  0.00000000000E+00  0.99999998245E-14  0.12500000000E+03  0.12500000000E+03 0.  0.
        -13    1    3    3    0    0 -0.36665791443E+02 -0.22492073110E+02  0.43133010159E+02  0.60915854622E+02  0.10566000000E+00 0.  1.
         23    2    1    0    0    0 -0.16785322825E+02 -0.18698375541E+02  0.14470603780E+02  0.96003885019E+02  0.91520332467E+02 0.  0.
         13    1    3    3    0    0  0.19880468618E+02  0.37936975685E+01 -0.28662406379E+02  0.35088030398E+02  0.10566000000E+00 0. -1.
         22    1    1    0    0    0  0.16785322825E+02  0.18698375541E+02 -0.14470603780E+02  0.28996114981E+02  0.00000000000E+00 0.  1.
</event>
<event>
 5    1  0.1285375E-004  0.9118800E+02  0.7818608E-02  0.1130116E+00
         25   -1    0    0    0    0  0.00000000000E+00  0.00000000000E+00  0.99999998245E-14  0.12500000000E+03  0.12500000000E+03 0.  0.
        -13    1    3    3    0    0  0.22428710715E+02  0.15842968196E+02  0.34872528529E+02  0.44386384350E+02  0.10566000000E+00 0.  1.
         23    2    1    0    0    0  0.27131721403E+02 -0.53018115207E+01 -0.11102511935E+02  0.95208973113E+02  0.90428111107E+02 0.  0.
         13    1    3    3    0    0  0.47030106882E+01 -0.21144779717E+02 -0.45975040465E+02  0.50822588763E+02  0.10566000000E+00 0. -1.
         22    1    1    0    0    0 -0.27131721403E+02  0.53018115207E+01  0.11102511935E+02  0.29791026887E+02  0.00000000000E+00 0.  1.
</event>
<event>
 5    1  0.1285375E-004  0.9118800E+02  0.7818608E-02  0.1130116E+00
         25   -1    0    0    0    0  0.00000000000E+00  0.00000000000E+00  0.99999998245E-14  0.12500000000E+03  0.12500000000E+03 0.  0.
        -13    1    3    3    0    0 -0.19715282577E+02  0.76858312405E+01  0.40419654255E+02  0.45623721715E+02  0.10566000000E+00 0.  1.
         23    2    1    0    0    0 -0.10531802804E+02  0.30278239370E+02 -0.12990383282E+00  0.92942122269E+02  0.87238354909E+02 0.  0.
         13    1    3    3    0    0  0.91834797725E+01  0.22592408129E+02 -0.40549558088E+02  0.47318400554E+02  0.10566000000E+00 0. -1.
         22    1    1    0    0    0  0.10531802804E+02 -0.30278239370E+02  0.12990383282E+00  0.32057877731E+02  0.00000000000E+00 0. -1.
</event>
<event>
 5    1  0.1285375E-004  0.9118800E+02  0.7818608E-02  0.1130116E+00
         25   -1    0    0    0    0  0.00000000000E+00  0.00000000000E+00  0.99999998245E-14  0.12500000000E+03  0.12500000000E+03 0.  0.
        -13    1    3    3    0    0  0.48679446548E+02  0.27429287180E+02 -0.18834623066E+02  0.58964468126E+02  0.10566000000E+00 0.  1.
         23    2    1    0    0    0  0.27614573502E+02  0.12214652480E+02  0.51993963777E+01  0.94360219850E+02  0.89247156608E+02 0.  0.
         13    1    3    3    0    0 -0.21064873045E+02 -0.15214634700E+02  0.24034019444E+02  0.35395751724E+02  0.10566000000E+00 0. -1.
         22    1    1    0    0    0 -0.27614573502E+02 -0.12214652480E+02 -0.51993963777E+01  0.30639780150E+02  0.00000000000E+00 0.  1.
</event>
<event>
 5    1  0.1285375E-004  0.9118800E+02  0.7818608E-02  0.1130116E+00
         25   -1    0    0    0    0  0.00000000000E+00  0.00000000000E+00  0.99999998245E-14  0.12500000000E+03  0.12500000000E+03 0.  0.
        -13    1    3    3    0    0  0.24440932442E+02  0.53084073467E+02 -0.11131828644E+01  0.58451076762E+02  0.10566000000E+00 0.  1.
         23    2    1    0    0    0  0.10369321452E+02  0.21731263183E+02  0.15234141180E+02  0.96507023947E+02  0.92204967256E+02 0.  0.
         13    1    3    3    0    0 -0.14071610991E+02 -0.31352810285E+02  0.16347324045E+02  0.38055947184E+02  0.10566000000E+00 0. -1.
         22    1    1    0    0    0 -0.10369321452E+02 -0.21731263183E+02 -0.15234141180E+02  0.28492976053E+02  0.00000000000E+00 0.  1.
</event>
<event>
 5    1  0.1285375E-004  0.9118800E+02  0.7818608E-02  0.1130116E+00
         25   -1    0    0    0    0  0.00000000000E+00  0.00000000000E+00  0.99999998245E-14  0.12500000000E+03  0.12500000000E+03 0.  0.
        -13    1    3    3    0    0  0.21093221790E+02  0.27649607345E+02  0.31273055325E+02  0.46770075318E+02  0.10566000000E+00 0.  1.
         23    2    1    0    0    0 -0.18691924650E+02 -0.59165884438E-01  0.21998472115E+02  0.96132642603E+02  0.91696023091E+02 0.  0.
         13    1    3    3    0    0 -0.39785146440E+02 -0.27708773230E+02 -0.92745832108E+01  0.49362567285E+02  0.10566000000E+00 0. -1.
         22    1    1    0    0    0  0.18691924650E+02  0.59165884438E-01 -0.21998472115E+02  0.28867357397E+02  0.00000000000E+00 0. -1.
</event>
<event>
 5    1  0.1285375E-004  0.9118800E+02  0.7818608E-02  0.1130116E+00
         25   -1    0    0    0    0  0.00000000000E+00  0.00000000000E+00  0.99999998245E-14  0.12500000000E+03  0.12500000000E+03 0.  0.
        -13    1    3    3    0    0  0.95773446711E+01 -0.46859655308E+02 -0.18794431390E+02  0.51388662580E+02  0.10566000000E+00 0.  1.
         23    2    1    0    0    0 -0.20856200257E+02 -0.29309127274E+02 -0.79036455165E+01  0.88169664091E+02  0.80108776190E+02 0.  0.
         13    1    3    3    0    0 -0.30433544928E+02  0.17550528033E+02  0.10890785874E+02  0.36781001510E+02  0.10566000000E+00 0. -1.
         22    1    1    0    0    0  0.20856200257E+02  0.29309127274E+02  0.79036455165E+01  0.36830335909E+02  0.00000000000E+00 0.  1.
</event>
<event>
 5    1  0.1285375E-004  0.9118800E+02  0.7818608E-02  0.1130116E+00
         25   -1    0    0    0    0  0.00000000000E+00  0.00000000000E+00  0.99999998245E-14  0.12500000000E+03  0.12500000000E+03 0.  0.
        -13    1    3    3    0    0 -0.21968234253E+02 -0.59054636213E+01  0.23466605751E+02  0.32682878795E+02  0.10566000000E+00 0. -1.
         23    2    1    0    0    0  0.14732513841E+02 -0.22207893138E+02 -0.19863902355E+02  0.91761286149E+02  0.85529652971E+02 0.  0.
         13    1    3    3    0    0  0.36700748094E+02 -0.16302429516E+02 -0.43330508106E+02  0.59078407355E+02  0.10566000000E+00 0.  1.
         22    1    1    0    0    0 -0.14732513841E+02  0.22207893138E+02  0.19863902355E+02  0.33238713851E+02  0.00000000000E+00 0.  1.
</event>
<event>
 5    1  0.1285375E-004  0.9118800E+02  0.7818608E-02  0.1130116E+00
         25   -1    0    0    0    0  0.00000000000E+00  0.00000000000E+00  0.99999998245E-14  0.12500000000E+03  0.12500000000E+03 0.  0.
        -13    1    3    3    0    0  0.33544622999E+02  0.19082853274E+02  0.22108593641E+02  0.44476938946E+02  0.10566000000E+00 0.  1.
         23    2    1    0    0    0 -0.40371708809E+01 -0.16606197982E+02  0.23040789995E+02  0.96313024493E+02  0.91941590824E+02 0.  0.
         13    1    3    3    0    0 -0.37581793880E+02 -0.35689051256E+02  0.93219635417E+00  0.51836085547E+02  0.10566000000E+00 0. -1.
         22    1    1    0    0    0  0.40371708809E+01  0.16606197982E+02 -0.23040789995E+02  0.28686975507E+02  0.00000000000E+00 0.  1.
</event>
<event>
 5    1  0.1285375E-004  0.9118800E+02  0.7818608E-02  0.1130116E+00
         25   -1    0    0    0    0  0.00000000000E+00  0.00000000000E+00  0.99999998245E-14  0.12500000000E+03  0.12500000000E+03 0.  0.
        -13    1    3    3    0    0  0.16331558357E+01 -0.24507681693E+02  0.25188994553E+02  0.35182243683E+02  0.10566000000E+00 0.  1.
         23    2    1    0    0    0 -0.19932048863E+02  0.11288085988E+02 -0.18437711650E+02  0.95594955058E+02  0.90960094352E+02 0.  0.
         13    1    3    3    0    0 -0.21565204698E+02  0.35795767680E+02 -0.43626706204E+02  0.60412711375E+02  0.10566000000E+00 0. -1.
         22    1    1    0    0    0  0.19932048863E+02 -0.11288085988E+02  0.18437711650E+02  0.29405044942E+02  0.00000000000E+00 0. -1.
</event>
<event>
 5    1  0.1285375E-004  0.9118800E+02  0.7818608E-02  0.1130116E+00
         25   -1    0    0    0    0  0.00000000000E+00  0.00000000000E+00  0.99999998245E-14  0.12500000000E+03  0.12500000000E+03 0.  0.
        -13    1    3    3    0    0 -0.36471072502E+02  0.16944457858E+02 -0.43386589369E+02  0.59157933387E+02  0.10566000000E+00 0. -1.
         23    2    1    0    0    0 -0.63198730621E+01  0.18193270045E+02 -0.18840003233E+02  0.98057810180E+02  0.94283893349E+02 0.  0.
         13    1    3    3    0    0  0.30151199440E+02  0.12488121877E+01  0.24546586136E+02  0.38899876793E+02  0.10566000000E+00 0.  1.
         22    1    1    0    0    0  0.63198730621E+01 -0.18193270045E+02  0.18840003233E+02  0.26942189820E+02  0.00000000000E+00 0. -1.
</event>
<event>
 5    1  0.1285375E-004  0.9118800E+02  0.7818608E-02  0.1130116E+00
         25   -1    0    0    0    0  0.00000000000E+00  0.00000000000E+00  0.99999998245E-14  0.12500000000E+03  0.12500000000E+03 0.  0.
        -13    1    3    3    0    0 -0.15159475924E+02 -0.35676338630E+02 -0.18030946934E+02  0.42752041585E+02  0.10566000000E+00 0.  1.
         23    2    1    0    0    0 -0.21698462992E+02  0.16563699370E+02 -0.27995857490E+01  0.97558842711E+02  0.93620033527E+02 0.  0.
         13    1    3    3    0    0 -0.65389870677E+01  0.52240037999E+02  0.15231361185E+02  0.54806801126E+02  0.10566000000E+00 0. -1.
         22    1    1    0    0    0  0.21698462992E+02 -0.16563699370E+02  0.27995857490E+01  0.27441157289E+02  0.00000000000E+00 0. -1.
</event>
<event>
 5    1  0.1285375E-004  0.9118800E+02  0.7818608E-02  0.1130116E+00
         25   -1    0    0    0    0  0.00000000000E+00  0.00000000000E+00  0.99999998245E-14  0.12500000000E+03  0.12500000000E+03 0.  0.
        -13    1    3    3    0    0 -0.25873742545E+02 -0.12176662641E+02  0.37575671559E+02  0.47219317271E+02  0.10566000000E+00 0.  1.
         23    2    1    0    0    0 -0.10673436873E+02  0.25399899678E+02  0.14375713004E+02  0.93923670057E+02  0.88633613908E+02 0.  0.
         13    1    3    3    0    0  0.15200305673E+02  0.37576562319E+02 -0.23199958554E+02  0.46704352787E+02  0.10566000000E+00 0. -1.
         22    1    1    0    0    0  0.10673436873E+02 -0.25399899678E+02 -0.14375713004E+02  0.31076329943E+02  0.00000000000E+00 0.  1.
</event>
<event>
 5    1  0.1285375E-004  0.9118800E+02  0.7818608E-02  0.1130116E+00
         25   -1    0    0    0    0  0.00000000000E+00  0.00000000000E+00  0.99999998245E-14  0.12500000000E+03  0.12500000000E+03 0.  0.
        -13    1    3    3    0    0 -0.25394510371E+02 -0.97695828184E+01  0.22309540885E+02  0.35185972830E+02  0.10566000000E+00 0.  1.
         23    2    1    0    0    0  0.25005555657E+02  0.11122871959E+02 -0.64810442850E+01  0.96875277258E+02  0.92702854942E+02 0.  0.
         13    1    3    3    0    0  0.50400066028E+02  0.20892454777E+02 -0.28790585171E+02  0.61689304427E+02  0.10566000000E+00 0. -1.
         22    1    1    0    0    0 -0.25005555657E+02 -0.11122871959E+02  0.64810442850E+01  0.28124722742E+02  0.00000000000E+00 0. -1.
</event>
<event>
 5    1  0.1285375E-004  0.9118800E+02  0.7818608E-02  0.1130116E+00
         25   -1    0    0    0    0  0.00000000000E+00  0.00000000000E+00  0.99999998245E-14  0.12500000000E+03  0.12500000000E+03 0.  0.
        -13    1    3    3    0    0  0.35302555258E+02  0.26932601583E+02  0.19271654554E+02  0.48404992192E+02  0.10566000000E+00 0.  1.
         23    2    1    0    0    0  0.22673018179E+02 -0.65073503533E+01 -0.14276532681E+02  0.97427717770E+02  0.93444793555E+02 0.  0.
         13    1    3    3    0    0 -0.12629537079E+02 -0.33439951936E+02 -0.33548187235E+02  0.49022725578E+02  0.10566000000E+00 0. -1.
         22    1    1    0    0    0 -0.22673018179E+02  0.65073503533E+01  0.14276532681E+02  0.27572282230E+02  0.00000000000E+00 0. -1.
</event>
<event>
 5    1  0.1285375E-004  0.9118800E+02  0.7818608E-02  0.1130116E+00
         25   -1    0    0    0    0  0.00000000000E+00  0.00000000000E+00  0.99999998245E-14  0.12500000000E+03  0.12500000000E+03 0.  0.
        -13    1    3    3    0    0 -0.34921639075E+01 -0.29302342632E+02  0.19456711361E+02  0.35346814192E+02  0.10566000000E+00 0. -1.
         23    2    1    0    0    0 -0.69670808154E+01  0.26819092437E+02 -0.53065132071E+01  0.96787183468E+02  0.92583993579E+02 0.  0.
         13    1    3    3    0    0 -0.34749169079E+01  0.56121435069E+02 -0.24763224568E+02  0.61440369276E+02  0.10566000000E+00 0.  1.
         22    1    1    0    0    0  0.69670808154E+01 -0.26819092437E+02  0.53065132071E+01  0.28212816532E+02  0.00000000000E+00 0.  1.
</event>
<event>
 5    1  0.1285375E-004  0.9118800E+02  0.7818608E-02  0.1130116E+00
         25   -1    0    0    0    0  0.00000000000E+00  0.00000000000E+00  0.99999998245E-14  0.12500000000E+03  0.12500000000E+03 0.  0.
        -13    1    3    3    0    0  0.19735355547E+02 -0.40416685006E+02 -0.41186523381E+02  0.60986339107E+02  0.10566000000E+00 0.  1.
         23    2    1    0    0    0  0.12793922794E+02 -0.23681335039E+02 -0.11576503717E+02  0.95699735019E+02  0.91103972222E+02 0.  0.
         13    1    3    3    0    0 -0.69414327538E+01  0.16735349967E+02  0.29610019664E+02  0.34713395912E+02  0.10566000000E+00 0. -1.
         22    1    1    0    0    0 -0.12793922794E+02  0.23681335039E+02  0.11576503717E+02  0.29300264981E+02  0.00000000000E+00 0.  1.
</event>
<event>
 5    1  0.1285375E-004  0.9118800E+02  0.7818608E-02  0.1130116E+00
         25   -1    0    0    0    0  0.00000000000E+00  0.00000000000E+00  0.99999998245E-14  0.12500000000E+03  0.12500000000E+03 0.  0.
        -13    1    3    3    0    0  0.18957703400E+02  0.33085296282E+01  0.38102770114E+02  0.42686920021E+02  0.10566000000E+00 0. -1.
         23    2    1    0    0    0  0.72534549378E+01 -0.30307486727E+02  0.14153143001E+01  0.93804495920E+02  0.88465382947E+02 0.  0.
         13    1    3    3    0    0 -0.11704248462E+02 -0.33616016355E+02 -0.36687455813E+02  0.51117575899E+02  0.10566000000E+00 0.  1.
         22    1    1    0    0    0 -0.72534549378E+01  0.30307486727E+02 -0.14153143001E+01  0.31195504080E+02  0.00000000000E+00 0.  1.
</event>
<event>
 5    1  0.1285375E-004  0.9118800E+02  0.7818608E-02  0.1130116E+00
         25   -1    0    0    0    0  0.00000000000E+00  0.00000000000E+00  0.99999998245E-14  0.12500000000E+03  0.12500000000E+03 0.  0.
        -13    1    3    3    0    0 -0.66313929765E+01  0.53119186694E+01  0.32399479426E+02  0.33495212850E+02  0.10566000000E+00 0.  1.
         23    2    1    0    0    0  0.65225676357E+01  0.19265052298E+02 -0.24277577730E+02  0.93328452689E+02  0.87790165579E+02 0.  0.
         13    1    3    3    0    0  0.13153960612E+02  0.13953133629E+02 -0.56677057156E+02  0.59833239840E+02  0.10566000000E+00 0. -1.
         22    1    1    0    0    0 -0.65225676357E+01 -0.19265052298E+02  0.24277577730E+02  0.31671547311E+02  0.00000000000E+00 0. -1.
</event>
<event>
 5    1  0.1285375E-004  0.9118800E+02  0.7818608E-02  0.1130116E+00
         25   -1    0    0    0    0  0.00000000000E+00  0.00000000000E+00  0.99999998245E-14  0.12500000000E+03  0.12500000000E+03 0.  0.
        -13    1    3    3    0    0  0.15620379797E+02  0.21655421226E+02 -0.43602628392E+02  0.51128797172E+02  0.10566000000E+00 0. -1.
         23    2    1    0    0    0  0.50607028221E+01 -0.15746631383E+02 -0.26881787884E+02  0.93437401361E+02  0.87945155298E+02 0.  0.
         13    1    3    3    0    0 -0.10559676974E+02 -0.37402052609E+02  0.16720840508E+02  0.42308604190E+02  0.10566000000E+00 0.  1.
         22    1    1    0    0    0 -0.50607028221E+01  0.15746631383E+02  0.26881787884E+02  0.31562598639E+02  0.00000000000E+00 0. -1.
</event>
<event>
 5    1  0.1285375E-004  0.9118800E+02  0.7818608E-02  0.1130116E+00
         25   -1    0    0    0    0  0.00000000000E+00  0.00000000000E+00  0.99999998245E-14  0.12500000000E+03  0.12500000000E+03 0.  0.
        -13    1    3    3    0    0 -0.31440671244E+02  0.18604903734E+02 -0.68694955328E+01  0.37173369287E+02  0.10566000000E+00 0. -1.
         23    2    1    0    0    0  0.24828377381E+02  0.95421394607E+01  0.99552734397E+01  0.96599151102E+02  0.92329777296E+02 0.  0.
         13    1    3    3    0    0  0.56269048624E+02 -0.90627642738E+01  0.16824768972E+02  0.59425781816E+02  0.10566000000E+00 0.  1.
         22    1    1    0    0    0 -0.24828377381E+02 -0.95421394607E+01 -0.99552734397E+01  0.28400848898E+02  0.00000000000E+00 0.  1.
</event>
<event>
 5    1  0.1285375E-004  0.9118800E+02  0.7818608E-02  0.1130116E+00
         25   -1    0    0    0    0  0.00000000000E+00  0.00000000000E+00  0.99999998245E-14  0.12500000000E+03  0.12500000000E+03 0.  0.
        -13    1    3    3    0    0  0.23014034391E+02  0.82632772688E+01  0.23736757534E+02  0.34078913605E+02  0.10566000000E+00 0. -1.
         23    2    1    0    0    0 -0.17730355086E+02 -0.23966130883E+02 -0.69134356677E+01  0.94397115925E+02  0.89298818476E+02 0.  0.
         13    1    3    3    0    0 -0.40744389478E+02 -0.32229408152E+02 -0.30650193202E+02  0.60318202320E+02  0.10566000000E+00 0.  1.
         22    1    1    0    0    0  0.17730355086E+02  0.23966130883E+02  0.69134356677E+01  0.30602884075E+02  0.00000000000E+00 0.  1.
</event>
<event>
 5    1  0.1285375E-004  0.9118800E+02  0.7818608E-02  0.1130116E+00
         25   -1    0    0    0    0  0.00000000000E+00  0.00000000000E+00  0.99999998245E-14  0.12500000000E+03  0.12500000000E+03 0.  0.
        -13    1    3    3    0    0 -0.28562352952E+02 -0.44945446198E+01  0.18681606929E+02  0.34424156329E+02  0.10566000000E+00 0.  1.
         23    2    1    0    0    0  0.28162900043E+02  0.75958010351E+01 -0.13877032675E+01  0.95797759460E+02  0.91238368382E+02 0.  0.
         13    1    3    3    0    0  0.56725252995E+02  0.12090345655E+02 -0.20069310196E+02  0.61373603131E+02  0.10566000000E+00 0. -1.
         22    1    1    0    0    0 -0.28162900043E+02 -0.75958010351E+01  0.13877032675E+01  0.29202240540E+02  0.00000000000E+00 0. -1.
</event>
<event>
 5    1  0.1285375E-004  0.9118800E+02  0.7818608E-02  0.1130116E+00
         25   -1    0    0    0    0  0.00000000000E+00  0.00000000000E+00  0.99999998245E-14  0.12500000000E+03  0.12500000000E+03 0.  0.
        -13    1    3    3    0    0  0.54911091268E+02  0.68231486069E+01 -0.28107094572E+02  0.62062897374E+02  0.10566000000E+00 0.  1.
         23    2    1    0    0    0  0.27385698915E+02 -0.14997745578E+01 -0.11593117163E+02  0.95223731020E+02  0.90448508860E+02 0.  0.
         13    1    3    3    0    0 -0.27525392353E+02 -0.83229231648E+01  0.16513977408E+02  0.33160833646E+02  0.10566000000E+00 0. -1.
         22    1    1    0    0    0 -0.27385698915E+02  0.14997745578E+01  0.11593117163E+02  0.29776268980E+02  0.00000000000E+00 0.  1.
</event>
<event>
 5    1  0.1285375E-004  0.9118800E+02  0.7818608E-02  0.1130116E+00
         25   -1    0    0    0    0  0.00000000000E+00  0.00000000000E+00  0.99999998245E-14  0.12500000000E+03  0.12500000000E+03 0.  0.
        -13    1    3    3    0    0 -0.34775140530E+02  0.99043924460E+01 -0.47830994317E+02  0.59960174866E+02  0.10566000000E+00 0.  1.
         23    2    1    0    0    0 -0.17498082822E+02 -0.79191972031E+01 -0.22287918124E+02  0.95578105413E+02  0.90936936133E+02 0.  0.
         13    1    3    3    0    0  0.17277057709E+02 -0.17823589649E+02  0.25543076192E+02  0.35617930547E+02  0.10566000000E+00 0. -1.
         22    1    1    0    0    0  0.17498082822E+02  0.79191972031E+01  0.22287918124E+02  0.29421894587E+02  0.00000000000E+00 0.  1.
</event>
<event>
 5    1  0.1285375E-004  0.9118800E+02  0.7818608E-02  0.1130116E+00
         25   -1    0    0    0    0  0.00000000000E+00  0.00000000000E+00  0.99999998245E-14  0.12500000000E+03  0.12500000000E+03 0.  0.
        -13    1    3    3    0    0 -0.65945822725E+01 -0.88302406397E+01 -0.32634904946E+02  0.34445752277E+02  0.10566000000E+00 0. -1.
         23    2    1    0    0    0  0.10738901580E+01  0.22241603065E+02  0.19354804663E+02  0.95496600018E+02  0.90824831431E+02 0.  0.
         13    1    3    3    0    0  0.76684724305E+01  0.31071843705E+02  0.51989709608E+02  0.61050847740E+02  0.10566000000E+00 0.  1.
         22    1    1    0    0    0 -0.10738901580E+01 -0.22241603065E+02 -0.19354804663E+02  0.29503399982E+02  0.00000000000E+00 0.  1.
</event>
<event>
 5    1  0.1285375E-004  0.9118800E+02  0.7818608E-02  0.1130116E+00
         25   -1    0    0    0    0  0.00000000000E+00  0.00000000000E+00  0.99999998245E-14  0.12500000000E+03  0.12500000000E+03 0.  0.
        -13    1    3    3    0    0 -0.35539214791E+02  0.44427757590E+02 -0.16528872718E+02  0.59245896311E+02  0.10566000000E+00 0.  1.
         23    2    1    0    0    0 -0.23085522769E+02  0.10779145741E+02 -0.15575874857E+02  0.95137997020E+02  0.90329946612E+02 0.  0.
         13    1    3    3    0    0  0.12453692022E+02 -0.33648611849E+02  0.95299786105E+00  0.35892100708E+02  0.10566000000E+00 0. -1.
         22    1    1    0    0    0  0.23085522769E+02 -0.10779145741E+02  0.15575874857E+02  0.29862002980E+02  0.00000000000E+00 0.  1.
</event>
<event>
 5    1  0.1285375E-004  0.9118800E+02  0.7818608E-02  0.1130116E+00
         25   -1    0    0    0    0  0.00000000000E+00  0.00000000000E+00  0.99999998245E-14  0.12500000000E+03  0.12500000000E+03 0.  0.
        -13    1    3    3    0    0 -0.20813348432E+02  0.30736477792E+02 -0.26685320189E+02  0.45716999219E+02  0.10566000000E+00 0. -1.
         23    2    1    0    0    0  0.13408657225E+02 -0.84381600685E+01 -0.21922617624E+02  0.97951972393E+02  0.94143470821E+02 0.  0.
         13    1    3    3    0    0  0.34222005657E+02 -0.39174637860E+02  0.47627025648E+01  0.52234973174E+02  0.10566000000E+00 0.  1.
         22    1    1    0    0    0 -0.13408657225E+02  0.84381600685E+01  0.21922617624E+02  0.27048027607E+02  0.00000000000E+00 0.  1.
</event>
<event>
 5    1  0.1285375E-004  0.9118800E+02  0.7818608E-02  0.1130116E+00
         25   -1    0    0    0    0  0.00000000000E+00  0.00000000000E+00  0.99999998245E-14  0.12500000000E+03  0.12500000000E+03 0.  0.
        -13    1    3    3    0    0  0.14213857866E+02 -0.16902219631E+02  0.57386124576E+02  0.61489000982E+02  0.10566000000E+00 0. -1.
         23    2    1    0    0    0 -0.99507624086E+00 -0.10219751526E+02  0.26887014246E+02  0.96219016121E+02  0.91813691955E+02 0.  0.
         13    1    3    3    0    0 -0.15208934106E+02  0.66824681054E+01 -0.30499110330E+02  0.34730015140E+02  0.10566000000E+00 0.  1.
         22    1    1    0    0    0  0.99507624086E+00  0.10219751526E+02 -0.26887014246E+02  0.28780983879E+02  0.00000000000E+00 0. -1.
</event>
<event>
 5    1  0.1285375E-004  0.9118800E+02  0.7818608E-02  0.1130116E+00
         25   -1    0    0    0    0  0.00000000000E+00  0.00000000000E+00  0.99999998245E-14  0.12500000000E+03  0.12500000000E+03 0.  0.
        -13    1    3    3    0    0 -0.17576080836E+02 -0.38208828962E+02  0.24102098226E+02  0.48474277005E+02  0.10566000000E+00 0.  1.
         23    2    1    0    0    0  0.20237738821E+02 -0.20884062094E+02  0.13422126816E+01  0.95887946534E+02  0.91361844516E+02 0.  0.
         13    1    3    3    0    0  0.37813819657E+02  0.17324766868E+02 -0.22759885545E+02  0.47413669528E+02  0.10566000000E+00 0. -1.
         22    1    1    0    0    0 -0.20237738821E+02  0.20884062094E+02 -0.13422126816E+01  0.29112053466E+02  0.00000000000E+00 0.  1.
</event>
<event>
 5    1  0.1285375E-004  0.9118800E+02  0.7818608E-02  0.1130116E+00
         25   -1    0    0    0    0  0.00000000000E+00  0.00000000000E+00  0.99999998245E-14  0.12500000000E+03  0.12500000000E+03 0.  0.
        -13    1    3    3    0    0 -0.22436840159E+02 -0.24119208414E+02 -0.52108732572E+02  0.61648026612E+02  0.10566000000E+00 0.  1.
         23    2    1    0    0    0 -0.12573781711E+02 -0.18961638925E+02 -0.23760621312E+02  0.92103026547E+02  0.86027650419E+02 0.  0.
         13    1    3    3    0    0  0.98630584479E+01  0.51575694884E+01  0.28348111260E+02  0.30454999935E+02  0.10566000000E+00 0. -1.
         22    1    1    0    0    0  0.12573781711E+02  0.18961638925E+02  0.23760621312E+02  0.32896973453E+02  0.00000000000E+00 0.  1.
</event>
<event>
 5    1  0.1285375E-004  0.9118800E+02  0.7818608E-02  0.1130116E+00
         25   -1    0    0    0    0  0.00000000000E+00  0.00000000000E+00  0.99999998245E-14  0.12500000000E+03  0.12500000000E+03 0.  0.
        -13    1    3    3    0    0 -0.66125865908E+01 -0.34745140245E+02  0.17035123201E+02  0.39257580906E+02  0.10566000000E+00 0. -1.
         23    2    1    0    0    0 -0.23860077811E+01 -0.22693247407E+01 -0.29033272606E+02  0.95780592303E+02  0.91214845699E+02 0.  0.
         13    1    3    3    0    0  0.42265788097E+01  0.32475815505E+02 -0.46068395807E+02  0.56523011397E+02  0.10566000000E+00 0.  1.
         22    1    1    0    0    0  0.23860077811E+01  0.22693247407E+01  0.29033272606E+02  0.29219407697E+02  0.00000000000E+00 0.  1.
</event>
<event>
 5    1  0.1285375E-004  0.9118800E+02  0.7818608E-02  0.1130116E+00
         25   -1    0    0    0    0  0.00000000000E+00  0.00000000000E+00  0.99999998245E-14  0.12500000000E+03  0.12500000000E+03 0.  0.
        -13    1    3    3    0    0  0.47389590143E+02  0.18373867991E+02  0.35727755445E+02  0.62127738991E+02  0.10566000000E+00 0.  1.
         23    2    1    0    0    0  0.28149059718E+02  0.13240901273E+02  0.16598174032E+02  0.89741094589E+02  0.82524382139E+02 0.  0.
         13    1    3    3    0    0 -0.19240530425E+02 -0.51329667182E+01 -0.19129581413E+02  0.27613355599E+02  0.10566000000E+00 0. -1.
         22    1    1    0    0    0 -0.28149059718E+02 -0.13240901273E+02 -0.16598174032E+02  0.35258905411E+02  0.00000000000E+00 0.  1.
</event>
<event>
 5    1  0.1285375E-004  0.9118800E+02  0.7818608E-02  0.1130116E+00
         25   -1    0    0    0    0  0.00000000000E+00  0.00000000000E+00  0.99999998245E-14  0.12500000000E+03  0.12500000000E+03 0.  0.
        -13    1    3    3    0    0  0.20549335035E+02  0.10429007439E+02  0.26225417585E+02  0.34911646453E+02  0.10566000000E+00 0.  1.
         23    2    1    0    0    0 -0.21848667799E+02 -0.73219739903E+00 -0.17624286364E+02  0.96919475299E+02  0.92762432185E+02 0.  0.
         13    1    3    3    0    0 -0.42398002834E+02 -0.11161204838E+02 -0.43849703949E+02  0.62007828846E+02  0.10566000000E+00 0. -1.
         22    1    1    0    0    0  0.21848667799E+02  0.73219739903E+00  0.17624286364E+02  0.28080524701E+02  0.00000000000E+00 0. -1.
</event>
<event>
 5    1  0.1285375E-004  0.9118800E+02  0.7818608E-02  0.1130116E+00
         25   -1    0    0    0    0  0.00000000000E+00  0.00000000000E+00  0.99999998245E-14  0.12500000000E+03  0.12500000000E+03 0.  0.
        -13    1    3    3    0    0  0.29668809338E+02  0.74974372002E+01 -0.48450606876E+02  0.57305517036E+02  0.10566000000E+00 0.  1.
         23    2    1    0    0    0  0.24113197806E+02  0.15262466943E+02 -0.13699419487E+02  0.93344616573E+02  0.87813177503E+02 0.  0.
         13    1    3    3    0    0 -0.55556115312E+01  0.77650297431E+01  0.34751187390E+02  0.36039099537E+02  0.10566000000E+00 0. -1.
         22    1    1    0    0    0 -0.24113197806E+02 -0.15262466943E+02  0.13699419487E+02  0.31655383427E+02  0.00000000000E+00 0.  1.
</event>
<event>
 5    1  0.1285375E-004  0.9118800E+02  0.7818608E-02  0.1130116E+00
         25   -1    0    0    0    0  0.00000000000E+00  0.00000000000E+00  0.99999998245E-14  0.12500000000E+03  0.12500000000E+03 0.  0.
        -13    1    3    3    0    0 -0.50884932774E+02 -0.26193668871E+01 -0.31957753171E+02  0.60145212761E+02  0.10566000000E+00 0.  1.
         23    2    1    0    0    0 -0.18095221684E+02  0.10329755117E+02 -0.15378860541E+02  0.99103084351E+02  0.95659662804E+02 0.  0.
         13    1    3    3    0    0  0.32789711090E+02  0.12949122004E+02  0.16578892629E+02  0.38957871590E+02  0.10566000000E+00 0. -1.
         22    1    1    0    0    0  0.18095221684E+02 -0.10329755117E+02  0.15378860541E+02  0.25896915649E+02  0.00000000000E+00 0.  1.
</event>
<event>
 5    1  0.1285375E-004  0.9118800E+02  0.7818608E-02  0.1130116E+00
         25   -1    0    0    0    0  0.00000000000E+00  0.00000000000E+00  0.99999998245E-14  0.12500000000E+03  0.12500000000E+03 0.  0.
        -13    1    3    3    0    0  0.38457879041E+02 -0.11138910886E+02 -0.19456435877E+01  0.40085913848E+02  0.10566000000E+00 0.  1.
         23    2    1    0    0    0 -0.63888534311E+01  0.16226220586E+02  0.21245999678E+02  0.97513636381E+02  0.93559655276E+02 0.  0.
         13    1    3    3    0    0 -0.44846732472E+02  0.27365131472E+02  0.23191643266E+02  0.57427722533E+02  0.10566000000E+00 0. -1.
         22    1    1    0    0    0  0.63888534311E+01 -0.16226220586E+02 -0.21245999678E+02  0.27486363619E+02  0.00000000000E+00 0. -1.
</event>
<event>
 5    1  0.1285375E-004  0.9118800E+02  0.7818608E-02  0.1130116E+00
         25   -1    0    0    0    0  0.00000000000E+00  0.00000000000E+00  0.99999998245E-14  0.12500000000E+03  0.12500000000E+03 0.  0.
        -13    1    3    3    0    0 -0.33768619064E+02  0.25131868362E+02 -0.37567482062E+02  0.56420362578E+02  0.10566000000E+00 0. -1.
         23    2    1    0    0    0 -0.10614752697E+02  0.24384508734E+02 -0.27185644635E+01  0.98266727964E+02  0.94560467379E+02 0.  0.
         13    1    3    3    0    0  0.23153866368E+02 -0.74735962851E+00  0.34848917599E+02  0.41846365386E+02  0.10566000000E+00 0.  1.
         22    1    1    0    0    0  0.10614752697E+02 -0.24384508734E+02  0.27185644635E+01  0.26733272036E+02  0.00000000000E+00 0. -1.
</event>
<event>
 5    1  0.1285375E-004  0.9118800E+02  0.7818608E-02  0.1130116E+00
         25   -1    0    0    0    0  0.00000000000E+00  0.00000000000E+00  0.99999998245E-14  0.12500000000E+03  0.12500000000E+03 0.  0.
        -13    1    3    3    0    0  0.52703494497E+01  0.13276847663E+02  0.33154476388E+02  0.36100993557E+02  0.10566000000E+00 0.  1.
         23    2    1    0    0    0 -0.58119437071E+01  0.27235410661E+02 -0.19046632900E+02  0.91260994260E+02  0.84795333391E+02 0.  0.
         13    1    3    3    0    0 -0.11082293157E+02  0.13958562997E+02 -0.52201109288E+02  0.55160000703E+02  0.10566000000E+00 0. -1.
         22    1    1    0    0    0  0.58119437071E+01 -0.27235410661E+02  0.19046632900E+02  0.33739005740E+02  0.00000000000E+00 0. -1.
</event>
<event>
 5    1  0.1285375E-004  0.9118800E+02  0.7818608E-02  0.1130116E+00
         25   -1    0    0    0    0  0.00000000000E+00  0.00000000000E+00  0.99999998245E-14  0.12500000000E+03  0.12500000000E+03 0.  0.
        -13    1    3    3    0    0  0.23322203123E+02 -0.29172427308E+02 -0.39774223630E+02  0.54561485527E+02  0.10566000000E+00 0. -1.
         23    2    1    0    0    0  0.15310047910E+02  0.78032302261E+01 -0.23836242884E+02  0.95615404651E+02  0.90988192436E+02 0.  0.
         13    1    3    3    0    0 -0.80121552124E+01  0.36975657534E+02  0.15937980745E+02  0.41053919124E+02  0.10566000000E+00 0.  1.
         22    1    1    0    0    0 -0.15310047910E+02 -0.78032302261E+01  0.23836242884E+02  0.29384595349E+02  0.00000000000E+00 0. -1.
</event>
<event>
 5    1  0.1285375E-004  0.9118800E+02  0.7818608E-02  0.1130116E+00
         25   -1    0    0    0    0  0.00000000000E+00  0.00000000000E+00  0.99999998245E-14  0.12500000000E+03  0.12500000000E+03 0.  0.
        -13    1    3    3    0    0 -0.44059241384E+02  0.37805752762E+02  0.42430597013E+01  0.58210878820E+02  0.10566000000E+00 0.  1.
         23    2    1    0    0    0 -0.23145011210E+02  0.94362804409E+01 -0.12296688995E+02  0.97144237711E+02  0.93064813048E+02 0.  0.
         13    1    3    3    0    0  0.20914230174E+02 -0.28369472322E+02 -0.16539748696E+02  0.38933358891E+02  0.10566000000E+00 0. -1.
         22    1    1    0    0    0  0.23145011210E+02 -0.94362804409E+01  0.12296688995E+02  0.27855762289E+02  0.00000000000E+00 0.  1.
</event>
<event>
 5    1  0.1285375E-004  0.9118800E+02  0.7818608E-02  0.1130116E+00
         25   -1    0    0    0    0  0.00000000000E+00  0.00000000000E+00  0.99999998245E-14  0.12500000000E+03  0.12500000000E+03 0.  0.
        -13    1    3    3    0    0 -0.38529149152E+02  0.13590835328E+02  0.10535245893E+02  0.42192519591E+02  0.10566000000E+00 0.  1.
         23    2    1    0    0    0  0.12642928905E+02  0.44752534379E+01  0.25419493189E+02  0.96259398430E+02  0.91868654107E+02 0.  0.
         13    1    3    3    0    0  0.51172078057E+02 -0.91155818906E+01  0.14884247295E+02  0.54066878840E+02  0.10566000000E+00 0. -1.
         22    1    1    0    0    0 -0.12642928905E+02 -0.44752534379E+01 -0.25419493189E+02  0.28740601570E+02  0.00000000000E+00 0. -1.
</event>
<event>
 5    1  0.1285375E-004  0.9118800E+02  0.7818608E-02  0.1130116E+00
         25   -1    0    0    0    0  0.00000000000E+00  0.00000000000E+00  0.99999998245E-14  0.12500000000E+03  0.12500000000E+03 0.  0.
        -13    1    3    3    0    0 -0.43002188223E+02  0.29991811975E+02  0.52061913864E+01  0.52685980776E+02  0.10566000000E+00 0. -1.
         23    2    1    0    0    0 -0.92673145686E+01  0.15263067935E+02  0.24842358032E+02  0.94406093504E+02  0.89311384358E+02 0.  0.
         13    1    3    3    0    0  0.33734873654E+02 -0.14728744040E+02  0.19636166646E+02  0.41720112728E+02  0.10566000000E+00 0.  1.
         22    1    1    0    0    0  0.92673145686E+01 -0.15263067935E+02 -0.24842358032E+02  0.30593906496E+02  0.00000000000E+00 0. -1.
</event>
<event>
 5    1  0.1285375E-004  0.9118800E+02  0.7818608E-02  0.1130116E+00
         25   -1    0    0    0    0  0.00000000000E+00  0.00000000000E+00  0.99999998245E-14  0.12500000000E+03  0.12500000000E+03 0.  0.
        -13    1    3    3    0    0 -0.41481901728E+01  0.49606122052E+02 -0.26527369184E+02  0.56406447385E+02  0.10566000000E+00 0.  1.
         23    2    1    0    0    0 -0.20312373038E+02  0.16182985992E+02 -0.13321338275E+02  0.95811995829E+02  0.91257870659E+02 0.  0.
         13    1    3    3    0    0 -0.16164182865E+02 -0.33423136060E+02  0.13206030909E+02  0.39405548444E+02  0.10566000000E+00 0. -1.
         22    1    1    0    0    0  0.20312373038E+02 -0.16182985992E+02  0.13321338275E+02  0.29188004171E+02  0.00000000000E+00 0.  1.
</event>
<event>
 5    1  0.1285375E-004  0.9118800E+02  0.7818608E-02  0.1130116E+00
         25   -1    0    0    0    0  0.00000000000E+00  0.00000000000E+00  0.99999998245E-14  0.12500000000E+03  0.12500000000E+03 0.  0.
        -13    1    3    3    0    0  0.97219845176E+01 -0.31293333041E+02  0.23839219954E+02  0.40522947176E+02  0.10566000000E+00 0.  1.
         23    2    1    0    0    0 -0.29130348906E+02 -0.68107592417E+01 -0.48829128979E+01  0.94688178754E+02  0.89705321406E+02 0.  0.
         13    1    3    3    0    0 -0.38852333424E+02  0.24482573800E+02 -0.28722132852E+02  0.54165231578E+02  0.10566000000E+00 0. -1.
         22    1    1    0    0    0  0.29130348906E+02  0.68107592417E+01  0.48829128979E+01  0.30311821246E+02  0.00000000000E+00 0. -1.
</event>
<event>
 5    1  0.1285375E-004  0.9118800E+02  0.7818608E-02  0.1130116E+00
         25   -1    0    0    0    0  0.00000000000E+00  0.00000000000E+00  0.99999998245E-14  0.12500000000E+03  0.12500000000E+03 0.  0.
        -13    1    3    3    0    0 -0.55628506651E+01 -0.30432430197E+02 -0.23007585602E+02  0.38554354806E+02  0.10566000000E+00 0.  1.
         23    2    1    0    0    0  0.27198596970E+02  0.10639017197E+02 -0.28975905921E+00  0.95793214412E+02  0.91232141283E+02 0.  0.
         13    1    3    3    0    0  0.32761447635E+02  0.41071447394E+02  0.22717826542E+02  0.57238859607E+02  0.10566000000E+00 0. -1.
         22    1    1    0    0    0 -0.27198596970E+02 -0.10639017197E+02  0.28975905921E+00  0.29206785588E+02  0.00000000000E+00 0. -1.
</event>
<event>
 5    1  0.1285375E-004  0.9118800E+02  0.7818608E-02  0.1130116E+00
         25   -1    0    0    0    0  0.00000000000E+00  0.00000000000E+00  0.99999998245E-14  0.12500000000E+03  0.12500000000E+03 0.  0.
        -13    1    3    3    0    0 -0.15770634322E+02 -0.96293796065E+01 -0.53979125272E+02  0.57054316118E+02  0.10566000000E+00 0.  1.
         23    2    1    0    0    0  0.57111201362E+01  0.76113151439E+01 -0.29839404410E+02  0.93680053209E+02  0.88289372533E+02 0.  0.
         13    1    3    3    0    0  0.21481754458E+02  0.17240694750E+02  0.24139720862E+02  0.36625737091E+02  0.10566000000E+00 0. -1.
         22    1    1    0    0    0 -0.57111201362E+01 -0.76113151439E+01  0.29839404410E+02  0.31319946791E+02  0.00000000000E+00 0.  1.
</event>
<event>
 5    1  0.1285375E-004  0.9118800E+02  0.7818608E-02  0.1130116E+00
         25   -1    0    0    0    0  0.00000000000E+00  0.00000000000E+00  0.99999998245E-14  0.12500000000E+03  0.12500000000E+03 0.  0.
        -13    1    3    3    0    0  0.30580846231E+01 -0.34883287705E+02 -0.29493134075E+01  0.35141218765E+02  0.10566000000E+00 0. -1.
         23    2    1    0    0    0 -0.19258657034E+02  0.17987126649E+02  0.14238306431E+02  0.95047337917E+02  0.90204403880E+02 0.  0.
         13    1    3    3    0    0 -0.22316741657E+02  0.52870414354E+02  0.17187619838E+02  0.59906119152E+02  0.10566000000E+00 0.  1.
         22    1    1    0    0    0  0.19258657034E+02 -0.17987126649E+02 -0.14238306431E+02  0.29952662083E+02  0.00000000000E+00 0.  1.
</event>
<event>
 5    1  0.1285375E-004  0.9118800E+02  0.7818608E-02  0.1130116E+00
         25   -1    0    0    0    0  0.00000000000E+00  0.00000000000E+00  0.99999998245E-14  0.12500000000E+03  0.12500000000E+03 0.  0.
        -13    1    3    3    0    0 -0.51337223249E+02  0.33630367004E+02  0.10084351059E+02  0.62194994783E+02  0.10566000000E+00 0.  1.
         23    2    1    0    0    0 -0.23862237052E+02  0.11462955525E+02  0.69110545914E+01  0.97640022258E+02  0.93728360513E+02 0.  0.
         13    1    3    3    0    0  0.27474986197E+02 -0.22167411479E+02 -0.31732964681E+01  0.35445027475E+02  0.10566000000E+00 0. -1.
         22    1    1    0    0    0  0.23862237052E+02 -0.11462955525E+02 -0.69110545914E+01  0.27359977742E+02  0.00000000000E+00 0.  1.
</event>
<event>
 5    1  0.1285375E-004  0.9118800E+02  0.7818608E-02  0.1130116E+00
         25   -1    0    0    0    0  0.00000000000E+00  0.00000000000E+00  0.99999998245E-14  0.12500000000E+03  0.12500000000E+03 0.  0.
        -13    1    3    3    0    0 -0.90019629014E+01 -0.31083455606E+02 -0.13173997964E+02  0.34939689965E+02  0.10566000000E+00 0.  1.
         23    2    1    0    0    0 -0.10980602335E+02  0.23421490071E+02  0.13684933614E+02  0.95735392830E+02  0.91152883703E+02 0.  0.
         13    1    3    3    0    0 -0.19786394337E+01  0.54504945677E+02  0.26858931578E+02  0.60795702865E+02  0.10566000000E+00 0. -1.
         22    1    1    0    0    0  0.10980602335E+02 -0.23421490071E+02 -0.13684933614E+02  0.29264607170E+02  0.00000000000E+00 0. -1.
</event>
<event>
 5    1  0.1285375E-004  0.9118800E+02  0.7818608E-02  0.1130116E+00
         25   -1    0    0    0    0  0.00000000000E+00  0.00000000000E+00  0.99999998245E-14  0.12500000000E+03  0.12500000000E+03 0.  0.
        -13    1    3    3    0    0 -0.11904147918E+02  0.50357106888E+02 -0.60300575681E+01  0.52095294510E+02  0.10566000000E+00 0. -1.
         23    2    1    0    0    0  0.20232978448E+02  0.19752488738E+02 -0.22299808865E+01  0.96636166638E+02  0.92379876919E+02 0.  0.
         13    1    3    3    0    0  0.32137126365E+02 -0.30604618150E+02  0.38000766816E+01  0.44540872128E+02  0.10566000000E+00 0.  1.
         22    1    1    0    0    0 -0.20232978448E+02 -0.19752488738E+02  0.22299808865E+01  0.28363833362E+02  0.00000000000E+00 0. -1.
</event>
<event>
 5    1  0.1285375E-004  0.9118800E+02  0.7818608E-02  0.1130116E+00
         25   -1    0    0    0    0  0.00000000000E+00  0.00000000000E+00  0.99999998245E-14  0.12500000000E+03  0.12500000000E+03 0.  0.
        -13    1    3    3    0    0 -0.14339120743E+01 -0.27444201068E+02 -0.53061848644E+02  0.59756265125E+02  0.10566000000E+00 0. -1.
         23    2    1    0    0    0  0.58130182777E+01 -0.22217945911E+02 -0.18338938113E+02  0.95610461843E+02  0.90981401730E+02 0.  0.
         13    1    3    3    0    0  0.72469303519E+01  0.52262551568E+01  0.34722910531E+02  0.35854196718E+02  0.10566000000E+00 0.  1.
         22    1    1    0    0    0 -0.58130182777E+01  0.22217945911E+02  0.18338938113E+02  0.29389538157E+02  0.00000000000E+00 0. -1.
</event>
<event>
 5    1  0.1285375E-004  0.9118800E+02  0.7818608E-02  0.1130116E+00
         25   -1    0    0    0    0  0.00000000000E+00  0.00000000000E+00  0.99999998245E-14  0.12500000000E+03  0.12500000000E+03 0.  0.
        -13    1    3    3    0    0  0.13869241339E+02  0.11727614296E+02  0.30659186770E+02  0.35635511640E+02  0.10566000000E+00 0. -1.
         23    2    1    0    0    0  0.13745775336E+02 -0.46152828319E+01 -0.26340606153E+02  0.94932164898E+02  0.90044662388E+02 0.  0.
         13    1    3    3    0    0 -0.12346600304E+00 -0.16342897128E+02 -0.56999792923E+02  0.59296653259E+02  0.10566000000E+00 0.  1.
         22    1    1    0    0    0 -0.13745775336E+02  0.46152828319E+01  0.26340606153E+02  0.30067835102E+02  0.00000000000E+00 0.  1.
</event>
<event>
 5    1  0.1285375E-004  0.9118800E+02  0.7818608E-02  0.1130116E+00
         25   -1    0    0    0    0  0.00000000000E+00  0.00000000000E+00  0.99999998245E-14  0.12500000000E+03  0.12500000000E+03 0.  0.
        -13    1    3    3    0    0  0.22724848497E+02  0.46759839825E+02 -0.20039360174E+00  0.51989928653E+02  0.10566000000E+00 0.  1.
         23    2    1    0    0    0  0.18323299893E+02  0.23296301134E+01 -0.17196507952E+02  0.99763312793E+02  0.96518538107E+02 0.  0.
         13    1    3    3    0    0 -0.44015486043E+01 -0.44430209712E+02 -0.16996114350E+02  0.47773384140E+02  0.10566000000E+00 0. -1.
         22    1    1    0    0    0 -0.18323299893E+02 -0.23296301134E+01  0.17196507952E+02  0.25236687207E+02  0.00000000000E+00 0. -1.
</event>
<event>
 5    1  0.1285375E-004  0.9118800E+02  0.7818608E-02  0.1130116E+00
         25   -1    0    0    0    0  0.00000000000E+00  0.00000000000E+00  0.99999998245E-14  0.12500000000E+03  0.12500000000E+03 0.  0.
        -13    1    3    3    0    0  0.44098331237E+02 -0.31973327899E+02 -0.11181272151E+02  0.55605651922E+02  0.10566000000E+00 0. -1.
         23    2    1    0    0    0  0.29514993005E+02  0.95506480300E+00  0.49339073351E+01  0.95060220400E+02  0.90222253907E+02 0.  0.
         13    1    3    3    0    0 -0.14583338231E+02  0.32928392702E+02  0.16115179486E+02  0.39454568478E+02  0.10566000000E+00 0.  1.
         22    1    1    0    0    0 -0.29514993005E+02 -0.95506480300E+00 -0.49339073351E+01  0.29939779600E+02  0.00000000000E+00 0. -1.
</event>
<event>
 5    1  0.1285375E-004  0.9118800E+02  0.7818608E-02  0.1130116E+00
         25   -1    0    0    0    0  0.00000000000E+00  0.00000000000E+00  0.99999998245E-14  0.12500000000E+03  0.12500000000E+03 0.  0.
        -13    1    3    3    0    0 -0.35026418270E+02 -0.13369774935E+02 -0.13209155756E+02  0.39750393941E+02  0.10566000000E+00 0.  1.
         23    2    1    0    0    0  0.22337690357E+02 -0.38964197603E+01  0.69444331621E+01  0.10128545490E+03  0.98470115896E+02 0.  0.
         13    1    3    3    0    0  0.57364108626E+02  0.94733551750E+01  0.20153588918E+02  0.61535060958E+02  0.10566000000E+00 0. -1.
         22    1    1    0    0    0 -0.22337690357E+02  0.38964197603E+01 -0.69444331621E+01  0.23714545101E+02  0.00000000000E+00 0. -1.
</event>
<event>
 5    1  0.1285375E-004  0.9118800E+02  0.7818608E-02  0.1130116E+00
         25   -1    0    0    0    0  0.00000000000E+00  0.00000000000E+00  0.99999998245E-14  0.12500000000E+03  0.12500000000E+03 0.  0.
        -13    1    3    3    0    0 -0.56047472170E+01 -0.37967900819E+01  0.44378946392E+02  0.44892436481E+02  0.10566000000E+00 0. -1.
         23    2    1    0    0    0 -0.14384537837E+02  0.26453279955E+02  0.64314812009E+01  0.94209499848E+02  0.89035807190E+02 0.  0.
         13    1    3    3    0    0 -0.87797906203E+01  0.30250070037E+02 -0.37947465191E+02  0.49317063366E+02  0.10566000000E+00 0.  1.
         22    1    1    0    0    0  0.14384537837E+02 -0.26453279955E+02 -0.64314812009E+01  0.30790500152E+02  0.00000000000E+00 0.  1.
</event>
<event>
 5    1  0.1285375E-004  0.9118800E+02  0.7818608E-02  0.1130116E+00
         25   -1    0    0    0    0  0.00000000000E+00  0.00000000000E+00  0.99999998245E-14  0.12500000000E+03  0.12500000000E+03 0.  0.
        -13    1    3    3    0    0 -0.55327854914E+02 -0.74691249393E+01  0.12018285225E+02  0.57108753275E+02  0.10566000000E+00 0. -1.
         23    2    1    0    0    0 -0.25094361620E+02  0.14812549234E+02  0.32213798735E+01  0.95682498602E+02  0.91080319776E+02 0.  0.
         13    1    3    3    0    0  0.30233493295E+02  0.22281674174E+02 -0.87969053517E+01  0.38573745328E+02  0.10566000000E+00 0.  1.
         22    1    1    0    0    0  0.25094361620E+02 -0.14812549234E+02 -0.32213798735E+01  0.29317501398E+02  0.00000000000E+00 0. -1.
</event>
<event>
 5    1  0.1285375E-004  0.9118800E+02  0.7818608E-02  0.1130116E+00
         25   -1    0    0    0    0  0.00000000000E+00  0.00000000000E+00  0.99999998245E-14  0.12500000000E+03  0.12500000000E+03 0.  0.
        -13    1    3    3    0    0  0.34733345006E+02  0.58091877246E+01  0.21484173363E+02  0.41252064027E+02  0.10566000000E+00 0.  1.
         23    2    1    0    0    0  0.44965603956E+00  0.15417474018E+02 -0.22424977037E+02  0.97782720732E+02  0.93918476260E+02 0.  0.
         13    1    3    3    0    0 -0.34283688967E+02  0.96082862936E+01 -0.43909150400E+02  0.56530656705E+02  0.10566000000E+00 0. -1.
         22    1    1    0    0    0 -0.44965603956E+00 -0.15417474018E+02  0.22424977037E+02  0.27217279268E+02  0.00000000000E+00 0. -1.
</event>
<event>
 5    1  0.1285375E-004  0.9118800E+02  0.7818608E-02  0.1130116E+00
         25   -1    0    0    0    0  0.00000000000E+00  0.00000000000E+00  0.99999998245E-14  0.12500000000E+03  0.12500000000E+03 0.  0.
        -13    1    3    3    0    0 -0.88224338395E+01 -0.25713948016E+02  0.53710046799E+02  0.60198195593E+02  0.10566000000E+00 0.  1.
         23    2    1    0    0    0  0.42582130833E+01 -0.19231122237E+02  0.20022605155E+02  0.96913114121E+02  0.92753859921E+02 0.  0.
         13    1    3    3    0    0  0.13080646923E+02  0.64828257786E+01 -0.33687441644E+02  0.36714918529E+02  0.10566000000E+00 0. -1.
         22    1    1    0    0    0 -0.42582130833E+01  0.19231122237E+02 -0.20022605155E+02  0.28086885879E+02  0.00000000000E+00 0.  1.
</event>
<event>
 5    1  0.1285375E-004  0.9118800E+02  0.7818608E-02  0.1130116E+00
         25   -1    0    0    0    0  0.00000000000E+00  0.00000000000E+00  0.99999998245E-14  0.12500000000E+03  0.12500000000E+03 0.  0.
        -13    1    3    3    0    0 -0.28445810547E+02  0.55424429722E+02 -0.32058558685E+01  0.62380447446E+02  0.10566000000E+00 0. -1.
         23    2    1    0    0    0 -0.11812328507E+02  0.28646853728E+02 -0.66234769975E+00  0.94006258087E+02  0.88750011390E+02 0.  0.
         13    1    3    3    0    0  0.16633482040E+02 -0.26777575993E+02  0.25435081687E+01  0.31625810641E+02  0.10566000000E+00 0.  1.
         22    1    1    0    0    0  0.11812328507E+02 -0.28646853728E+02  0.66234769975E+00  0.30993741913E+02  0.00000000000E+00 0. -1.
</event>
<event>
 5    1  0.1285375E-004  0.9118800E+02  0.7818608E-02  0.1130116E+00
         25   -1    0    0    0    0  0.00000000000E+00  0.00000000000E+00  0.99999998245E-14  0.12500000000E+03  0.12500000000E+03 0.  0.
        -13    1    3    3    0    0 -0.20170255119E+01  0.47678462548E+02  0.13348472136E+02  0.49552972214E+02  0.10566000000E+00 0. -1.
         23    2    1    0    0    0  0.26690223000E+02  0.14631389240E+02  0.41915187154E+01  0.94275182930E+02  0.89127973905E+02 0.  0.
         13    1    3    3    0    0  0.28707248512E+02 -0.33047073308E+02 -0.91569534209E+01  0.44722210716E+02  0.10566000000E+00 0.  1.
         22    1    1    0    0    0 -0.26690223000E+02 -0.14631389240E+02 -0.41915187154E+01  0.30724817070E+02  0.00000000000E+00 0.  1.
</event>
<event>
 5    1  0.1285375E-004  0.9118800E+02  0.7818608E-02  0.1130116E+00
         25   -1    0    0    0    0  0.00000000000E+00  0.00000000000E+00  0.99999998245E-14  0.12500000000E+03  0.12500000000E+03 0.  0.
        -13    1    3    3    0    0  0.16189237745E+02 -0.23233750888E+02  0.46144313222E+02  0.54140626204E+02  0.10566000000E+00 0.  1.
         23    2    1    0    0    0 -0.18663630626E+01  0.93523395178E+01  0.27687411151E+02  0.95716176790E+02  0.91126528506E+02 0.  0.
         13    1    3    3    0    0 -0.18055600808E+02  0.32586090406E+02 -0.18456902071E+02  0.41575550586E+02  0.10566000000E+00 0. -1.
         22    1    1    0    0    0  0.18663630626E+01 -0.93523395178E+01 -0.27687411151E+02  0.29283823210E+02  0.00000000000E+00 0. -1.
</event>
<event>
 5    1  0.1285375E-004  0.9118800E+02  0.7818608E-02  0.1130116E+00
         25   -1    0    0    0    0  0.00000000000E+00  0.00000000000E+00  0.99999998245E-14  0.12500000000E+03  0.12500000000E+03 0.  0.
        -13    1    3    3    0    0  0.61550477223E+01 -0.40538262735E+02 -0.42328359113E+02  0.58931625696E+02  0.10566000000E+00 0. -1.
         23    2    1    0    0    0  0.14670043719E+02 -0.23917462590E+02 -0.12143025983E+02  0.94427000810E+02  0.89340641381E+02 0.  0.
         13    1    3    3    0    0  0.85149959967E+01  0.16620800145E+02  0.30185333129E+02  0.35495375113E+02  0.10566000000E+00 0.  1.
         22    1    1    0    0    0 -0.14670043719E+02  0.23917462590E+02  0.12143025983E+02  0.30572999190E+02  0.00000000000E+00 0. -1.
</event>
<event>
 5    1  0.1285375E-004  0.9118800E+02  0.7818608E-02  0.1130116E+00
         25   -1    0    0    0    0  0.00000000000E+00  0.00000000000E+00  0.99999998245E-14  0.12500000000E+03  0.12500000000E+03 0.  0.
        -13    1    3    3    0    0 -0.32837556413E+02  0.20493119676E+02  0.34334084594E+02  0.51740831016E+02  0.10566000000E+00 0. -1.
         23    2    1    0    0    0 -0.42299526003E+01  0.30173525628E+02  0.44858542171E+01  0.94202970340E+02  0.89026639749E+02 0.  0.
         13    1    3    3    0    0  0.28607603813E+02  0.96804059518E+01 -0.29848230377E+02  0.42462139324E+02  0.10566000000E+00 0.  1.
         22    1    1    0    0    0  0.42299526003E+01 -0.30173525628E+02 -0.44858542171E+01  0.30797029660E+02  0.00000000000E+00 0. -1.
</event>
<event>
 5    1  0.1285375E-004  0.9118800E+02  0.7818608E-02  0.1130116E+00
         25   -1    0    0    0    0  0.00000000000E+00  0.00000000000E+00  0.99999998245E-14  0.12500000000E+03  0.12500000000E+03 0.  0.
        -13    1    3    3    0    0 -0.15871507146E+02  0.17504810140E+02  0.33480190188E+02  0.40978743467E+02  0.10566000000E+00 0.  1.
         23    2    1    0    0    0 -0.17716154624E+02  0.85744013925E+01 -0.21000836694E+02  0.96217754852E+02  0.91811974780E+02 0.  0.
         13    1    3    3    0    0 -0.18446474775E+01 -0.89304087473E+01 -0.54481026881E+02  0.55239011385E+02  0.10566000000E+00 0. -1.
         22    1    1    0    0    0  0.17716154624E+02 -0.85744013925E+01  0.21000836694E+02  0.28782245148E+02  0.00000000000E+00 0. -1.
</event>
<event>
 5    1  0.1285375E-004  0.9118800E+02  0.7818608E-02  0.1130116E+00
         25   -1    0    0    0    0  0.00000000000E+00  0.00000000000E+00  0.99999998245E-14  0.12500000000E+03  0.12500000000E+03 0.  0.
        -13    1    3    3    0    0 -0.15155785682E+02  0.27203706891E+02  0.25492592639E+02  0.40244539403E+02  0.10566000000E+00 0. -1.
         23    2    1    0    0    0  0.13787376520E+02  0.19044153278E+02 -0.19563407347E+02  0.94414081142E+02  0.89322563138E+02 0.  0.
         13    1    3    3    0    0  0.28943162202E+02 -0.81595536137E+01 -0.45055999986E+02  0.54169541739E+02  0.10566000000E+00 0.  1.
         22    1    1    0    0    0 -0.13787376520E+02 -0.19044153278E+02  0.19563407347E+02  0.30585918858E+02  0.00000000000E+00 0.  1.
</event>
<event>
 5    1  0.1285375E-004  0.9118800E+02  0.7818608E-02  0.1130116E+00
         25   -1    0    0    0    0  0.00000000000E+00  0.00000000000E+00  0.99999998245E-14  0.12500000000E+03  0.12500000000E+03 0.  0.
        -13    1    3    3    0    0 -0.74874944914E+01 -0.24592718567E+02  0.28848210411E+02  0.38640584730E+02  0.10566000000E+00 0.  1.
         23    2    1    0    0    0 -0.18023862007E+02  0.20924216831E+02 -0.57674564526E+01  0.96787484948E+02  0.92584400613E+02 0.  0.
         13    1    3    3    0    0 -0.10536367516E+02  0.45516935398E+02 -0.34615666864E+02  0.58146900218E+02  0.10566000000E+00 0. -1.
         22    1    1    0    0    0  0.18023862007E+02 -0.20924216831E+02  0.57674564526E+01  0.28212515052E+02  0.00000000000E+00 0. -1.
</event>
<event>
 5    1  0.1285375E-004  0.9118800E+02  0.7818608E-02  0.1130116E+00
         25   -1    0    0    0    0  0.00000000000E+00  0.00000000000E+00  0.99999998245E-14  0.12500000000E+03  0.12500000000E+03 0.  0.
        -13    1    3    3    0    0  0.41639714884E+02 -0.40352987927E+02 -0.11456165483E+02  0.59105705155E+02  0.10566000000E+00 0.  1.
         23    2    1    0    0    0  0.27606168665E+02 -0.72166073886E+01 -0.15781130285E+01  0.96422554150E+02  0.92090382438E+02 0.  0.
         13    1    3    3    0    0 -0.14033546219E+02  0.33136380538E+02  0.98780524544E+01  0.37316848996E+02  0.10566000000E+00 0. -1.
         22    1    1    0    0    0 -0.27606168665E+02  0.72166073886E+01  0.15781130285E+01  0.28577445850E+02  0.00000000000E+00 0.  1.
</event>
<event>
 5    1  0.1285375E-004  0.9118800E+02  0.7818608E-02  0.1130116E+00
         25   -1    0    0    0    0  0.00000000000E+00  0.00000000000E+00  0.99999998245E-14  0.12500000000E+03  0.12500000000E+03 0.  0.
        -13    1    3    3    0    0  0.16936981083E+02 -0.41856555776E+02  0.94534258064E+01  0.46132537467E+02  0.10566000000E+00 0.  1.
         23    2    1    0    0    0 -0.78657725359E+01 -0.21182627036E+01  0.27489942588E+02  0.96328509667E+02  0.91962641419E+02 0.  0.
         13    1    3    3    0    0 -0.24802753619E+02  0.39738293073E+02  0.18036516781E+02  0.50195972199E+02  0.10566000000E+00 0. -1.
         22    1    1    0    0    0  0.78657725359E+01  0.21182627036E+01 -0.27489942588E+02  0.28671490333E+02  0.00000000000E+00 0.  1.
</event>
<event>
 5    1  0.1285375E-004  0.9118800E+02  0.7818608E-02  0.1130116E+00
         25   -1    0    0    0    0  0.00000000000E+00  0.00000000000E+00  0.99999998245E-14  0.12500000000E+03  0.12500000000E+03 0.  0.
        -13    1    3    3    0    0  0.98938212514E+01 -0.44393502300E+02  0.26581374092E+02  0.52680654495E+02  0.10566000000E+00 0.  1.
         23    2    1    0    0    0  0.11382240117E+02 -0.40222580110E+01  0.29440543820E+02  0.93180515875E+02  0.87579272483E+02 0.  0.
         13    1    3    3    0    0  0.14884188659E+01  0.40371244289E+02  0.28591697280E+01  0.40499861379E+02  0.10566000000E+00 0. -1.
         22    1    1    0    0    0 -0.11382240117E+02  0.40222580110E+01 -0.29440543820E+02  0.31819484125E+02  0.00000000000E+00 0.  1.
</event>
<event>
 5    1  0.1285375E-004  0.9118800E+02  0.7818608E-02  0.1130116E+00
         25   -1    0    0    0    0  0.00000000000E+00  0.00000000000E+00  0.99999998245E-14  0.12500000000E+03  0.12500000000E+03 0.  0.
        -13    1    3    3    0    0  0.29285419195E+02 -0.25882825008E+02 -0.15538531842E+02  0.42059642695E+02  0.10566000000E+00 0.  1.
         23    2    1    0    0    0  0.10445422943E+02  0.24902838629E+02 -0.18401025036E+01  0.97932598767E+02  0.94117743767E+02 0.  0.
         13    1    3    3    0    0 -0.18839996251E+02  0.50785663638E+02  0.13698429339E+02  0.55872956072E+02  0.10566000000E+00 0. -1.
         22    1    1    0    0    0 -0.10445422943E+02 -0.24902838629E+02  0.18401025036E+01  0.27067401233E+02  0.00000000000E+00 0. -1.
</event>
<event>
 5    1  0.1285375E-004  0.9118800E+02  0.7818608E-02  0.1130116E+00
         25   -1    0    0    0    0  0.00000000000E+00  0.00000000000E+00  0.99999998245E-14  0.12500000000E+03  0.12500000000E+03 0.  0.
        -13    1    3    3    0    0  0.29413750529E+02  0.61664907973E+01 -0.28139674495E+02  0.41170945747E+02  0.10566000000E+00 0. -1.
         23    2    1    0    0    0  0.13610204428E+02 -0.16379721635E+02  0.19454444860E+02  0.96155444704E+02  0.91727101644E+02 0.  0.
         13    1    3    3    0    0 -0.15803546101E+02 -0.22546212432E+02  0.47594119355E+02  0.54984498958E+02  0.10566000000E+00 0.  1.
         22    1    1    0    0    0 -0.13610204428E+02  0.16379721635E+02 -0.19454444860E+02  0.28844555296E+02  0.00000000000E+00 0. -1.
</event>
<event>
 5    1  0.1285375E-004  0.9118800E+02  0.7818608E-02  0.1130116E+00
         25   -1    0    0    0    0  0.00000000000E+00  0.00000000000E+00  0.99999998245E-14  0.12500000000E+03  0.12500000000E+03 0.  0.
        -13    1    3    3    0    0 -0.26530757183E+02 -0.16385793907E+02 -0.40632899371E+02  0.51219322467E+02  0.10566000000E+00 0.  1.
         23    2    1    0    0    0  0.56435845144E+01  0.82779440462E+01 -0.30344211175E+02  0.93044631818E+02  0.87385112889E+02 0.  0.
         13    1    3    3    0    0  0.32174341698E+02  0.24663737953E+02  0.10288688196E+02  0.41825309351E+02  0.10566000000E+00 0. -1.
         22    1    1    0    0    0 -0.56435845144E+01 -0.82779440462E+01  0.30344211175E+02  0.31955368182E+02  0.00000000000E+00 0.  1.
</event>
<event>
 5    1  0.1285375E-004  0.9118800E+02  0.7818608E-02  0.1130116E+00
         25   -1    0    0    0    0  0.00000000000E+00  0.00000000000E+00  0.99999998245E-14  0.12500000000E+03  0.12500000000E+03 0.  0.
        -13    1    3    3    0    0  0.23426897995E+02 -0.22861365627E+02  0.21976973035E+02  0.39426641954E+02  0.10566000000E+00 0. -1.
         23    2    1    0    0    0 -0.26413647028E+02  0.60916860814E+00  0.14023617783E+02  0.95088234900E+02  0.90261058740E+02 0.  0.
         13    1    3    3    0    0 -0.49840545023E+02  0.23470534235E+02 -0.79533552513E+01  0.55661592945E+02  0.10566000000E+00 0.  1.
         22    1    1    0    0    0  0.26413647028E+02 -0.60916860814E+00 -0.14023617783E+02  0.29911765100E+02  0.00000000000E+00 0.  1.
</event>
<event>
 5    1  0.1285375E-004  0.9118800E+02  0.7818608E-02  0.1130116E+00
         25   -1    0    0    0    0  0.00000000000E+00  0.00000000000E+00  0.99999998245E-14  0.12500000000E+03  0.12500000000E+03 0.  0.
        -13    1    3    3    0    0  0.42506582564E+02 -0.25030156799E+02  0.30595337846E+02  0.58046568999E+02  0.10566000000E+00 0. -1.
         23    2    1    0    0    0  0.31602110321E+02 -0.33595564535E+01  0.58766600394E+01  0.92681040711E+02  0.86863457091E+02 0.  0.
         13    1    3    3    0    0 -0.10904472243E+02  0.21670600345E+02 -0.24718677807E+02  0.34634471712E+02  0.10566000000E+00 0.  1.
         22    1    1    0    0    0 -0.31602110321E+02  0.33595564535E+01 -0.58766600394E+01  0.32318959289E+02  0.00000000000E+00 0. -1.
</event>
<event>
 5    1  0.1285375E-004  0.9118800E+02  0.7818608E-02  0.1130116E+00
         25   -1    0    0    0    0  0.00000000000E+00  0.00000000000E+00  0.99999998245E-14  0.12500000000E+03  0.12500000000E+03 0.  0.
        -13    1    3    3    0    0 -0.33909572307E+02  0.11295429578E+02 -0.22199354758E+02  0.42074556910E+02  0.10566000000E+00 0. -1.
         23    2    1    0    0    0 -0.88327961311E+01 -0.15913069229E+02  0.19838576386E+02  0.98077645482E+02  0.94310186992E+02 0.  0.
         13    1    3    3    0    0  0.25076776176E+02 -0.27208498807E+02  0.42037931144E+02  0.56003088572E+02  0.10566000000E+00 0.  1.
         22    1    1    0    0    0  0.88327961311E+01  0.15913069229E+02 -0.19838576386E+02  0.26922354518E+02  0.00000000000E+00 0.  1.
</event>
<event>
 5    1  0.1285375E-004  0.9118800E+02  0.7818608E-02  0.1130116E+00
         25   -1    0    0    0    0  0.00000000000E+00  0.00000000000E+00  0.99999998245E-14  0.12500000000E+03  0.12500000000E+03 0.  0.
        -13    1    3    3    0    0  0.47045121964E+02  0.19252510005E+02 -0.15027835603E+02  0.53007071689E+02  0.10566000000E+00 0.  1.
         23    2    1    0    0    0  0.22631323092E+02 -0.15635912910E+02 -0.92470040442E+01  0.95979909697E+02  0.91487580710E+02 0.  0.
         13    1    3    3    0    0 -0.24413798873E+02 -0.34888422915E+02  0.57808315590E+01  0.42972838008E+02  0.10566000000E+00 0. -1.
         22    1    1    0    0    0 -0.22631323092E+02  0.15635912910E+02  0.92470040442E+01  0.29020090303E+02  0.00000000000E+00 0.  1.
</event>
<event>
 5    1  0.1285375E-004  0.9118800E+02  0.7818608E-02  0.1130116E+00
         25   -1    0    0    0    0  0.00000000000E+00  0.00000000000E+00  0.99999998245E-14  0.12500000000E+03  0.12500000000E+03 0.  0.
        -13    1    3    3    0    0  0.43396684933E+02 -0.22385851774E+02 -0.31056744100E+02  0.57869950241E+02  0.10566000000E+00 0. -1.
         23    2    1    0    0    0  0.31993035660E+02 -0.51865014485E+01 -0.33513100329E+01  0.92416485657E+02  0.86481913799E+02 0.  0.
         13    1    3    3    0    0 -0.11403649274E+02  0.17199350325E+02  0.27705434067E+02  0.34546535416E+02  0.10566000000E+00 0.  1.
         22    1    1    0    0    0 -0.31993035660E+02  0.51865014485E+01  0.33513100329E+01  0.32583514343E+02  0.00000000000E+00 0. -1.
</event>
<event>
 5    1  0.1285375E-004  0.9118800E+02  0.7818608E-02  0.1130116E+00
         25   -1    0    0    0    0  0.00000000000E+00  0.00000000000E+00  0.99999998245E-14  0.12500000000E+03  0.12500000000E+03 0.  0.
        -13    1    3    3    0    0 -0.50781353458E+02 -0.17027998016E+02 -0.23237019875E+02  0.58383806250E+02  0.10566000000E+00 0. -1.
         23    2    1    0    0    0 -0.13809381834E+02 -0.17206551666E+02 -0.19518057785E+02  0.95542929090E+02  0.90888570638E+02 0.  0.
         13    1    3    3    0    0  0.36971971625E+02 -0.17855365064E+00  0.37189620895E+01  0.37159122841E+02  0.10566000000E+00 0.  1.
         22    1    1    0    0    0  0.13809381834E+02  0.17206551666E+02  0.19518057785E+02  0.29457070910E+02  0.00000000000E+00 0. -1.
</event>
<event>
 5    1  0.1285375E-004  0.9118800E+02  0.7818608E-02  0.1130116E+00
         25   -1    0    0    0    0  0.00000000000E+00  0.00000000000E+00  0.99999998245E-14  0.12500000000E+03  0.12500000000E+03 0.  0.
        -13    1    3    3    0    0 -0.29321564455E+02  0.15640975246E+02  0.13900517257E+02  0.36022628899E+02  0.10566000000E+00 0. -1.
         23    2    1    0    0    0  0.14244190827E+02 -0.17100190650E+02 -0.15436738074E+02  0.97914831089E+02  0.94094143134E+02 0.  0.
         13    1    3    3    0    0  0.43565755282E+02 -0.32741165897E+02 -0.29337255330E+02  0.61892202190E+02  0.10566000000E+00 0.  1.
         22    1    1    0    0    0 -0.14244190827E+02  0.17100190650E+02  0.15436738074E+02  0.27085168911E+02  0.00000000000E+00 0.  1.
</event>
<event>
 5    1  0.1285375E-004  0.9118800E+02  0.7818608E-02  0.1130116E+00
         25   -1    0    0    0    0  0.00000000000E+00  0.00000000000E+00  0.99999998245E-14  0.12500000000E+03  0.12500000000E+03 0.  0.
        -13    1    3    3    0    0  0.18148225395E+02  0.35642000156E+02  0.22866148509E+02  0.46071489793E+02  0.10566000000E+00 0.  1.
         23    2    1    0    0    0  0.55845647337E+00  0.21812302024E+02 -0.20621346893E+02  0.94977869148E+02  0.90108086690E+02 0.  0.
         13    1    3    3    0    0 -0.17589768921E+02 -0.13829698133E+02 -0.43487495402E+02  0.48906379354E+02  0.10566000000E+00 0. -1.
         22    1    1    0    0    0 -0.55845647337E+00 -0.21812302024E+02  0.20621346893E+02  0.30022130852E+02  0.00000000000E+00 0.  1.
</event>
<event>
 5    1  0.1285375E-004  0.9118800E+02  0.7818608E-02  0.1130116E+00
         25   -1    0    0    0    0  0.00000000000E+00  0.00000000000E+00  0.99999998245E-14  0.12500000000E+03  0.12500000000E+03 0.  0.
        -13    1    3    3    0    0 -0.33207550770E+02  0.38816831870E+02  0.19119335066E+02  0.54544000605E+02  0.10566000000E+00 0. -1.
         23    2    1    0    0    0  0.25296416525E+01  0.24894108694E+02  0.20091207129E+02  0.92909933960E+02  0.87192221500E+02 0.  0.
         13    1    3    3    0    0  0.35737192422E+02 -0.13922723177E+02  0.97187206219E+00  0.38365933355E+02  0.10566000000E+00 0.  1.
         22    1    1    0    0    0 -0.25296416525E+01 -0.24894108694E+02 -0.20091207129E+02  0.32090066040E+02  0.00000000000E+00 0. -1.
</event>
<event>
 5    1  0.1285375E-004  0.9118800E+02  0.7818608E-02  0.1130116E+00
         25   -1    0    0    0    0  0.00000000000E+00  0.00000000000E+00  0.99999998245E-14  0.12500000000E+03  0.12500000000E+03 0.  0.
        -13    1    3    3    0    0 -0.97988976142E+01  0.31588444336E+02 -0.23927509714E+02  0.40821380368E+02  0.10566000000E+00 0. -1.
         23    2    1    0    0    0  0.26819786164E+02 -0.66814711801E+01 -0.62289205771E+01  0.96667290306E+02  0.92421981025E+02 0.  0.
         13    1    3    3    0    0  0.36618683779E+02 -0.38269915516E+02  0.17698589137E+02  0.55845909938E+02  0.10566000000E+00 0.  1.
         22    1    1    0    0    0 -0.26819786164E+02  0.66814711801E+01  0.62289205771E+01  0.28332709694E+02  0.00000000000E+00 0.  1.
</event>
<event>
 5    1  0.1285375E-004  0.9118800E+02  0.7818608E-02  0.1130116E+00
         25   -1    0    0    0    0  0.00000000000E+00  0.00000000000E+00  0.99999998245E-14  0.12500000000E+03  0.12500000000E+03 0.  0.
        -13    1    3    3    0    0 -0.17998375496E+00  0.52104479097E+02  0.27764390378E+02  0.59040508748E+02  0.10566000000E+00 0. -1.
         23    2    1    0    0    0 -0.30200979756E+01  0.15937418277E+02  0.24702097164E+02  0.95448081324E+02  0.90758031772E+02 0.  0.
         13    1    3    3    0    0 -0.28401142207E+01 -0.36167060820E+02 -0.30622932141E+01  0.36407572576E+02  0.10566000000E+00 0.  1.
         22    1    1    0    0    0  0.30200979756E+01 -0.15937418277E+02 -0.24702097164E+02  0.29551918676E+02  0.00000000000E+00 0. -1.
</event>
<event>
 5    1  0.1285375E-004  0.9118800E+02  0.7818608E-02  0.1130116E+00
         25   -1    0    0    0    0  0.00000000000E+00  0.00000000000E+00  0.99999998245E-14  0.12500000000E+03  0.12500000000E+03 0.  0.
        -13    1    3    3    0    0  0.21465780352E+02 -0.33037034337E+02 -0.25222893290E+02  0.46780667737E+02  0.10566000000E+00 0. -1.
         23    2    1    0    0    0  0.31228068306E+02 -0.14097613653E+01  0.69901734930E+01  0.92968106476E+02  0.87275578595E+02 0.  0.
         13    1    3    3    0    0  0.97622879539E+01  0.31627272972E+02  0.32213066783E+02  0.46187438740E+02  0.10566000000E+00 0.  1.
         22    1    1    0    0    0 -0.31228068306E+02  0.14097613653E+01 -0.69901734930E+01  0.32031893524E+02  0.00000000000E+00 0. -1.
</event>
<event>
 5    1  0.1285375E-004  0.9118800E+02  0.7818608E-02  0.1130116E+00
         25   -1    0    0    0    0  0.00000000000E+00  0.00000000000E+00  0.99999998245E-14  0.12500000000E+03  0.12500000000E+03 0.  0.
        -13    1    3    3    0    0  0.39007169021E+02  0.11539589133E+02 -0.28834360595E+02  0.49861336398E+02  0.10566000000E+00 0.  1.
         23    2    1    0    0    0  0.24836955227E+02 -0.14916879926E+02  0.55493609100E+01  0.95501134629E+02  0.90831072091E+02 0.  0.
         13    1    3    3    0    0 -0.14170213794E+02 -0.26456469058E+02  0.34383721505E+02  0.45639798231E+02  0.10566000000E+00 0. -1.
         22    1    1    0    0    0 -0.24836955227E+02  0.14916879926E+02 -0.55493609100E+01  0.29498865371E+02  0.00000000000E+00 0.  1.
</event>
<event>
 5    1  0.1285375E-004  0.9118800E+02  0.7818608E-02  0.1130116E+00
         25   -1    0    0    0    0  0.00000000000E+00  0.00000000000E+00  0.99999998245E-14  0.12500000000E+03  0.12500000000E+03 0.  0.
        -13    1    3    3    0    0  0.40862945860E+02  0.42546843805E+02 -0.20616658293E+02  0.62490575492E+02  0.10566000000E+00 0.  1.
         23    2    1    0    0    0  0.20480344715E+02  0.22416048793E+02 -0.10731834020E+02  0.92796024709E+02  0.87028766378E+02 0.  0.
         13    1    3    3    0    0 -0.20382601145E+02 -0.20130795013E+02  0.98848242733E+01  0.30305449217E+02  0.10566000000E+00 0. -1.
         22    1    1    0    0    0 -0.20480344715E+02 -0.22416048793E+02  0.10731834020E+02  0.32203975291E+02  0.00000000000E+00 0.  1.
</event>
<event>
 5    1  0.1285375E-004  0.9118800E+02  0.7818608E-02  0.1130116E+00
         25   -1    0    0    0    0  0.00000000000E+00  0.00000000000E+00  0.99999998245E-14  0.12500000000E+03  0.12500000000E+03 0.  0.
        -13    1    3    3    0    0 -0.12648284142E+02  0.91185088871E+01  0.47166088303E+02  0.49676728414E+02  0.10566000000E+00 0.  1.
         23    2    1    0    0    0  0.22634274551E+02  0.21591617656E+01  0.17136404575E+02  0.96528457615E+02  0.92234019775E+02 0.  0.
         13    1    3    3    0    0  0.35282558694E+02 -0.69593471215E+01 -0.30029683728E+02  0.46851729201E+02  0.10566000000E+00 0. -1.
         22    1    1    0    0    0 -0.22634274551E+02 -0.21591617656E+01 -0.17136404575E+02  0.28471542385E+02  0.00000000000E+00 0. -1.
</event>
<event>
 5    1  0.1285375E-004  0.9118800E+02  0.7818608E-02  0.1130116E+00
         25   -1    0    0    0    0  0.00000000000E+00  0.00000000000E+00  0.99999998245E-14  0.12500000000E+03  0.12500000000E+03 0.  0.
        -13    1    3    3    0    0 -0.28560783459E+02  0.17450377820E+02  0.21394833278E+02  0.39723847911E+02  0.10566000000E+00 0.  1.
         23    2    1    0    0    0  0.14754472318E+02  0.24317336426E+02 -0.11267008691E+02  0.94406327631E+02  0.89311712041E+02 0.  0.
         13    1    3    3    0    0  0.43315255777E+02  0.68669586059E+01 -0.32661841968E+02  0.54682479720E+02  0.10566000000E+00 0. -1.
         22    1    1    0    0    0 -0.14754472318E+02 -0.24317336426E+02  0.11267008691E+02  0.30593672369E+02  0.00000000000E+00 0. -1.
</event>
<event>
 5    1  0.1285375E-004  0.9118800E+02  0.7818608E-02  0.1130116E+00
         25   -1    0    0    0    0  0.00000000000E+00  0.00000000000E+00  0.99999998245E-14  0.12500000000E+03  0.12500000000E+03 0.  0.
        -13    1    3    3    0    0  0.27568573471E+02 -0.34563723216E+02 -0.35866666239E+02  0.56930713301E+02  0.10566000000E+00 0.  1.
         23    2    1    0    0    0  0.12801275947E+02 -0.26582197073E+02 -0.11723244956E+01  0.95472720887E+02  0.90791961217E+02 0.  0.
         13    1    3    3    0    0 -0.14767297524E+02  0.79815261428E+01  0.34694341743E+02  0.38542007586E+02  0.10566000000E+00 0. -1.
         22    1    1    0    0    0 -0.12801275947E+02  0.26582197073E+02  0.11723244956E+01  0.29527279113E+02  0.00000000000E+00 0.  1.
</event>
<event>
 5    1  0.1285375E-004  0.9118800E+02  0.7818608E-02  0.1130116E+00
         25   -1    0    0    0    0  0.00000000000E+00  0.00000000000E+00  0.99999998245E-14  0.12500000000E+03  0.12500000000E+03 0.  0.
        -13    1    3    3    0    0  0.33259681853E+02  0.13826972506E+02 -0.45198361525E+02  0.57795282283E+02  0.10566000000E+00 0. -1.
         23    2    1    0    0    0  0.42494891972E+01 -0.63524884168E+01 -0.25766162580E+02  0.98124222772E+02  0.94371900971E+02 0.  0.
         13    1    3    3    0    0 -0.29010192656E+02 -0.20179460923E+02  0.19432198945E+02  0.40328940488E+02  0.10566000000E+00 0.  1.
         22    1    1    0    0    0 -0.42494891972E+01  0.63524884168E+01  0.25766162580E+02  0.26875777228E+02  0.00000000000E+00 0. -1.
</event>
<event>
 5    1  0.1285375E-004  0.9118800E+02  0.7818608E-02  0.1130116E+00
         25   -1    0    0    0    0  0.00000000000E+00  0.00000000000E+00  0.99999998245E-14  0.12500000000E+03  0.12500000000E+03 0.  0.
        -13    1    3    3    0    0  0.37379037693E+02  0.16870049488E+01 -0.66391569973E+01  0.38001684361E+02  0.10566000000E+00 0. -1.
         23    2    1    0    0    0 -0.19636443013E+02  0.16901604781E+02 -0.10284453320E+02  0.97124847652E+02  0.93038765646E+02 0.  0.
         13    1    3    3    0    0 -0.57015480706E+02  0.15214599832E+02 -0.36452963222E+01  0.59123163291E+02  0.10566000000E+00 0.  1.
         22    1    1    0    0    0  0.19636443013E+02 -0.16901604781E+02  0.10284453320E+02  0.27875152348E+02  0.00000000000E+00 0.  1.
</event>
<event>
 5    1  0.1285375E-004  0.9118800E+02  0.7818608E-02  0.1130116E+00
         25   -1    0    0    0    0  0.00000000000E+00  0.00000000000E+00  0.99999998245E-14  0.12500000000E+03  0.12500000000E+03 0.  0.
        -13    1    3    3    0    0 -0.24063164342E+02 -0.25997748078E+01  0.27068292249E+02  0.36311132129E+02  0.10566000000E+00 0. -1.
         23    2    1    0    0    0  0.12646002187E+02 -0.22840370597E+02 -0.14322642149E+02  0.95221786849E+02  0.90445821972E+02 0.  0.
         13    1    3    3    0    0  0.36709166529E+02 -0.20240595789E+02 -0.41390934398E+02  0.58910654720E+02  0.10566000000E+00 0.  1.
         22    1    1    0    0    0 -0.12646002187E+02  0.22840370597E+02  0.14322642149E+02  0.29778213151E+02  0.00000000000E+00 0.  1.
</event>
<event>
 5    1  0.1285375E-004  0.9118800E+02  0.7818608E-02  0.1130116E+00
         25   -1    0    0    0    0  0.00000000000E+00  0.00000000000E+00  0.99999998245E-14  0.12500000000E+03  0.12500000000E+03 0.  0.
        -13    1    3    3    0    0  0.21658458223E+02 -0.38736961660E+02  0.46739361355E+01  0.44626201432E+02  0.10566000000E+00 0. -1.
         23    2    1    0    0    0  0.26108832874E+02  0.12389776484E+02  0.86305072237E+00  0.96087674394E+02  0.91634701934E+02 0.  0.
         13    1    3    3    0    0  0.44503746514E+01  0.51126738144E+02 -0.38108854131E+01  0.51461472962E+02  0.10566000000E+00 0.  1.
         22    1    1    0    0    0 -0.26108832874E+02 -0.12389776484E+02 -0.86305072237E+00  0.28912325606E+02  0.00000000000E+00 0.  1.
</event>
<event>
 5    1  0.1285375E-004  0.9118800E+02  0.7818608E-02  0.1130116E+00
         25   -1    0    0    0    0  0.00000000000E+00  0.00000000000E+00  0.99999998245E-14  0.12500000000E+03  0.12500000000E+03 0.  0.
        -13    1    3    3    0    0  0.46113346415E+02  0.38749531834E+01 -0.88289248557E+01  0.47110689423E+02  0.10566000000E+00 0.  1.
         23    2    1    0    0    0  0.12548984108E+02  0.24238612075E+02  0.15806587481E+02  0.93458986616E+02  0.87975829942E+02 0.  0.
         13    1    3    3    0    0 -0.33564362307E+02  0.20363658892E+02  0.24635512337E+02  0.46348297193E+02  0.10566000000E+00 0. -1.
         22    1    1    0    0    0 -0.12548984108E+02 -0.24238612075E+02 -0.15806587481E+02  0.31541013384E+02  0.00000000000E+00 0. -1.
</event>
<event>
 5    1  0.1285375E-004  0.9118800E+02  0.7818608E-02  0.1130116E+00
         25   -1    0    0    0    0  0.00000000000E+00  0.00000000000E+00  0.99999998245E-14  0.12500000000E+03  0.12500000000E+03 0.  0.
        -13    1    3    3    0    0 -0.34481273537E+01 -0.17234094065E+02 -0.30844459873E+02  0.35500640126E+02  0.10566000000E+00 0.  1.
         23    2    1    0    0    0 -0.11809543659E+02  0.49597463942E+01  0.25406664269E+02  0.96547179489E+02  0.92259389074E+02 0.  0.
         13    1    3    3    0    0 -0.83614163053E+01  0.22193840459E+02  0.56251124142E+02  0.61046539363E+02  0.10566000000E+00 0. -1.
         22    1    1    0    0    0  0.11809543659E+02 -0.49597463942E+01 -0.25406664269E+02  0.28452820511E+02  0.00000000000E+00 0. -1.
</event>
<event>
 5    1  0.1285375E-004  0.9118800E+02  0.7818608E-02  0.1130116E+00
         25   -1    0    0    0    0  0.00000000000E+00  0.00000000000E+00  0.99999998245E-14  0.12500000000E+03  0.12500000000E+03 0.  0.
        -13    1    3    3    0    0 -0.84223834504E+00  0.18769290733E+02 -0.49422033099E+02  0.52872905724E+02  0.10566000000E+00 0.  1.
         23    2    1    0    0    0 -0.55980991018E+01  0.28079647398E+02 -0.84660296477E+01  0.95142354923E+02  0.90335976945E+02 0.  0.
         13    1    3    3    0    0 -0.47558607568E+01  0.93103566656E+01  0.40956003451E+02  0.42269449198E+02  0.10566000000E+00 0. -1.
         22    1    1    0    0    0  0.55980991018E+01 -0.28079647398E+02  0.84660296477E+01  0.29857645077E+02  0.00000000000E+00 0.  1.
</event>
<event>
 5    1  0.1285375E-004  0.9118800E+02  0.7818608E-02  0.1130116E+00
         25   -1    0    0    0    0  0.00000000000E+00  0.00000000000E+00  0.99999998245E-14  0.12500000000E+03  0.12500000000E+03 0.  0.
        -13    1    3    3    0    0  0.36798900952E+02 -0.44559239807E+02  0.39970821187E+01  0.57928169253E+02  0.10566000000E+00 0. -1.
         23    2    1    0    0    0  0.72913570170E+01 -0.23452981737E+02  0.15464530670E+02  0.95976596541E+02  0.91483053815E+02 0.  0.
         13    1    3    3    0    0 -0.29507543935E+02  0.21106258070E+02  0.11467448551E+02  0.38048427288E+02  0.10566000000E+00 0.  1.
         22    1    1    0    0    0 -0.72913570170E+01  0.23452981737E+02 -0.15464530670E+02  0.29023403459E+02  0.00000000000E+00 0. -1.
</event>
<event>
 5    1  0.1285375E-004  0.9118800E+02  0.7818608E-02  0.1130116E+00
         25   -1    0    0    0    0  0.00000000000E+00  0.00000000000E+00  0.99999998245E-14  0.12500000000E+03  0.12500000000E+03 0.  0.
        -13    1    3    3    0    0 -0.60729430629E+01  0.37459495534E+02 -0.35692300512E+02  0.52096505861E+02  0.10566000000E+00 0. -1.
         23    2    1    0    0    0  0.17982626022E+02  0.10435318942E+01 -0.18986068494E+02  0.98828744884E+02  0.95300504831E+02 0.  0.
         13    1    3    3    0    0  0.24055569085E+02 -0.36415963639E+02  0.16706232018E+02  0.46732239023E+02  0.10566000000E+00 0.  1.
         22    1    1    0    0    0 -0.17982626022E+02 -0.10435318942E+01  0.18986068494E+02  0.26171255116E+02  0.00000000000E+00 0. -1.
</event>
<event>
 5    1  0.1285375E-004  0.9118800E+02  0.7818608E-02  0.1130116E+00
         25   -1    0    0    0    0  0.00000000000E+00  0.00000000000E+00  0.99999998245E-14  0.12500000000E+03  0.12500000000E+03 0.  0.
        -13    1    3    3    0    0 -0.55496934827E+02 -0.83137888930E+01  0.23389776896E+02  0.60795737419E+02  0.10566000000E+00 0.  1.
         23    2    1    0    0    0 -0.21768894503E+02  0.98667884946E+00  0.19059404411E+02  0.96049711582E+02  0.91582901763E+02 0.  0.
         13    1    3    3    0    0  0.33728040325E+02  0.93004677425E+01 -0.43303724851E+01  0.35253974163E+02  0.10566000000E+00 0. -1.
         22    1    1    0    0    0  0.21768894503E+02 -0.98667884946E+00 -0.19059404411E+02  0.28950288418E+02  0.00000000000E+00 0.  1.
</event>
<event>
 5    1  0.1285375E-004  0.9118800E+02  0.7818608E-02  0.1130116E+00
         25   -1    0    0    0    0  0.00000000000E+00  0.00000000000E+00  0.99999998245E-14  0.12500000000E+03  0.12500000000E+03 0.  0.
        -13    1    3    3    0    0  0.35474018004E+02 -0.92727204935E+01 -0.49042567541E+01  0.36992596517E+02  0.10566000000E+00 0.  1.
         23    2    1    0    0    0 -0.23317205582E+02 -0.14562088054E+02  0.55889686827E+01  0.96946781726E+02  0.92799221071E+02 0.  0.
         13    1    3    3    0    0 -0.58791223586E+02 -0.52893675604E+01  0.10493225437E+02  0.59954185209E+02  0.10566000000E+00 0. -1.
         22    1    1    0    0    0  0.23317205582E+02  0.14562088054E+02 -0.55889686827E+01  0.28053218274E+02  0.00000000000E+00 0. -1.
</event>
<event>
 5    1  0.1285375E-004  0.9118800E+02  0.7818608E-02  0.1130116E+00
         25   -1    0    0    0    0  0.00000000000E+00  0.00000000000E+00  0.99999998245E-14  0.12500000000E+03  0.12500000000E+03 0.  0.
        -13    1    3    3    0    0 -0.41700567749E+02  0.10802767870E+02  0.55480593661E+01  0.43433043539E+02  0.10566000000E+00 0. -1.
         23    2    1    0    0    0  0.42178589282E+01  0.26340981704E+02 -0.12984725808E+02  0.95331148398E+02  0.90596838243E+02 0.  0.
         13    1    3    3    0    0  0.45918426677E+02  0.15538213834E+02 -0.18532785174E+02  0.51898104860E+02  0.10566000000E+00 0.  1.
         22    1    1    0    0    0 -0.42178589282E+01 -0.26340981704E+02  0.12984725808E+02  0.29668851602E+02  0.00000000000E+00 0.  1.
</event>
<event>
 5    1  0.1285375E-004  0.9118800E+02  0.7818608E-02  0.1130116E+00
         25   -1    0    0    0    0  0.00000000000E+00  0.00000000000E+00  0.99999998245E-14  0.12500000000E+03  0.12500000000E+03 0.  0.
        -13    1    3    3    0    0 -0.16780246603E+02 -0.30238023359E+02 -0.69506189833E+01  0.35273743790E+02  0.10566000000E+00 0.  1.
         23    2    1    0    0    0 -0.12612959633E+02  0.27564348692E+02  0.45237949364E+01  0.94351267724E+02  0.89234617336E+02 0.  0.
         13    1    3    3    0    0  0.41672869701E+01  0.57802372050E+02  0.11474413920E+02  0.59077523934E+02  0.10566000000E+00 0. -1.
         22    1    1    0    0    0  0.12612959633E+02 -0.27564348692E+02 -0.45237949364E+01  0.30648732276E+02  0.00000000000E+00 0. -1.
</event>
<event>
 5    1  0.1285375E-004  0.9118800E+02  0.7818608E-02  0.1130116E+00
         25   -1    0    0    0    0  0.00000000000E+00  0.00000000000E+00  0.99999998245E-14  0.12500000000E+03  0.12500000000E+03 0.  0.
        -13    1    3    3    0    0  0.17299032838E+02 -0.14301013336E+02 -0.16806508703E+02  0.28040068088E+02  0.10566000000E+00 0.  1.
         23    2    1    0    0    0 -0.40936118427E+01  0.34655974398E+02  0.11183422108E+02  0.88354902791E+02  0.80397299070E+02 0.  0.
         13    1    3    3    0    0 -0.21392644680E+02  0.48956987734E+02  0.27989930811E+02  0.60314834703E+02  0.10566000000E+00 0. -1.
         22    1    1    0    0    0  0.40936118427E+01 -0.34655974398E+02 -0.11183422108E+02  0.36645097209E+02  0.00000000000E+00 0. -1.
</event>
<event>
 5    1  0.1285375E-004  0.9118800E+02  0.7818608E-02  0.1130116E+00
         25   -1    0    0    0    0  0.00000000000E+00  0.00000000000E+00  0.99999998245E-14  0.12500000000E+03  0.12500000000E+03 0.  0.
        -13    1    3    3    0    0 -0.90210888745E+01 -0.23209353090E+02  0.28026396090E+02  0.37490587581E+02  0.10566000000E+00 0. -1.
         23    2    1    0    0    0  0.30909665538E+01 -0.13012135561E+02 -0.27064322857E+02  0.94811470426E+02  0.89876958151E+02 0.  0.
         13    1    3    3    0    0  0.12112055428E+02  0.10197217529E+02 -0.55090718947E+02  0.57320882845E+02  0.10566000000E+00 0.  1.
         22    1    1    0    0    0 -0.30909665538E+01  0.13012135561E+02  0.27064322857E+02  0.30188529574E+02  0.00000000000E+00 0.  1.
</event>
<event>
 5    1  0.1285375E-004  0.9118800E+02  0.7818608E-02  0.1130116E+00
         25   -1    0    0    0    0  0.00000000000E+00  0.00000000000E+00  0.99999998245E-14  0.12500000000E+03  0.12500000000E+03 0.  0.
        -13    1    3    3    0    0 -0.39435614851E+02  0.36165825072E+02 -0.19707480872E+02  0.57022193821E+02  0.10566000000E+00 0. -1.
         23    2    1    0    0    0 -0.14035241775E+02  0.24521737263E+02  0.72308030323E+01  0.95835156051E+02  0.91289588742E+02 0.  0.
         13    1    3    3    0    0  0.25400373076E+02 -0.11644087809E+02  0.26938283904E+02  0.38812962230E+02  0.10566000000E+00 0.  1.
         22    1    1    0    0    0  0.14035241775E+02 -0.24521737263E+02 -0.72308030323E+01  0.29164843949E+02  0.00000000000E+00 0. -1.
</event>
<event>
 5    1  0.1285375E-004  0.9118800E+02  0.7818608E-02  0.1130116E+00
         25   -1    0    0    0    0  0.00000000000E+00  0.00000000000E+00  0.99999998245E-14  0.12500000000E+03  0.12500000000E+03 0.  0.
        -13    1    3    3    0    0  0.35426301794E+02  0.24254856782E+02 -0.16752413460E+02  0.46086608218E+02  0.10566000000E+00 0.  1.
         23    2    1    0    0    0 -0.48381799602E+01  0.23799001256E+02  0.14192880431E+02  0.96871041593E+02  0.92697143420E+02 0.  0.
         13    1    3    3    0    0 -0.40264481754E+02 -0.45585552553E+00  0.30945293891E+02  0.50784433375E+02  0.10566000000E+00 0. -1.
         22    1    1    0    0    0  0.48381799602E+01 -0.23799001256E+02 -0.14192880431E+02  0.28128958407E+02  0.00000000000E+00 0. -1.
</event>
<event>
 5    1  0.1285375E-004  0.9118800E+02  0.7818608E-02  0.1130116E+00
         25   -1    0    0    0    0  0.00000000000E+00  0.00000000000E+00  0.99999998245E-14  0.12500000000E+03  0.12500000000E+03 0.  0.
        -13    1    3    3    0    0  0.19717659447E+02  0.47166356448E+02 -0.10551674849E+02  0.52199619546E+02  0.10566000000E+00 0. -1.
         23    2    1    0    0    0 -0.14054572726E+02  0.25346387368E+02 -0.14485043244E+02  0.92599585729E+02  0.86746160908E+02 0.  0.
         13    1    3    3    0    0 -0.33772232173E+02 -0.21819969080E+02 -0.39333683951E+01  0.40399966183E+02  0.10566000000E+00 0.  1.
         22    1    1    0    0    0  0.14054572726E+02 -0.25346387368E+02  0.14485043244E+02  0.32400414271E+02  0.00000000000E+00 0. -1.
</event>
<event>
 5    1  0.1285375E-004  0.9118800E+02  0.7818608E-02  0.1130116E+00
         25   -1    0    0    0    0  0.00000000000E+00  0.00000000000E+00  0.99999998245E-14  0.12500000000E+03  0.12500000000E+03 0.  0.
        -13    1    3    3    0    0 -0.50577455860E+01 -0.28962204332E+02 -0.37769293224E+02  0.47863563855E+02  0.10566000000E+00 0.  1.
         23    2    1    0    0    0 -0.25714052779E+02  0.59439898215E+01 -0.11339981167E+02  0.96274772443E+02  0.91889570196E+02 0.  0.
         13    1    3    3    0    0 -0.20656307193E+02  0.34906194154E+02  0.26429312057E+02  0.48411208588E+02  0.10566000000E+00 0. -1.
         22    1    1    0    0    0  0.25714052779E+02 -0.59439898215E+01  0.11339981167E+02  0.28725227557E+02  0.00000000000E+00 0. -1.
</event>
<event>
 5    1  0.1285375E-004  0.9118800E+02  0.7818608E-02  0.1130116E+00
         25   -1    0    0    0    0  0.00000000000E+00  0.00000000000E+00  0.99999998245E-14  0.12500000000E+03  0.12500000000E+03 0.  0.
        -13    1    3    3    0    0  0.17177803222E+02  0.57761810233E+01  0.55906081024E+02  0.58770249704E+02  0.10566000000E+00 0.  1.
         23    2    1    0    0    0  0.50698244539E+00  0.15879028697E+02  0.27923742356E+02  0.92873126969E+02  0.87139438502E+02 0.  0.
         13    1    3    3    0    0 -0.16670820776E+02  0.10102847673E+02 -0.27982338668E+02  0.34102877266E+02  0.10566000000E+00 0. -1.
         22    1    1    0    0    0 -0.50698244539E+00 -0.15879028697E+02 -0.27923742356E+02  0.32126873031E+02  0.00000000000E+00 0.  1.
</event>
<event>
 5    1  0.1285375E-004  0.9118800E+02  0.7818608E-02  0.1130116E+00
         25   -1    0    0    0    0  0.00000000000E+00  0.00000000000E+00  0.99999998245E-14  0.12500000000E+03  0.12500000000E+03 0.  0.
        -13    1    3    3    0    0  0.91666949925E+01  0.57967380425E+01 -0.15100206143E+02  0.18591876145E+02  0.10566000000E+00 0. -1.
         23    2    1    0    0    0 -0.14005356885E+02 -0.17396187517E+01  0.42009794343E+02  0.80682970365E+02  0.67422122418E+02 0.  0.
         13    1    3    3    0    0 -0.23172051878E+02 -0.75363567942E+01  0.57110000486E+02  0.62091094220E+02  0.10566000000E+00 0.  1.
         22    1    1    0    0    0  0.14005356885E+02  0.17396187517E+01 -0.42009794343E+02  0.44317029635E+02  0.00000000000E+00 0.  1.
</event>
<event>
 5    1  0.1285375E-004  0.9118800E+02  0.7818608E-02  0.1130116E+00
         25   -1    0    0    0    0  0.00000000000E+00  0.00000000000E+00  0.99999998245E-14  0.12500000000E+03  0.12500000000E+03 0.  0.
        -13    1    3    3    0    0  0.17155801883E+01  0.11479656523E+02 -0.18665660021E+02  0.21980531325E+02  0.10566000000E+00 0.  1.
         23    2    1    0    0    0 -0.14948646755E+02 -0.32217630245E+02  0.21375341606E+02  0.83547099411E+02  0.72538092426E+02 0.  0.
         13    1    3    3    0    0 -0.16664226943E+02 -0.43697286768E+02  0.40041001628E+02  0.61566568086E+02  0.10566000000E+00 0. -1.
         22    1    1    0    0    0  0.14948646755E+02  0.32217630245E+02 -0.21375341606E+02  0.41452900589E+02  0.00000000000E+00 0. -1.
</event>
<event>
 5    1  0.1285375E-004  0.9118800E+02  0.7818608E-02  0.1130116E+00
         25   -1    0    0    0    0  0.00000000000E+00  0.00000000000E+00  0.99999998245E-14  0.12500000000E+03  0.12500000000E+03 0.  0.
        -13    1    3    3    0    0  0.11884584176E+02 -0.31068533720E+02 -0.38312363186E+01  0.33484125557E+02  0.10566000000E+00 0.  1.
         23    2    1    0    0    0 -0.65394151336E+01  0.25451087525E+02 -0.16097964924E+02  0.94183344094E+02  0.88999078779E+02 0.  0.
         13    1    3    3    0    0 -0.18423999310E+02  0.56519621245E+02 -0.12266728606E+02  0.60699218537E+02  0.10566000000E+00 0. -1.
         22    1    1    0    0    0  0.65394151336E+01 -0.25451087525E+02  0.16097964924E+02  0.30816655906E+02  0.00000000000E+00 0. -1.
</event>
<event>
 5    1  0.1285375E-004  0.9118800E+02  0.7818608E-02  0.1130116E+00
         25   -1    0    0    0    0  0.00000000000E+00  0.00000000000E+00  0.99999998245E-14  0.12500000000E+03  0.12500000000E+03 0.  0.
        -13    1    3    3    0    0  0.88406297901E+01 -0.35329536285E+02  0.33834603368E+01  0.36575836792E+02  0.10566000000E+00 0. -1.
         23    2    1    0    0    0  0.11849411098E+02  0.15658183457E+02 -0.23565323901E+02  0.94325715280E+02  0.89198816248E+02 0.  0.
         13    1    3    3    0    0  0.30087813081E+01  0.50987719742E+02 -0.26948784238E+02  0.57749878487E+02  0.10566000000E+00 0.  1.
         22    1    1    0    0    0 -0.11849411098E+02 -0.15658183457E+02  0.23565323901E+02  0.30674284720E+02  0.00000000000E+00 0.  1.
</event>
<event>
 5    1  0.1285375E-004  0.9118800E+02  0.7818608E-02  0.1130116E+00
         25   -1    0    0    0    0  0.00000000000E+00  0.00000000000E+00  0.99999998245E-14  0.12500000000E+03  0.12500000000E+03 0.  0.
        -13    1    3    3    0    0 -0.22754899626E+02 -0.33368593589E+02 -0.12273534685E+02  0.42212549234E+02  0.10566000000E+00 0.  1.
         23    2    1    0    0    0 -0.66566621974E+01  0.16123621706E+02 -0.23774270967E+02  0.95512743625E+02  0.90847046767E+02 0.  0.
         13    1    3    3    0    0  0.16098237428E+02  0.49492215295E+02 -0.11500736282E+02  0.53300194391E+02  0.10566000000E+00 0. -1.
         22    1    1    0    0    0  0.66566621974E+01 -0.16123621706E+02  0.23774270967E+02  0.29487256375E+02  0.00000000000E+00 0.  1.
</event>
<event>
 5    1  0.1285375E-004  0.9118800E+02  0.7818608E-02  0.1130116E+00
         25   -1    0    0    0    0  0.00000000000E+00  0.00000000000E+00  0.99999998245E-14  0.12500000000E+03  0.12500000000E+03 0.  0.
        -13    1    3    3    0    0  0.43319039081E+02 -0.22888246317E+02 -0.25532425726E+02  0.55247867777E+02  0.10566000000E+00 0.  1.
         23    2    1    0    0    0  0.21314037633E+02 -0.18501600175E+02  0.80624240088E+01  0.95646974770E+02  0.91031553279E+02 0.  0.
         13    1    3    3    0    0 -0.22005001448E+02  0.43866461416E+01  0.33594849735E+02  0.40399106993E+02  0.10566000000E+00 0. -1.
         22    1    1    0    0    0 -0.21314037633E+02  0.18501600175E+02 -0.80624240088E+01  0.29353025230E+02  0.00000000000E+00 0.  1.
</event>
<event>
 5    1  0.1285375E-004  0.9118800E+02  0.7818608E-02  0.1130116E+00
         25   -1    0    0    0    0  0.00000000000E+00  0.00000000000E+00  0.99999998245E-14  0.12500000000E+03  0.12500000000E+03 0.  0.
        -13    1    3    3    0    0  0.34403746283E+02  0.14915371498E+02 -0.57747077811E+01  0.37940011587E+02  0.10566000000E+00 0. -1.
         23    2    1    0    0    0 -0.94070827517E+01 -0.22389563619E+00  0.28109571810E+02  0.95357271339E+02  0.90632873918E+02 0.  0.
         13    1    3    3    0    0 -0.43810829034E+02 -0.15139267134E+02  0.33884279591E+02  0.57417259752E+02  0.10566000000E+00 0.  1.
         22    1    1    0    0    0  0.94070827517E+01  0.22389563619E+00 -0.28109571810E+02  0.29642728661E+02  0.00000000000E+00 0.  1.
</event>
<event>
 5    1  0.1285375E-004  0.9118800E+02  0.7818608E-02  0.1130116E+00
         25   -1    0    0    0    0  0.00000000000E+00  0.00000000000E+00  0.99999998245E-14  0.12500000000E+03  0.12500000000E+03 0.  0.
        -13    1    3    3    0    0  0.23965691660E+02 -0.15896728804E+02 -0.38647306401E+02  0.48173497066E+02  0.10566000000E+00 0.  1.
         23    2    1    0    0    0  0.31843925831E+02  0.70822637306E+01 -0.17735991893E+01  0.92329834314E+02  0.86356578085E+02 0.  0.
         13    1    3    3    0    0  0.78782341708E+01  0.22978992535E+02  0.36873707212E+02  0.44156337248E+02  0.10566000000E+00 0. -1.
         22    1    1    0    0    0 -0.31843925831E+02 -0.70822637306E+01  0.17735991893E+01  0.32670165686E+02  0.00000000000E+00 0.  1.
</event>
<event>
 5    1  0.1285375E-004  0.9118800E+02  0.7818608E-02  0.1130116E+00
         25   -1    0    0    0    0  0.00000000000E+00  0.00000000000E+00  0.99999998245E-14  0.12500000000E+03  0.12500000000E+03 0.  0.
        -13    1    3    3    0    0 -0.34066751901E+02  0.27538355752E+02  0.31931691344E+02  0.54208382182E+02  0.10566000000E+00 0. -1.
         23    2    1    0    0    0  0.22628111748E+01  0.67092859450E+01  0.27827053538E+02  0.96286244744E+02  0.91905174969E+02 0.  0.
         13    1    3    3    0    0  0.36329563075E+02 -0.20829069807E+02 -0.41046378068E+01  0.42077862563E+02  0.10566000000E+00 0.  1.
         22    1    1    0    0    0 -0.22628111748E+01 -0.67092859450E+01 -0.27827053538E+02  0.28713755256E+02  0.00000000000E+00 0.  1.
</event>
<event>
 5    1  0.1285375E-004  0.9118800E+02  0.7818608E-02  0.1130116E+00
         25   -1    0    0    0    0  0.00000000000E+00  0.00000000000E+00  0.99999998245E-14  0.12500000000E+03  0.12500000000E+03 0.  0.
        -13    1    3    3    0    0  0.26267747603E+02 -0.26819158533E+02  0.43243273831E+02  0.57264768612E+02  0.10566000000E+00 0.  1.
         23    2    1    0    0    0  0.24425862392E+02 -0.13932271353E+02  0.66504203855E+01  0.96104342369E+02  0.91657436099E+02 0.  0.
         13    1    3    3    0    0 -0.18418852112E+01  0.12886887180E+02 -0.36592853445E+02  0.38839573757E+02  0.10566000000E+00 0. -1.
         22    1    1    0    0    0 -0.24425862392E+02  0.13932271353E+02 -0.66504203855E+01  0.28895657631E+02  0.00000000000E+00 0.  1.
</event>
<event>
 5    1  0.1285375E-004  0.9118800E+02  0.7818608E-02  0.1130116E+00
         25   -1    0    0    0    0  0.00000000000E+00  0.00000000000E+00  0.99999998245E-14  0.12500000000E+03  0.12500000000E+03 0.  0.
        -13    1    3    3    0    0 -0.18253250861E+02  0.37444858146E+02 -0.24411034426E+02  0.48282588314E+02  0.10566000000E+00 0. -1.
         23    2    1    0    0    0 -0.27402312134E+02 -0.59645829644E+01 -0.59605441724E+01  0.96329613761E+02  0.91964142144E+02 0.  0.
         13    1    3    3    0    0 -0.91490612730E+01 -0.43409441110E+02  0.18450490254E+02  0.48047025447E+02  0.10566000000E+00 0.  1.
         22    1    1    0    0    0  0.27402312134E+02  0.59645829644E+01  0.59605441724E+01  0.28670386239E+02  0.00000000000E+00 0.  1.
</event>
<event>
 5    1  0.1285375E-004  0.9118800E+02  0.7818608E-02  0.1130116E+00
         25   -1    0    0    0    0  0.00000000000E+00  0.00000000000E+00  0.99999998245E-14  0.12500000000E+03  0.12500000000E+03 0.  0.
        -13    1    3    3    0    0  0.91844370263E+01 -0.32547613065E+02  0.16811913717E+02  0.37767083638E+02  0.10566000000E+00 0.  1.
         23    2    1    0    0    0  0.82292835115E+01  0.24297469313E+02 -0.53637005948E+01  0.98792035444E+02  0.95252343073E+02 0.  0.
         13    1    3    3    0    0 -0.95515351471E+00  0.56845082377E+02 -0.22175614311E+02  0.61024951805E+02  0.10566000000E+00 0. -1.
         22    1    1    0    0    0 -0.82292835115E+01 -0.24297469313E+02  0.53637005948E+01  0.26207964556E+02  0.00000000000E+00 0. -1.
</event>
<event>
 5    1  0.1285375E-004  0.9118800E+02  0.7818608E-02  0.1130116E+00
         25   -1    0    0    0    0  0.00000000000E+00  0.00000000000E+00  0.99999998245E-14  0.12500000000E+03  0.12500000000E+03 0.  0.
        -13    1    3    3    0    0  0.38601660653E+02 -0.26818814061E+02 -0.65380967652E+01  0.47456241593E+02  0.10566000000E+00 0. -1.
         23    2    1    0    0    0  0.17253830807E+02  0.13317383922E+02 -0.20567410226E+02  0.95032254749E+02  0.90183500083E+02 0.  0.
         13    1    3    3    0    0 -0.21347829846E+02  0.40136197982E+02 -0.14029313461E+02  0.47576013156E+02  0.10566000000E+00 0.  1.
         22    1    1    0    0    0 -0.17253830807E+02 -0.13317383922E+02  0.20567410226E+02  0.29967745251E+02  0.00000000000E+00 0. -1.
</event>
<event>
 5    1  0.1285375E-004  0.9118800E+02  0.7818608E-02  0.1130116E+00
         25   -1    0    0    0    0  0.00000000000E+00  0.00000000000E+00  0.99999998245E-14  0.12500000000E+03  0.12500000000E+03 0.  0.
        -13    1    3    3    0    0 -0.56807082370E+02 -0.17708033618E+01 -0.98219321296E+01  0.57677221385E+02  0.10566000000E+00 0.  1.
         23    2    1    0    0    0 -0.22374584152E+02  0.15226129210E+02 -0.10198319163E+02  0.96078334411E+02  0.91621960264E+02 0.  0.
         13    1    3    3    0    0  0.34432498218E+02  0.16996932572E+02 -0.37638703309E+00  0.38401113026E+02  0.10566000000E+00 0. -1.
         22    1    1    0    0    0  0.22374584152E+02 -0.15226129210E+02  0.10198319163E+02  0.28921665589E+02  0.00000000000E+00 0.  1.
</event>
<event>
 5    1  0.1285375E-004  0.9118800E+02  0.7818608E-02  0.1130116E+00
         25   -1    0    0    0    0  0.00000000000E+00  0.00000000000E+00  0.99999998245E-14  0.12500000000E+03  0.12500000000E+03 0.  0.
        -13    1    3    3    0    0 -0.12609691052E+02 -0.25077333143E+02  0.47370489352E+02  0.55062249967E+02  0.10566000000E+00 0.  1.
         23    2    1    0    0    0 -0.24877514054E+02 -0.99395136250E+01  0.11576437942E+02  0.95816125137E+02  0.91263526582E+02 0.  0.
         13    1    3    3    0    0 -0.12267823002E+02  0.15137819518E+02 -0.35794051410E+02  0.40753875170E+02  0.10566000000E+00 0. -1.
         22    1    1    0    0    0  0.24877514054E+02  0.99395136250E+01 -0.11576437942E+02  0.29183874863E+02  0.00000000000E+00 0.  1.
</event>
<event>
 5    1  0.1285375E-004  0.9118800E+02  0.7818608E-02  0.1130116E+00
         25   -1    0    0    0    0  0.00000000000E+00  0.00000000000E+00  0.99999998245E-14  0.12500000000E+03  0.12500000000E+03 0.  0.
        -13    1    3    3    0    0  0.23429836203E+02 -0.23286255334E+02  0.92497694800E+01  0.34304173382E+02  0.10566000000E+00 0.  1.
         23    2    1    0    0    0 -0.49111105789E+01  0.29643556277E+02  0.54322933887E+01  0.94465278005E+02  0.89394180466E+02 0.  0.
         13    1    3    3    0    0 -0.28340946782E+02  0.52929811611E+02 -0.38174760912E+01  0.60161104622E+02  0.10566000000E+00 0. -1.
         22    1    1    0    0    0  0.49111105789E+01 -0.29643556277E+02 -0.54322933887E+01  0.30534721995E+02  0.00000000000E+00 0. -1.
</event>
<event>
 5    1  0.1285375E-004  0.9118800E+02  0.7818608E-02  0.1130116E+00
         25   -1    0    0    0    0  0.00000000000E+00  0.00000000000E+00  0.99999998245E-14  0.12500000000E+03  0.12500000000E+03 0.  0.
        -13    1    3    3    0    0  0.54937595840E+01 -0.23168113618E+01 -0.38162268345E+02  0.38625365998E+02  0.10566000000E+00 0. -1.
         23    2    1    0    0    0 -0.27999445781E+02 -0.11566129718E+02  0.52743799189E+01  0.94249985297E+02  0.89092627777E+02 0.  0.
         13    1    3    3    0    0 -0.33493205365E+02 -0.92493183560E+01  0.43436648264E+02  0.55624619299E+02  0.10566000000E+00 0.  1.
         22    1    1    0    0    0  0.27999445781E+02  0.11566129718E+02 -0.52743799189E+01  0.30750014703E+02  0.00000000000E+00 0.  1.
</event>
<event>
 5    1  0.1285375E-004  0.9118800E+02  0.7818608E-02  0.1130116E+00
         25   -1    0    0    0    0  0.00000000000E+00  0.00000000000E+00  0.99999998245E-14  0.12500000000E+03  0.12500000000E+03 0.  0.
        -13    1    3    3    0    0 -0.10986529612E+02 -0.39020730904E+02  0.19838590289E+01  0.40586551145E+02  0.10566000000E+00 0.  1.
         23    2    1    0    0    0  0.24716585480E+02  0.48385326745E+01  0.10377500870E+02  0.97760074880E+02  0.93888331118E+02 0.  0.
         13    1    3    3    0    0  0.35703115092E+02  0.43859263578E+02  0.83936418412E+01  0.57173523735E+02  0.10566000000E+00 0. -1.
         22    1    1    0    0    0 -0.24716585480E+02 -0.48385326745E+01 -0.10377500870E+02  0.27239925120E+02  0.00000000000E+00 0. -1.
</event>
<event>
 5    1  0.1285375E-004  0.9118800E+02  0.7818608E-02  0.1130116E+00
         25   -1    0    0    0    0  0.00000000000E+00  0.00000000000E+00  0.99999998245E-14  0.12500000000E+03  0.12500000000E+03 0.  0.
        -13    1    3    3    0    0 -0.38050719798E+02  0.81695411208E+01  0.17648876820E+02  0.42732805856E+02  0.10566000000E+00 0. -1.
         23    2    1    0    0    0  0.12568271658E+02 -0.15598904376E+01  0.27052985596E+02  0.95129299635E+02  0.90317910233E+02 0.  0.
         13    1    3    3    0    0  0.50618991456E+02 -0.97294315584E+01  0.94041087753E+01  0.52396493779E+02  0.10566000000E+00 0.  1.
         22    1    1    0    0    0 -0.12568271658E+02  0.15598904376E+01 -0.27052985596E+02  0.29870700365E+02  0.00000000000E+00 0.  1.
</event>
<event>
 5    1  0.1285375E-004  0.9118800E+02  0.7818608E-02  0.1130116E+00
         25   -1    0    0    0    0  0.00000000000E+00  0.00000000000E+00  0.99999998245E-14  0.12500000000E+03  0.12500000000E+03 0.  0.
        -13    1    3    3    0    0 -0.21315047337E+02 -0.36703453133E+02  0.36155847770E+02  0.55755997049E+02  0.10566000000E+00 0.  1.
         23    2    1    0    0    0 -0.20951887580E+02 -0.80973222980E+00  0.22718851885E+02  0.94084251741E+02  0.88859793693E+02 0.  0.
         13    1    3    3    0    0  0.36315975716E+00  0.35893720904E+02 -0.13436995884E+02  0.38328254692E+02  0.10566000000E+00 0. -1.
         22    1    1    0    0    0  0.20951887580E+02  0.80973222980E+00 -0.22718851885E+02  0.30915748259E+02  0.00000000000E+00 0.  1.
</event>
<event>
 5    1  0.1285375E-004  0.9118800E+02  0.7818608E-02  0.1130116E+00
         25   -1    0    0    0    0  0.00000000000E+00  0.00000000000E+00  0.99999998245E-14  0.12500000000E+03  0.12500000000E+03 0.  0.
        -13    1    3    3    0    0  0.45100708467E+02  0.41340689029E+02  0.34769009780E+01  0.61279902726E+02  0.10566000000E+00 0. -1.
         23    2    1    0    0    0  0.20880646522E+02  0.28053587872E+02  0.76022266246E+01  0.89211747160E+02  0.81718644079E+02 0.  0.
         13    1    3    3    0    0 -0.24220061945E+02 -0.13287101157E+02  0.41253256466E+01  0.27931844435E+02  0.10566000000E+00 0.  1.
         22    1    1    0    0    0 -0.20880646522E+02 -0.28053587872E+02 -0.76022266246E+01  0.35788252840E+02  0.00000000000E+00 0. -1.
</event>
<event>
 5    1  0.1285375E-004  0.9118800E+02  0.7818608E-02  0.1130116E+00
         25   -1    0    0    0    0  0.00000000000E+00  0.00000000000E+00  0.99999998245E-14  0.12500000000E+03  0.12500000000E+03 0.  0.
        -13    1    3    3    0    0  0.27718958224E+02  0.35241111499E+01  0.22052673600E+02  0.35596229876E+02  0.10566000000E+00 0.  1.
         23    2    1    0    0    0 -0.33469749801E+01  0.23946918795E+01 -0.29184688173E+02  0.95526574436E+02  0.90866075128E+02 0.  0.
         13    1    3    3    0    0 -0.31065933204E+02 -0.11294192704E+01 -0.51237361773E+02  0.59930344561E+02  0.10566000000E+00 0. -1.
         22    1    1    0    0    0  0.33469749801E+01 -0.23946918795E+01  0.29184688173E+02  0.29473425564E+02  0.00000000000E+00 0. -1.
</event>
<event>
 5    1  0.1285375E-004  0.9118800E+02  0.7818608E-02  0.1130116E+00
         25   -1    0    0    0    0  0.00000000000E+00  0.00000000000E+00  0.99999998245E-14  0.12500000000E+03  0.12500000000E+03 0.  0.
        -13    1    3    3    0    0 -0.39121876863E+02 -0.24103661782E+02  0.38713224709E+02  0.60085211925E+02  0.10566000000E+00 0.  1.
         23    2    1    0    0    0 -0.11663924501E+02 -0.15482377634E+02  0.28314085142E+02  0.90686175243E+02  0.83943694289E+02 0.  0.
         13    1    3    3    0    0  0.27457952362E+02  0.86212841485E+01 -0.10399139566E+02  0.30600963319E+02  0.10566000000E+00 0. -1.
         22    1    1    0    0    0  0.11663924501E+02  0.15482377634E+02 -0.28314085142E+02  0.34313824757E+02  0.00000000000E+00 0.  1.
</event>
<event>
 5    1  0.1285375E-004  0.9118800E+02  0.7818608E-02  0.1130116E+00
         25   -1    0    0    0    0  0.00000000000E+00  0.00000000000E+00  0.99999998245E-14  0.12500000000E+03  0.12500000000E+03 0.  0.
        -13    1    3    3    0    0 -0.13472517493E+01  0.25669159354E+01  0.37043523094E+02  0.37156936257E+02  0.10566000000E+00 0.  1.
         23    2    1    0    0    0 -0.84734894687E+01 -0.21871033499E+02 -0.16418066746E+02  0.96369683101E+02  0.92018589292E+02 0.  0.
         13    1    3    3    0    0 -0.71262377194E+01 -0.24437949434E+02 -0.53461589840E+02  0.59212746844E+02  0.10566000000E+00 0. -1.
         22    1    1    0    0    0  0.84734894687E+01  0.21871033499E+02  0.16418066746E+02  0.28630316899E+02  0.00000000000E+00 0. -1.
</event>
<event>
 5    1  0.1285375E-004  0.9118800E+02  0.7818608E-02  0.1130116E+00
         25   -1    0    0    0    0  0.00000000000E+00  0.00000000000E+00  0.99999998245E-14  0.12500000000E+03  0.12500000000E+03 0.  0.
        -13    1    3    3    0    0 -0.94331613188E-01 -0.93612515010E+01 -0.42566559361E+02  0.43584000137E+02  0.10566000000E+00 0.  1.
         23    2    1    0    0    0  0.99074159706E+01  0.17827246275E+02  0.89813394203E+01  0.10271475693E+03  0.10026808681E+03 0.  0.
         13    1    3    3    0    0  0.10001747584E+02  0.27188497776E+02  0.51547898781E+02  0.59130756792E+02  0.10566000000E+00 0. -1.
         22    1    1    0    0    0 -0.99074159706E+01 -0.17827246275E+02 -0.89813394203E+01  0.22285243071E+02  0.00000000000E+00 0. -1.
</event>
<event>
 5    1  0.1285375E-004  0.9118800E+02  0.7818608E-02  0.1130116E+00
         25   -1    0    0    0    0  0.00000000000E+00  0.00000000000E+00  0.99999998245E-14  0.12500000000E+03  0.12500000000E+03 0.  0.
        -13    1    3    3    0    0  0.25012865398E+02  0.52569990087E+02  0.10606176745E+02  0.59175581471E+02  0.10566000000E+00 0.  1.
         23    2    1    0    0    0 -0.60726184837E+00  0.26818847745E+02  0.12188175132E+02  0.95535258794E+02  0.90878020986E+02 0.  0.
         13    1    3    3    0    0 -0.25620127247E+02 -0.25751142343E+02  0.15819983864E+01  0.36359677323E+02  0.10566000000E+00 0. -1.
         22    1    1    0    0    0  0.60726184837E+00 -0.26818847745E+02 -0.12188175132E+02  0.29464741206E+02  0.00000000000E+00 0.  1.
</event>
<event>
 5    1  0.1285375E-004  0.9118800E+02  0.7818608E-02  0.1130116E+00
         25   -1    0    0    0    0  0.00000000000E+00  0.00000000000E+00  0.99999998245E-14  0.12500000000E+03  0.12500000000E+03 0.  0.
        -13    1    3    3    0    0 -0.39138700580E+02 -0.28606834438E+02  0.22962499923E+02  0.53642114299E+02  0.10566000000E+00 0. -1.
         23    2    1    0    0    0 -0.19368756949E+02 -0.18735522743E+02 -0.12396242340E+02  0.95337980811E+02  0.90606264700E+02 0.  0.
         13    1    3    3    0    0  0.19769943631E+02  0.98713116952E+01 -0.35358742263E+02  0.41695866512E+02  0.10566000000E+00 0.  1.
         22    1    1    0    0    0  0.19368756949E+02  0.18735522743E+02  0.12396242340E+02  0.29662019189E+02  0.00000000000E+00 0. -1.
</event>
<event>
 5    1  0.1285375E-004  0.9118800E+02  0.7818608E-02  0.1130116E+00
         25   -1    0    0    0    0  0.00000000000E+00  0.00000000000E+00  0.99999998245E-14  0.12500000000E+03  0.12500000000E+03 0.  0.
        -13    1    3    3    0    0 -0.25557765798E+02 -0.18823091261E+02  0.26445244090E+02  0.41314286345E+02  0.10566000000E+00 0.  1.
         23    2    1    0    0    0  0.19249055866E+02 -0.22014970935E+02 -0.38618298521E+01  0.95502562369E+02  0.90833036898E+02 0.  0.
         13    1    3    3    0    0  0.44806821664E+02 -0.31918796748E+01 -0.30307073942E+02  0.54188276024E+02  0.10566000000E+00 0. -1.
         22    1    1    0    0    0 -0.19249055866E+02  0.22014970935E+02  0.38618298521E+01  0.29497437631E+02  0.00000000000E+00 0. -1.
</event>
<event>
 5    1  0.1285375E-004  0.9118800E+02  0.7818608E-02  0.1130116E+00
         25   -1    0    0    0    0  0.00000000000E+00  0.00000000000E+00  0.99999998245E-14  0.12500000000E+03  0.12500000000E+03 0.  0.
        -13    1    3    3    0    0  0.22431360076E+02 -0.56886982684E+02  0.89601799727E+01  0.61802837337E+02  0.10566000000E+00 0. -1.
         23    2    1    0    0    0  0.42396004321E+01 -0.28559753503E+02  0.33349603966E+01  0.95935318807E+02  0.91426635626E+02 0.  0.
         13    1    3    3    0    0 -0.18191759644E+02  0.28327229181E+02 -0.56252195762E+01  0.34132481470E+02  0.10566000000E+00 0.  1.
         22    1    1    0    0    0 -0.42396004321E+01  0.28559753503E+02 -0.33349603966E+01  0.29064681193E+02  0.00000000000E+00 0. -1.
</event>
<event>
 5    1  0.1285375E-004  0.9118800E+02  0.7818608E-02  0.1130116E+00
         25   -1    0    0    0    0  0.00000000000E+00  0.00000000000E+00  0.99999998245E-14  0.12500000000E+03  0.12500000000E+03 0.  0.
        -13    1    3    3    0    0  0.48249233563E+02  0.12816506348E+02  0.15138522471E+02  0.52167397875E+02  0.10566000000E+00 0. -1.
         23    2    1    0    0    0  0.88006127086E+01  0.27134428902E+02  0.11329281680E+02  0.94306667837E+02  0.89172119855E+02 0.  0.
         13    1    3    3    0    0 -0.39448620854E+02  0.14317922553E+02 -0.38092407908E+01  0.42139269963E+02  0.10566000000E+00 0.  1.
         22    1    1    0    0    0 -0.88006127086E+01 -0.27134428902E+02 -0.11329281680E+02  0.30693332163E+02  0.00000000000E+00 0. -1.
</event>
<event>
 5    1  0.1285375E-004  0.9118800E+02  0.7818608E-02  0.1130116E+00
         25   -1    0    0    0    0  0.00000000000E+00  0.00000000000E+00  0.99999998245E-14  0.12500000000E+03  0.12500000000E+03 0.  0.
        -13    1    3    3    0    0  0.23538237875E+02 -0.30445901466E+02  0.47580827662E+02  0.61195979307E+02  0.10566000000E+00 0.  1.
         23    2    1    0    0    0  0.12784400773E+01 -0.13678475758E+02  0.22216699801E+02  0.98878804427E+02  0.95366142351E+02 0.  0.
         13    1    3    3    0    0 -0.22259797798E+02  0.16767425707E+02 -0.25364127861E+02  0.37682825120E+02  0.10566000000E+00 0. -1.
         22    1    1    0    0    0 -0.12784400773E+01  0.13678475758E+02 -0.22216699801E+02  0.26121195573E+02  0.00000000000E+00 0.  1.
</event>
<event>
 5    1  0.1285375E-004  0.9118800E+02  0.7818608E-02  0.1130116E+00
         25   -1    0    0    0    0  0.00000000000E+00  0.00000000000E+00  0.99999998245E-14  0.12500000000E+03  0.12500000000E+03 0.  0.
        -13    1    3    3    0    0 -0.25430148330E+02  0.27100288097E+02 -0.66698900750E+01  0.37757339110E+02  0.10566000000E+00 0. -1.
         23    2    1    0    0    0  0.42329275429E+01 -0.22531861144E+02 -0.16954541451E+02  0.96485811988E+02  0.92176206241E+02 0.  0.
         13    1    3    3    0    0  0.29663075873E+02 -0.49632149241E+02 -0.10284651376E+02  0.58728472877E+02  0.10566000000E+00 0.  1.
         22    1    1    0    0    0 -0.42329275429E+01  0.22531861144E+02  0.16954541451E+02  0.28514188012E+02  0.00000000000E+00 0.  1.
</event>
<event>
 5    1  0.1285375E-004  0.9118800E+02  0.7818608E-02  0.1130116E+00
         25   -1    0    0    0    0  0.00000000000E+00  0.00000000000E+00  0.99999998245E-14  0.12500000000E+03  0.12500000000E+03 0.  0.
        -13    1    3    3    0    0  0.48271142623E+02  0.11931166255E+01  0.20530592962E+02  0.52469449672E+02  0.10566000000E+00 0. -1.
         23    2    1    0    0    0  0.18102787351E+02  0.23794244044E+02  0.62993999445E+00  0.95095589223E+02  0.90271242961E+02 0.  0.
         13    1    3    3    0    0 -0.30168355273E+02  0.22601127419E+02 -0.19900652968E+02  0.42626139551E+02  0.10566000000E+00 0.  1.
         22    1    1    0    0    0 -0.18102787351E+02 -0.23794244044E+02 -0.62993999445E+00  0.29904410777E+02  0.00000000000E+00 0. -1.
</event>
<event>
 5    1  0.1285375E-004  0.9118800E+02  0.7818608E-02  0.1130116E+00
         25   -1    0    0    0    0  0.00000000000E+00  0.00000000000E+00  0.99999998245E-14  0.12500000000E+03  0.12500000000E+03 0.  0.
        -13    1    3    3    0    0  0.53149066972E+02  0.19075033234E+02  0.48666458166E+01  0.56677822986E+02  0.10566000000E+00 0. -1.
         23    2    1    0    0    0  0.17410512014E+02  0.22308512835E+02 -0.92335771026E+01  0.95233330391E+02  0.90461774235E+02 0.  0.
         13    1    3    3    0    0 -0.35738554959E+02  0.32334796018E+01 -0.14100222919E+02  0.38555507405E+02  0.10566000000E+00 0.  1.
         22    1    1    0    0    0 -0.17410512014E+02 -0.22308512835E+02  0.92335771026E+01  0.29766669609E+02  0.00000000000E+00 0. -1.
</event>
<event>
 5    1  0.1285375E-004  0.9118800E+02  0.7818608E-02  0.1130116E+00
         25   -1    0    0    0    0  0.00000000000E+00  0.00000000000E+00  0.99999998245E-14  0.12500000000E+03  0.12500000000E+03 0.  0.
        -13    1    3    3    0    0 -0.39544179473E+02 -0.91785292323E+01  0.20696075700E+02  0.45566722973E+02  0.10566000000E+00 0. -1.
         23    2    1    0    0    0  0.10518092846E+02 -0.29148526036E+00  0.26255231103E+02  0.96714802439E+02  0.92486218486E+02 0.  0.
         13    1    3    3    0    0  0.50062272319E+02  0.88870439719E+01  0.55591554034E+01  0.51148079467E+02  0.10566000000E+00 0.  1.
         22    1    1    0    0    0 -0.10518092846E+02  0.29148526036E+00 -0.26255231103E+02  0.28285197561E+02  0.00000000000E+00 0.  1.
</event>
<event>
 5    1  0.1285375E-004  0.9118800E+02  0.7818608E-02  0.1130116E+00
         25   -1    0    0    0    0  0.00000000000E+00  0.00000000000E+00  0.99999998245E-14  0.12500000000E+03  0.12500000000E+03 0.  0.
        -13    1    3    3    0    0 -0.37470821216E+01  0.28223282120E+02  0.24709343730E+02  0.37698237488E+02  0.10566000000E+00 0. -1.
         23    2    1    0    0    0  0.16575325287E+02 -0.22723547529E+02  0.29048745702E+01  0.96723873728E+02  0.92498477998E+02 0.  0.
         13    1    3    3    0    0  0.20322407408E+02 -0.50946829650E+02 -0.21804469160E+02  0.59025636240E+02  0.10566000000E+00 0.  1.
         22    1    1    0    0    0 -0.16575325287E+02  0.22723547529E+02 -0.29048745702E+01  0.28276126272E+02  0.00000000000E+00 0.  1.
</event>
<event>
 5    1  0.1285375E-004  0.9118800E+02  0.7818608E-02  0.1130116E+00
         25   -1    0    0    0    0  0.00000000000E+00  0.00000000000E+00  0.99999998245E-14  0.12500000000E+03  0.12500000000E+03 0.  0.
        -13    1    3    3    0    0 -0.38276502854E+02  0.42377193955E+02 -0.11870590483E+02  0.58325288860E+02  0.10566000000E+00 0.  1.
         23    2    1    0    0    0 -0.16512796497E+02  0.13951761512E+02 -0.20561375354E+02  0.95165552563E+02  0.90368070360E+02 0.  0.
         13    1    3    3    0    0  0.21763706357E+02 -0.28425432443E+02 -0.86907848707E+01  0.36840263702E+02  0.10566000000E+00 0. -1.
         22    1    1    0    0    0  0.16512796497E+02 -0.13951761512E+02  0.20561375354E+02  0.29834447437E+02  0.00000000000E+00 0.  1.
</event>
<event>
 5    1  0.1285375E-004  0.9118800E+02  0.7818608E-02  0.1130116E+00
         25   -1    0    0    0    0  0.00000000000E+00  0.00000000000E+00  0.99999998245E-14  0.12500000000E+03  0.12500000000E+03 0.  0.
        -13    1    3    3    0    0  0.43506175451E+02  0.38799168403E+02  0.44544485137E+01  0.58463801166E+02  0.10566000000E+00 0.  1.
         23    2    1    0    0    0  0.18026498422E+02  0.19677843484E+02 -0.13565039135E+02  0.95063693343E+02  0.90227065428E+02 0.  0.
         13    1    3    3    0    0 -0.25479677030E+02 -0.19121324919E+02 -0.18019487649E+02  0.36599892177E+02  0.10566000000E+00 0. -1.
         22    1    1    0    0    0 -0.18026498422E+02 -0.19677843484E+02  0.13565039135E+02  0.29936306657E+02  0.00000000000E+00 0.  1.
</event>
<event>
 5    1  0.1285375E-004  0.9118800E+02  0.7818608E-02  0.1130116E+00
         25   -1    0    0    0    0  0.00000000000E+00  0.00000000000E+00  0.99999998245E-14  0.12500000000E+03  0.12500000000E+03 0.  0.
        -13    1    3    3    0    0 -0.76905528109E+01  0.18414148315E+02  0.33166980945E+02  0.38707689801E+02  0.10566000000E+00 0.  1.
         23    2    1    0    0    0  0.11070335359E+02 -0.27193865770E+02  0.59264593339E+01  0.95047010488E+02  0.90203950146E+02 0.  0.
         13    1    3    3    0    0  0.18760888170E+02 -0.45608014085E+02 -0.27240521611E+02  0.56339320686E+02  0.10566000000E+00 0. -1.
         22    1    1    0    0    0 -0.11070335359E+02  0.27193865770E+02 -0.59264593339E+01  0.29952989512E+02  0.00000000000E+00 0. -1.
</event>
<event>
 5    1  0.1285375E-004  0.9118800E+02  0.7818608E-02  0.1130116E+00
         25   -1    0    0    0    0  0.00000000000E+00  0.00000000000E+00  0.99999998245E-14  0.12500000000E+03  0.12500000000E+03 0.  0.
        -13    1    3    3    0    0 -0.12736891107E+02 -0.36032015470E+02  0.39348016970E+01  0.38419114544E+02  0.10566000000E+00 0.  1.
         23    2    1    0    0    0 -0.12313272247E+02  0.17769942367E+02  0.20996199040E+02  0.94863180339E+02  0.89948847045E+02 0.  0.
         13    1    3    3    0    0  0.42361885951E+00  0.53801957838E+02  0.17061397343E+02  0.56444065795E+02  0.10566000000E+00 0. -1.
         22    1    1    0    0    0  0.12313272247E+02 -0.17769942367E+02 -0.20996199040E+02  0.30136819661E+02  0.00000000000E+00 0.  1.
</event>
<event>
 5    1  0.1285375E-004  0.9118800E+02  0.7818608E-02  0.1130116E+00
         25   -1    0    0    0    0  0.00000000000E+00  0.00000000000E+00  0.99999998245E-14  0.12500000000E+03  0.12500000000E+03 0.  0.
        -13    1    3    3    0    0 -0.27236508511E+02  0.49345143907E+02  0.13391083845E+02  0.57931881669E+02  0.10566000000E+00 0.  1.
         23    2    1    0    0    0  0.25051205346E+01  0.25261586300E+02  0.13596910898E+02  0.96202441818E+02  0.91791124051E+02 0.  0.
         13    1    3    3    0    0  0.29741629046E+02 -0.24083557607E+02  0.20582705314E+00  0.38270560149E+02  0.10566000000E+00 0. -1.
         22    1    1    0    0    0 -0.25051205346E+01 -0.25261586300E+02 -0.13596910898E+02  0.28797558182E+02  0.00000000000E+00 0.  1.
</event>
<event>
 5    1  0.1285375E-004  0.9118800E+02  0.7818608E-02  0.1130116E+00
         25   -1    0    0    0    0  0.00000000000E+00  0.00000000000E+00  0.99999998245E-14  0.12500000000E+03  0.12500000000E+03 0.  0.
        -13    1    3    3    0    0  0.80923995559E+00  0.39516933149E+02 -0.14375040415E+01  0.39551491208E+02  0.10566000000E+00 0. -1.
         23    2    1    0    0    0 -0.14338551893E+02 -0.11111593657E+02 -0.22201055533E+02  0.96330356633E+02  0.91965151869E+02 0.  0.
         13    1    3    3    0    0 -0.15147791848E+02 -0.50628526806E+02 -0.20763551492E+02  0.56778865426E+02  0.10566000000E+00 0.  1.
         22    1    1    0    0    0  0.14338551893E+02  0.11111593657E+02  0.22201055533E+02  0.28669643367E+02  0.00000000000E+00 0.  1.
</event>
<event>
 5    1  0.1285375E-004  0.9118800E+02  0.7818608E-02  0.1130116E+00
         25   -1    0    0    0    0  0.00000000000E+00  0.00000000000E+00  0.99999998245E-14  0.12500000000E+03  0.12500000000E+03 0.  0.
        -13    1    3    3    0    0  0.28915565216E+02 -0.23186585164E+02  0.17181794649E+02  0.40852819667E+02  0.10566000000E+00 0.  1.
         23    2    1    0    0    0 -0.20580923256E+02 -0.24285148560E+02  0.28460180452E+00  0.93165681399E+02  0.87558096997E+02 0.  0.
         13    1    3    3    0    0 -0.49496488471E+02 -0.10985633957E+01 -0.16897192845E+02  0.52312861732E+02  0.10566000000E+00 0. -1.
         22    1    1    0    0    0  0.20580923256E+02  0.24285148560E+02 -0.28460180452E+00  0.31834318601E+02  0.00000000000E+00 0.  1.
</event>
<event>
 5    1  0.1285375E-004  0.9118800E+02  0.7818608E-02  0.1130116E+00
         25   -1    0    0    0    0  0.00000000000E+00  0.00000000000E+00  0.99999998245E-14  0.12500000000E+03  0.12500000000E+03 0.  0.
        -13    1    3    3    0    0 -0.12063387316E+02 -0.43342356855E+02 -0.31493759043E+02  0.54917695090E+02  0.10566000000E+00 0.  1.
         23    2    1    0    0    0 -0.22298814180E+02 -0.14435642765E+02 -0.62526385830E+00  0.98429041215E+02  0.94774787279E+02 0.  0.
         13    1    3    3    0    0 -0.10235426864E+02  0.28906714091E+02  0.30868495184E+02  0.43511346125E+02  0.10566000000E+00 0. -1.
         22    1    1    0    0    0  0.22298814180E+02  0.14435642765E+02  0.62526385830E+00  0.26570958785E+02  0.00000000000E+00 0.  1.
</event>
<event>
 5    1  0.1285375E-004  0.9118800E+02  0.7818608E-02  0.1130116E+00
         25   -1    0    0    0    0  0.00000000000E+00  0.00000000000E+00  0.99999998245E-14  0.12500000000E+03  0.12500000000E+03 0.  0.
        -13    1    3    3    0    0 -0.53790101521E+02 -0.13688018581E+02  0.64214564769E+01  0.55874709320E+02  0.10566000000E+00 0. -1.
         23    2    1    0    0    0 -0.21076172711E+02  0.39362791236E+01  0.20234923482E+02  0.95518624900E+02  0.90855138682E+02 0.  0.
         13    1    3    3    0    0  0.32713928810E+02  0.17624297705E+02  0.13813467005E+02  0.39643915580E+02  0.10566000000E+00 0.  1.
         22    1    1    0    0    0  0.21076172711E+02 -0.39362791236E+01 -0.20234923482E+02  0.29481375100E+02  0.00000000000E+00 0. -1.
</event>
<event>
 5    1  0.1285375E-004  0.9118800E+02  0.7818608E-02  0.1130116E+00
         25   -1    0    0    0    0  0.00000000000E+00  0.00000000000E+00  0.99999998245E-14  0.12500000000E+03  0.12500000000E+03 0.  0.
        -13    1    3    3    0    0 -0.25056545641E+02  0.74343334792E+01  0.27588966521E+02  0.38003447626E+02  0.10566000000E+00 0.  1.
         23    2    1    0    0    0 -0.21019322935E+02 -0.31058415766E+02 -0.30596954199E+01  0.87372897233E+02  0.78855718298E+02 0.  0.
         13    1    3    3    0    0  0.40372227067E+01 -0.38492749246E+02 -0.30648661941E+02  0.49369449607E+02  0.10566000000E+00 0. -1.
         22    1    1    0    0    0  0.21019322935E+02  0.31058415766E+02  0.30596954199E+01  0.37627102767E+02  0.00000000000E+00 0.  1.
</event>
<event>
 5    1  0.1285375E-004  0.9118800E+02  0.7818608E-02  0.1130116E+00
         25   -1    0    0    0    0  0.00000000000E+00  0.00000000000E+00  0.99999998245E-14  0.12500000000E+03  0.12500000000E+03 0.  0.
        -13    1    3    3    0    0 -0.40036329322E+02  0.33533689555E+02  0.20306199318E+02  0.56033640748E+02  0.10566000000E+00 0. -1.
         23    2    1    0    0    0 -0.50759184401E+01  0.28629160099E+02  0.18608805736E+01  0.95864855716E+02  0.91330246517E+02 0.  0.
         13    1    3    3    0    0  0.34960410881E+02 -0.49045294563E+01 -0.18445318744E+02  0.39831214968E+02  0.10566000000E+00 0.  1.
         22    1    1    0    0    0  0.50759184401E+01 -0.28629160099E+02 -0.18608805736E+01  0.29135144284E+02  0.00000000000E+00 0. -1.
</event>
<event>
 5    1  0.1285375E-004  0.9118800E+02  0.7818608E-02  0.1130116E+00
         25   -1    0    0    0    0  0.00000000000E+00  0.00000000000E+00  0.99999998245E-14  0.12500000000E+03  0.12500000000E+03 0.  0.
        -13    1    3    3    0    0 -0.21518014440E+02 -0.18142447642E+01  0.41557935176E+02  0.46833637160E+02  0.10566000000E+00 0.  1.
         23    2    1    0    0    0 -0.20898531558E+02 -0.15892366050E+02 -0.73536101284E+01  0.97734793199E+02  0.93854665839E+02 0.  0.
         13    1    3    3    0    0  0.61948288133E+00 -0.14078121286E+02 -0.48911545305E+02  0.50901156039E+02  0.10566000000E+00 0. -1.
         22    1    1    0    0    0  0.20898531558E+02  0.15892366050E+02  0.73536101284E+01  0.27265206801E+02  0.00000000000E+00 0.  1.
</event>
<event>
 5    1  0.1285375E-004  0.9118800E+02  0.7818608E-02  0.1130116E+00
         25   -1    0    0    0    0  0.00000000000E+00  0.00000000000E+00  0.99999998245E-14  0.12500000000E+03  0.12500000000E+03 0.  0.
        -13    1    3    3    0    0 -0.12945845655E+02 -0.26657620966E+02 -0.97289034799E+01  0.31191126980E+02  0.10566000000E+00 0.  1.
         23    2    1    0    0    0  0.17396685924E+02  0.99331037635E+00 -0.39450389818E+02  0.81872693066E+02  0.69592911036E+02 0.  0.
         13    1    3    3    0    0  0.30342531579E+02  0.27650931343E+02 -0.29721486338E+02  0.50681566086E+02  0.10566000000E+00 0. -1.
         22    1    1    0    0    0 -0.17396685924E+02 -0.99331037635E+00  0.39450389818E+02  0.43127306934E+02  0.00000000000E+00 0. -1.
</event>
<event>
 5    1  0.1285375E-004  0.9118800E+02  0.7818608E-02  0.1130116E+00
         25   -1    0    0    0    0  0.00000000000E+00  0.00000000000E+00  0.99999998245E-14  0.12500000000E+03  0.12500000000E+03 0.  0.
        -13    1    3    3    0    0  0.61744714526E+01 -0.19994818341E+02 -0.55947079350E+02  0.59732769147E+02  0.10566000000E+00 0. -1.
         23    2    1    0    0    0 -0.19078268443E+01 -0.22790556850E+02 -0.28634056489E+02  0.88353602144E+02  0.80395276826E+02 0.  0.
         13    1    3    3    0    0 -0.80822982970E+01 -0.27957385095E+01  0.27313022861E+02  0.28620832996E+02  0.10566000000E+00 0.  1.
         22    1    1    0    0    0  0.19078268443E+01  0.22790556850E+02  0.28634056489E+02  0.36646397856E+02  0.00000000000E+00 0. -1.
</event>
<event>
 5    1  0.1285375E-004  0.9118800E+02  0.7818608E-02  0.1130116E+00
         25   -1    0    0    0    0  0.00000000000E+00  0.00000000000E+00  0.99999998245E-14  0.12500000000E+03  0.12500000000E+03 0.  0.
        -13    1    3    3    0    0  0.14780705691E+02  0.29990348113E+02  0.93226517262E+01  0.34710419759E+02  0.10566000000E+00 0.  1.
         23    2    1    0    0    0 -0.19658036196E+02 -0.17475531338E+02 -0.10594483874E+02  0.96643771916E+02  0.92390167112E+02 0.  0.
         13    1    3    3    0    0 -0.34438741887E+02 -0.47465879450E+02 -0.19917135600E+02  0.61933352156E+02  0.10566000000E+00 0. -1.
         22    1    1    0    0    0  0.19658036196E+02  0.17475531338E+02  0.10594483874E+02  0.28356228084E+02  0.00000000000E+00 0. -1.
</event>
<event>
 5    1  0.1285375E-004  0.9118800E+02  0.7818608E-02  0.1130116E+00
         25   -1    0    0    0    0  0.00000000000E+00  0.00000000000E+00  0.99999998245E-14  0.12500000000E+03  0.12500000000E+03 0.  0.
        -13    1    3    3    0    0  0.15682776908E+02 -0.47648516932E+02 -0.17852762605E+02  0.53245309221E+02  0.10566000000E+00 0.  1.
         23    2    1    0    0    0  0.24476311020E+02 -0.13625243457E+02  0.68019476738E+01  0.96172867771E+02  0.91750841646E+02 0.  0.
         13    1    3    3    0    0  0.87935341113E+01  0.34023273475E+02  0.24654710278E+02  0.42927558550E+02  0.10566000000E+00 0. -1.
         22    1    1    0    0    0 -0.24476311020E+02  0.13625243457E+02 -0.68019476738E+01  0.28827132229E+02  0.00000000000E+00 0.  1.
</event>
<event>
 5    1  0.1285375E-004  0.9118800E+02  0.7818608E-02  0.1130116E+00
         25   -1    0    0    0    0  0.00000000000E+00  0.00000000000E+00  0.99999998245E-14  0.12500000000E+03  0.12500000000E+03 0.  0.
        -13    1    3    3    0    0 -0.35523778652E+02  0.47481563441E+02 -0.13172327560E+00  0.59299799592E+02  0.10566000000E+00 0.  1.
         23    2    1    0    0    0 -0.45501165322E+01  0.28447533986E+02 -0.42186924583E+01  0.95883628035E+02  0.91355935816E+02 0.  0.
         13    1    3    3    0    0  0.30973662120E+02 -0.19034029456E+02 -0.40869691827E+01  0.36583828444E+02  0.10566000000E+00 0. -1.
         22    1    1    0    0    0  0.45501165322E+01 -0.28447533986E+02  0.42186924583E+01  0.29116371965E+02  0.00000000000E+00 0.  1.
</event>
<event>
 5    1  0.1285375E-004  0.9118800E+02  0.7818608E-02  0.1130116E+00
         25   -1    0    0    0    0  0.00000000000E+00  0.00000000000E+00  0.99999998245E-14  0.12500000000E+03  0.12500000000E+03 0.  0.
        -13    1    3    3    0    0 -0.44362574118E+02 -0.67402252387E+01  0.22148921053E+02  0.50040528439E+02  0.10566000000E+00 0.  1.
         23    2    1    0    0    0 -0.38819175123E+01  0.13679085265E+02  0.25815272711E+02  0.95527725530E+02  0.90867658617E+02 0.  0.
         13    1    3    3    0    0  0.40480656605E+02  0.20419310504E+02  0.36663516580E+01  0.45487197091E+02  0.10566000000E+00 0. -1.
         22    1    1    0    0    0  0.38819175123E+01 -0.13679085265E+02 -0.25815272711E+02  0.29472274470E+02  0.00000000000E+00 0.  1.
</event>
<event>
 5    1  0.1285375E-004  0.9118800E+02  0.7818608E-02  0.1130116E+00
         25   -1    0    0    0    0  0.00000000000E+00  0.00000000000E+00  0.99999998245E-14  0.12500000000E+03  0.12500000000E+03 0.  0.
        -13    1    3    3    0    0  0.43827730719E+02  0.22056169603E+01  0.14944357886E+01  0.43908760271E+02  0.10566000000E+00 0. -1.
         23    2    1    0    0    0 -0.29550323187E+00  0.20463110111E+02  0.21170193030E+02  0.95555080735E+02  0.90905281386E+02 0.  0.
         13    1    3    3    0    0 -0.44123233951E+02  0.18257493151E+02  0.19675757241E+02  0.51646320464E+02  0.10566000000E+00 0.  1.
         22    1    1    0    0    0  0.29550323187E+00 -0.20463110111E+02 -0.21170193030E+02  0.29444919265E+02  0.00000000000E+00 0.  1.
</event>
<event>
 5    1  0.1285375E-004  0.9118800E+02  0.7818608E-02  0.1130116E+00
         25   -1    0    0    0    0  0.00000000000E+00  0.00000000000E+00  0.99999998245E-14  0.12500000000E+03  0.12500000000E+03 0.  0.
        -13    1    3    3    0    0 -0.26596698560E+02 -0.21196311023E+02 -0.10421141062E+02  0.35570764967E+02  0.10566000000E+00 0. -1.
         23    2    1    0    0    0  0.36649478438E+01  0.28578246750E+02  0.48290632729E+01  0.95785827376E+02  0.91222019513E+02 0.  0.
         13    1    3    3    0    0  0.30261646404E+02  0.49774557773E+02  0.15250204335E+02  0.60215062409E+02  0.10566000000E+00 0.  1.
         22    1    1    0    0    0 -0.36649478438E+01 -0.28578246750E+02 -0.48290632729E+01  0.29214172624E+02  0.00000000000E+00 0.  1.
</event>
<event>
 5    1  0.1285375E-004  0.9118800E+02  0.7818608E-02  0.1130116E+00
         25   -1    0    0    0    0  0.00000000000E+00  0.00000000000E+00  0.99999998245E-14  0.12500000000E+03  0.12500000000E+03 0.  0.
        -13    1    3    3    0    0  0.33624376826E+02 -0.49624979887E+02 -0.12788793152E+02  0.61292754384E+02  0.10566000000E+00 0. -1.
         23    2    1    0    0    0  0.81932670450E+01 -0.27294412187E+02 -0.43560312009E+01  0.96171375868E+02  0.91748809077E+02 0.  0.
         13    1    3    3    0    0 -0.25431109781E+02  0.22330567699E+02  0.84327619507E+01  0.34878621484E+02  0.10566000000E+00 0.  1.
         22    1    1    0    0    0 -0.81932670450E+01  0.27294412187E+02  0.43560312009E+01  0.28828624132E+02  0.00000000000E+00 0. -1.
</event>
<event>
 5    1  0.1285375E-004  0.9118800E+02  0.7818608E-02  0.1130116E+00
         25   -1    0    0    0    0  0.00000000000E+00  0.00000000000E+00  0.99999998245E-14  0.12500000000E+03  0.12500000000E+03 0.  0.
        -13    1    3    3    0    0 -0.53582560764E+02 -0.29547022340E+02  0.65260725951E+01  0.61536315577E+02  0.10566000000E+00 0.  1.
         23    2    1    0    0    0 -0.25083992929E+02 -0.10150231833E+02  0.99263144789E+01  0.96176994837E+02  0.91756464128E+02 0.  0.
         13    1    3    3    0    0  0.28498567836E+02  0.19396790508E+02  0.34002418837E+01  0.34640679260E+02  0.10566000000E+00 0. -1.
         22    1    1    0    0    0  0.25083992929E+02  0.10150231833E+02 -0.99263144789E+01  0.28823005163E+02  0.00000000000E+00 0.  1.
</event>
<event>
 5    1  0.1285375E-004  0.9118800E+02  0.7818608E-02  0.1130116E+00
         25   -1    0    0    0    0  0.00000000000E+00  0.00000000000E+00  0.99999998245E-14  0.12500000000E+03  0.12500000000E+03 0.  0.
        -13    1    3    3    0    0 -0.21171894933E+02  0.57215472415E+01 -0.54197762096E+02  0.58467031891E+02  0.10566000000E+00 0. -1.
         23    2    1    0    0    0 -0.17604416517E+02 -0.10679637625E+02 -0.21445294495E+02  0.95270035373E+02  0.90512478937E+02 0.  0.
         13    1    3    3    0    0  0.35674784151E+01 -0.16401184867E+02  0.32752467601E+02  0.36803003482E+02  0.10566000000E+00 0.  1.
         22    1    1    0    0    0  0.17604416517E+02  0.10679637625E+02  0.21445294495E+02  0.29729964627E+02  0.00000000000E+00 0. -1.
</event>
<event>
 5    1  0.1285375E-004  0.9118800E+02  0.7818608E-02  0.1130116E+00
         25   -1    0    0    0    0  0.00000000000E+00  0.00000000000E+00  0.99999998245E-14  0.12500000000E+03  0.12500000000E+03 0.  0.
        -13    1    3    3    0    0  0.10833563961E+02 -0.59274304820E+02 -0.17650737650E+01  0.60282136404E+02  0.10566000000E+00 0. -1.
         23    2    1    0    0    0 -0.63607062031E+00 -0.26936902208E+02 -0.11128034996E+02  0.95848079836E+02  0.91307283165E+02 0.  0.
         13    1    3    3    0    0 -0.11469634582E+02  0.32337402612E+02 -0.93629612309E+01  0.35565943432E+02  0.10566000000E+00 0.  1.
         22    1    1    0    0    0  0.63607062031E+00  0.26936902208E+02  0.11128034996E+02  0.29151920164E+02  0.00000000000E+00 0. -1.
</event>
<event>
 5    1  0.1285375E-004  0.9118800E+02  0.7818608E-02  0.1130116E+00
         25   -1    0    0    0    0  0.00000000000E+00  0.00000000000E+00  0.99999998245E-14  0.12500000000E+03  0.12500000000E+03 0.  0.
        -13    1    3    3    0    0  0.11259319292E+02 -0.36427834503E+02  0.19477387328E+01  0.38178059769E+02  0.10566000000E+00 0.  1.
         23    2    1    0    0    0 -0.28548110155E+02  0.29878400514E+01 -0.82834002399E+01  0.95124650611E+02  0.90311475753E+02 0.  0.
         13    1    3    3    0    0 -0.39807429447E+02  0.39415674554E+02 -0.10231138973E+02  0.56946590842E+02  0.10566000000E+00 0. -1.
         22    1    1    0    0    0  0.28548110155E+02 -0.29878400514E+01  0.82834002399E+01  0.29875349389E+02  0.00000000000E+00 0. -1.
</event>
<event>
 5    1  0.1285375E-004  0.9118800E+02  0.7818608E-02  0.1130116E+00
         25   -1    0    0    0    0  0.00000000000E+00  0.00000000000E+00  0.99999998245E-14  0.12500000000E+03  0.12500000000E+03 0.  0.
        -13    1    3    3    0    0  0.29715313135E+02  0.12890032632E+02 -0.27606782442E+02  0.42559351226E+02  0.10566000000E+00 0.  1.
         23    2    1    0    0    0  0.57183945693E+01  0.70095691329E+01  0.23769206065E+02  0.99567555115E+02  0.96264680848E+02 0.  0.
         13    1    3    3    0    0 -0.23996918566E+02 -0.58804634991E+01  0.51375988506E+02  0.57008203889E+02  0.10566000000E+00 0. -1.
         22    1    1    0    0    0 -0.57183945693E+01 -0.70095691329E+01 -0.23769206065E+02  0.25432444885E+02  0.00000000000E+00 0. -1.
</event>
<event>
 5    1  0.1285375E-004  0.9118800E+02  0.7818608E-02  0.1130116E+00
         25   -1    0    0    0    0  0.00000000000E+00  0.00000000000E+00  0.99999998245E-14  0.12500000000E+03  0.12500000000E+03 0.  0.
        -13    1    3    3    0    0  0.47313872983E+02  0.11925186372E+02 -0.53289388602E+01  0.49083820146E+02  0.10566000000E+00 0. -1.
         23    2    1    0    0    0  0.81234009581E+01 -0.10763500869E+01 -0.27747193997E+02  0.96068098104E+02  0.91607993789E+02 0.  0.
         13    1    3    3    0    0 -0.39190472025E+02 -0.13001536459E+02 -0.22418255136E+02  0.46984277958E+02  0.10566000000E+00 0.  1.
         22    1    1    0    0    0 -0.81234009581E+01  0.10763500869E+01  0.27747193997E+02  0.28931901896E+02  0.00000000000E+00 0. -1.
</event>
<event>
 5    1  0.1285375E-004  0.9118800E+02  0.7818608E-02  0.1130116E+00
         25   -1    0    0    0    0  0.00000000000E+00  0.00000000000E+00  0.99999998245E-14  0.12500000000E+03  0.12500000000E+03 0.  0.
        -13    1    3    3    0    0  0.18287404226E+02 -0.39107683332E+02  0.25451329482E+02  0.50116079110E+02  0.10566000000E+00 0. -1.
         23    2    1    0    0    0 -0.13721201923E+02 -0.63722313111E+01  0.24853640283E+02  0.95903949590E+02  0.91383737052E+02 0.  0.
         13    1    3    3    0    0 -0.32008606149E+02  0.32735452021E+02 -0.59768919917E+00  0.45787870480E+02  0.10566000000E+00 0.  1.
         22    1    1    0    0    0  0.13721201923E+02  0.63722313111E+01 -0.24853640283E+02  0.29096050410E+02  0.00000000000E+00 0.  1.
</event>
<event>
 5    1  0.1285375E-004  0.9118800E+02  0.7818608E-02  0.1130116E+00
         25   -1    0    0    0    0  0.00000000000E+00  0.00000000000E+00  0.99999998245E-14  0.12500000000E+03  0.12500000000E+03 0.  0.
        -13    1    3    3    0    0  0.43524342654E+02  0.81684283297E+01 -0.10183528453E+02  0.45440147894E+02  0.10566000000E+00 0. -1.
         23    2    1    0    0    0 -0.50818119956E+01  0.20929776965E+02 -0.18780787300E+02  0.96423815010E+02  0.92092093866E+02 0.  0.
         13    1    3    3    0    0 -0.48606154650E+02  0.12761348636E+02 -0.85972588472E+01  0.50983667116E+02  0.10566000000E+00 0.  1.
         22    1    1    0    0    0  0.50818119956E+01 -0.20929776965E+02  0.18780787300E+02  0.28576184990E+02  0.00000000000E+00 0.  1.
</event>
<event>
 5    1  0.1285375E-004  0.9118800E+02  0.7818608E-02  0.1130116E+00
         25   -1    0    0    0    0  0.00000000000E+00  0.00000000000E+00  0.99999998245E-14  0.12500000000E+03  0.12500000000E+03 0.  0.
        -13    1    3    3    0    0 -0.32150290261E+01  0.73454828584E+01  0.30774889649E+02  0.31802476743E+02  0.10566000000E+00 0.  1.
         23    2    1    0    0    0  0.15874796076E+02 -0.23818253692E+01 -0.27092508068E+02  0.93508949907E+02  0.88046791405E+02 0.  0.
         13    1    3    3    0    0  0.19089825102E+02 -0.97273082276E+01 -0.57867397717E+02  0.61706473164E+02  0.10566000000E+00 0. -1.
         22    1    1    0    0    0 -0.15874796076E+02  0.23818253692E+01  0.27092508068E+02  0.31491050093E+02  0.00000000000E+00 0. -1.
</event>
<event>
 5    1  0.1285375E-004  0.9118800E+02  0.7818608E-02  0.1130116E+00
         25   -1    0    0    0    0  0.00000000000E+00  0.00000000000E+00  0.99999998245E-14  0.12500000000E+03  0.12500000000E+03 0.  0.
        -13    1    3    3    0    0 -0.19566799707E+02  0.19481987331E+02  0.28255668856E+02  0.39506979987E+02  0.10566000000E+00 0. -1.
         23    2    1    0    0    0  0.16179582104E+02  0.18105472269E+02 -0.15628031480E+02  0.96124017400E+02  0.91684264463E+02 0.  0.
         13    1    3    3    0    0  0.35746381811E+02 -0.13765150625E+01 -0.43883700336E+02  0.56617037414E+02  0.10566000000E+00 0.  1.
         22    1    1    0    0    0 -0.16179582104E+02 -0.18105472269E+02  0.15628031480E+02  0.28875982600E+02  0.00000000000E+00 0.  1.
</event>
<event>
 5    1  0.1285375E-004  0.9118800E+02  0.7818608E-02  0.1130116E+00
         25   -1    0    0    0    0  0.00000000000E+00  0.00000000000E+00  0.99999998245E-14  0.12500000000E+03  0.12500000000E+03 0.  0.
        -13    1    3    3    0    0 -0.33011676051E+02 -0.74885635277E+01  0.42396905465E+02  0.54252724323E+02  0.10566000000E+00 0. -1.
         23    2    1    0    0    0  0.39114940959E+01  0.37367879807E+01  0.29598023146E+02  0.94911690897E+02  0.90016235893E+02 0.  0.
         13    1    3    3    0    0  0.36923170147E+02  0.11225351508E+02 -0.12798882319E+02  0.40658966574E+02  0.10566000000E+00 0.  1.
         22    1    1    0    0    0 -0.39114940959E+01 -0.37367879807E+01 -0.29598023146E+02  0.30088309103E+02  0.00000000000E+00 0. -1.
</event>
<event>
 5    1  0.1285375E-004  0.9118800E+02  0.7818608E-02  0.1130116E+00
         25   -1    0    0    0    0  0.00000000000E+00  0.00000000000E+00  0.99999998245E-14  0.12500000000E+03  0.12500000000E+03 0.  0.
        -13    1    3    3    0    0 -0.22020514240E+02 -0.30103369753E+02 -0.48209024383E+02  0.60952744925E+02  0.10566000000E+00 0. -1.
         23    2    1    0    0    0 -0.11906534731E+02 -0.50865702913E+01 -0.26204035535E+02  0.95771756041E+02  0.91202735760E+02 0.  0.
         13    1    3    3    0    0  0.10113979509E+02  0.25016799462E+02  0.22004988848E+02  0.34819011116E+02  0.10566000000E+00 0.  1.
         22    1    1    0    0    0  0.11906534731E+02  0.50865702913E+01  0.26204035535E+02  0.29228243959E+02  0.00000000000E+00 0. -1.
</event>
<event>
 5    1  0.1285375E-004  0.9118800E+02  0.7818608E-02  0.1130116E+00
         25   -1    0    0    0    0  0.00000000000E+00  0.00000000000E+00  0.99999998245E-14  0.12500000000E+03  0.12500000000E+03 0.  0.
        -13    1    3    3    0    0 -0.37795712178E+02 -0.11664365117E+02  0.43762103893E+02  0.58989034352E+02  0.10566000000E+00 0. -1.
         23    2    1    0    0    0 -0.18718158132E+02  0.94168672715E+01  0.19788855606E+02  0.96179076363E+02  0.91759299751E+02 0.  0.
         13    1    3    3    0    0  0.19077554046E+02  0.21081232389E+02 -0.23973248286E+02  0.37190042012E+02  0.10566000000E+00 0.  1.
         22    1    1    0    0    0  0.18718158132E+02 -0.94168672715E+01 -0.19788855606E+02  0.28820923637E+02  0.00000000000E+00 0. -1.
</event>
<event>
 5    1  0.1285375E-004  0.9118800E+02  0.7818608E-02  0.1130116E+00
         25   -1    0    0    0    0  0.00000000000E+00  0.00000000000E+00  0.99999998245E-14  0.12500000000E+03  0.12500000000E+03 0.  0.
        -13    1    3    3    0    0  0.87495095815E+01  0.16768329918E+02  0.15412563780E+02  0.24398546934E+02  0.10566000000E+00 0. -1.
         23    2    1    0    0    0 -0.20491898467E+02 -0.16962477584E+02 -0.27795896648E+02  0.86525912369E+02  0.77501471550E+02 0.  0.
         13    1    3    3    0    0 -0.29241408048E+02 -0.33730807502E+02 -0.43208460428E+02  0.62127365436E+02  0.10566000000E+00 0.  1.
         22    1    1    0    0    0  0.20491898467E+02  0.16962477584E+02  0.27795896648E+02  0.38474087631E+02  0.00000000000E+00 0.  1.
</event>
<event>
 5    1  0.1285375E-004  0.9118800E+02  0.7818608E-02  0.1130116E+00
         25   -1    0    0    0    0  0.00000000000E+00  0.00000000000E+00  0.99999998245E-14  0.12500000000E+03  0.12500000000E+03 0.  0.
        -13    1    3    3    0    0  0.16246554656E+02 -0.30232305358E+01 -0.45302820062E+02  0.48222890111E+02  0.10566000000E+00 0. -1.
         23    2    1    0    0    0  0.11602804575E+02 -0.27223004513E+02 -0.57038837257E+01  0.94862791466E+02  0.89948306634E+02 0.  0.
         13    1    3    3    0    0 -0.46437500812E+01 -0.24199773977E+02  0.39598936336E+02  0.46639901354E+02  0.10566000000E+00 0.  1.
         22    1    1    0    0    0 -0.11602804575E+02  0.27223004513E+02  0.57038837257E+01  0.30137208534E+02  0.00000000000E+00 0.  1.
</event>
<event>
 5    1  0.1285375E-004  0.9118800E+02  0.7818608E-02  0.1130116E+00
         25   -1    0    0    0    0  0.00000000000E+00  0.00000000000E+00  0.99999998245E-14  0.12500000000E+03  0.12500000000E+03 0.  0.
        -13    1    3    3    0    0 -0.29890988668E+02  0.91619515537E+01  0.15041015451E+02  0.34693743956E+02  0.10566000000E+00 0.  1.
         23    2    1    0    0    0  0.74279734708E+01 -0.21727374212E+02 -0.20053305153E+02  0.94514124130E+02  0.89462455993E+02 0.  0.
         13    1    3    3    0    0  0.37318962139E+02 -0.30889325765E+02 -0.35094320605E+02  0.59820380174E+02  0.10566000000E+00 0. -1.
         22    1    1    0    0    0 -0.74279734708E+01  0.21727374212E+02  0.20053305153E+02  0.30485875870E+02  0.00000000000E+00 0. -1.
</event>
<event>
 5    1  0.1285375E-004  0.9118800E+02  0.7818608E-02  0.1130116E+00
         25   -1    0    0    0    0  0.00000000000E+00  0.00000000000E+00  0.99999998245E-14  0.12500000000E+03  0.12500000000E+03 0.  0.
        -13    1    3    3    0    0 -0.46640109526E+02 -0.29054405294E+02 -0.14249560465E+02  0.56767238977E+02  0.10566000000E+00 0.  1.
         23    2    1    0    0    0 -0.22183944340E+02  0.68455514630E+01 -0.34434075783E+01  0.10152989099E+03  0.98779920768E+02 0.  0.
         13    1    3    3    0    0  0.24456165186E+02  0.35899956757E+02  0.10806152887E+02  0.44762652011E+02  0.10566000000E+00 0. -1.
         22    1    1    0    0    0  0.22183944340E+02 -0.68455514630E+01  0.34434075783E+01  0.23470109012E+02  0.00000000000E+00 0.  1.
</event>
<event>
 5    1  0.1285375E-004  0.9118800E+02  0.7818608E-02  0.1130116E+00
         25   -1    0    0    0    0  0.00000000000E+00  0.00000000000E+00  0.99999998245E-14  0.12500000000E+03  0.12500000000E+03 0.  0.
        -13    1    3    3    0    0 -0.30070956509E+02  0.15072898497E+02 -0.25270034511E+02  0.42071849290E+02  0.10566000000E+00 0.  1.
         23    2    1    0    0    0 -0.20327908327E+02 -0.46185280317E+01  0.22302172819E+02  0.94472281930E+02  0.89403973527E+02 0.  0.
         13    1    3    3    0    0  0.97430481821E+01 -0.19691426529E+02  0.47572207329E+02  0.52400432640E+02  0.10566000000E+00 0. -1.
         22    1    1    0    0    0  0.20327908327E+02  0.46185280317E+01 -0.22302172819E+02  0.30527718070E+02  0.00000000000E+00 0. -1.
</event>
<event>
 5    1  0.1285375E-004  0.9118800E+02  0.7818608E-02  0.1130116E+00
         25   -1    0    0    0    0  0.00000000000E+00  0.00000000000E+00  0.99999998245E-14  0.12500000000E+03  0.12500000000E+03 0.  0.
        -13    1    3    3    0    0 -0.30399600550E+02 -0.28492011385E+02  0.46415028497E+01  0.41922370390E+02  0.10566000000E+00 0.  1.
         23    2    1    0    0    0 -0.21236118210E+02  0.17763808294E+02 -0.15581065916E+02  0.93230593068E+02  0.87650717436E+02 0.  0.
         13    1    3    3    0    0  0.91634823403E+01  0.46255819680E+02 -0.20222568765E+02  0.51308222678E+02  0.10566000000E+00 0. -1.
         22    1    1    0    0    0  0.21236118210E+02 -0.17763808294E+02  0.15581065916E+02  0.31769406932E+02  0.00000000000E+00 0. -1.
</event>
<event>
 5    1  0.1285375E-004  0.9118800E+02  0.7818608E-02  0.1130116E+00
         25   -1    0    0    0    0  0.00000000000E+00  0.00000000000E+00  0.99999998245E-14  0.12500000000E+03  0.12500000000E+03 0.  0.
        -13    1    3    3    0    0 -0.30125520908E+02 -0.33558116953E+02 -0.16907135511E+02  0.48161775493E+02  0.10566000000E+00 0. -1.
         23    2    1    0    0    0  0.79062657812E+01 -0.51795281131E+01 -0.26753983725E+02  0.96625500970E+02  0.92365443984E+02 0.  0.
         13    1    3    3    0    0  0.38031786689E+02  0.28378588840E+02 -0.98468482132E+01  0.48463725477E+02  0.10566000000E+00 0.  1.
         22    1    1    0    0    0 -0.79062657812E+01  0.51795281131E+01  0.26753983725E+02  0.28374499030E+02  0.00000000000E+00 0.  1.
</event>
<event>
 5    1  0.1285375E-004  0.9118800E+02  0.7818608E-02  0.1130116E+00
         25   -1    0    0    0    0  0.00000000000E+00  0.00000000000E+00  0.99999998245E-14  0.12500000000E+03  0.12500000000E+03 0.  0.
        -13    1    3    3    0    0  0.23958444383E+02  0.19319782141E+02  0.12547031140E+02  0.33237030458E+02  0.10566000000E+00 0.  1.
         23    2    1    0    0    0 -0.23401056014E+02 -0.16874433725E+02 -0.57362088902E+01  0.95584697375E+02  0.90945996854E+02 0.  0.
         13    1    3    3    0    0 -0.47359500396E+02 -0.36194215866E+02 -0.18283240030E+02  0.62347666917E+02  0.10566000000E+00 0. -1.
         22    1    1    0    0    0  0.23401056014E+02  0.16874433725E+02  0.57362088902E+01  0.29415302625E+02  0.00000000000E+00 0. -1.
</event>
<event>
 5    1  0.1285375E-004  0.9118800E+02  0.7818608E-02  0.1130116E+00
         25   -1    0    0    0    0  0.00000000000E+00  0.00000000000E+00  0.99999998245E-14  0.12500000000E+03  0.12500000000E+03 0.  0.
        -13    1    3    3    0    0 -0.38771166181E+02  0.34692640291E+02 -0.33134305601E+02  0.61682055649E+02  0.10566000000E+00 0. -1.
         23    2    1    0    0    0 -0.14105316235E+02  0.21008100840E+02 -0.11634395129E+02  0.97149337584E+02  0.93071662691E+02 0.  0.
         13    1    3    3    0    0  0.24665849946E+02 -0.13684539451E+02  0.21499910471E+02  0.35467281935E+02  0.10566000000E+00 0.  1.
         22    1    1    0    0    0  0.14105316235E+02 -0.21008100840E+02  0.11634395129E+02  0.27850662416E+02  0.00000000000E+00 0. -1.
</event>
<event>
 5    1  0.1285375E-004  0.9118800E+02  0.7818608E-02  0.1130116E+00
         25   -1    0    0    0    0  0.00000000000E+00  0.00000000000E+00  0.99999998245E-14  0.12500000000E+03  0.12500000000E+03 0.  0.
        -13    1    3    3    0    0 -0.27297530596E+02 -0.35223158305E+02 -0.24467467510E+02  0.50837920768E+02  0.10566000000E+00 0.  1.
         23    2    1    0    0    0  0.88976172772E+01 -0.18011997809E+02 -0.27400110717E+02  0.91024041948E+02  0.84445310627E+02 0.  0.
         13    1    3    3    0    0  0.36195147874E+02  0.17211160496E+02 -0.29326432067E+01  0.40186121179E+02  0.10566000000E+00 0. -1.
         22    1    1    0    0    0 -0.88976172772E+01  0.18011997809E+02  0.27400110717E+02  0.33975958052E+02  0.00000000000E+00 0.  1.
</event>
<event>
 5    1  0.1285375E-004  0.9118800E+02  0.7818608E-02  0.1130116E+00
         25   -1    0    0    0    0  0.00000000000E+00  0.00000000000E+00  0.99999998245E-14  0.12500000000E+03  0.12500000000E+03 0.  0.
        -13    1    3    3    0    0 -0.53302906037E+02  0.16160653280E+02 -0.24185074393E+02  0.60723105107E+02  0.10566000000E+00 0.  1.
         23    2    1    0    0    0 -0.28084263941E+02  0.73161148945E+01 -0.12311805324E+01  0.95952328428E+02  0.91449888502E+02 0.  0.
         13    1    3    3    0    0  0.25218642096E+02 -0.88445383859E+01  0.22953893861E+02  0.35229223321E+02  0.10566000000E+00 0. -1.
         22    1    1    0    0    0  0.28084263941E+02 -0.73161148945E+01  0.12311805324E+01  0.29047671572E+02  0.00000000000E+00 0.  1.
</event>
<event>
 5    1  0.1285375E-004  0.9118800E+02  0.7818608E-02  0.1130116E+00
         25   -1    0    0    0    0  0.00000000000E+00  0.00000000000E+00  0.99999998245E-14  0.12500000000E+03  0.12500000000E+03 0.  0.
        -13    1    3    3    0    0  0.21446282185E+02 -0.11833811831E+02 -0.57016613434E+02  0.62055519445E+02  0.10566000000E+00 0.  1.
         23    2    1    0    0    0  0.15036810760E+02 -0.54015704374E+01 -0.25038980418E+02  0.95297589637E+02  0.90550524069E+02 0.  0.
         13    1    3    3    0    0 -0.64094714257E+01  0.64322413935E+01  0.31977633016E+02  0.33242070192E+02  0.10566000000E+00 0. -1.
         22    1    1    0    0    0 -0.15036810760E+02  0.54015704374E+01  0.25038980418E+02  0.29702410363E+02  0.00000000000E+00 0.  1.
</event>
<event>
 5    1  0.1285375E-004  0.9118800E+02  0.7818608E-02  0.1130116E+00
         25   -1    0    0    0    0  0.00000000000E+00  0.00000000000E+00  0.99999998245E-14  0.12500000000E+03  0.12500000000E+03 0.  0.
        -13    1    3    3    0    0 -0.42267831051E+02  0.23417294669E+02 -0.10830359235E+02  0.49520168382E+02  0.10566000000E+00 0.  1.
         23    2    1    0    0    0 -0.10105443997E+02 -0.85316493063E+01 -0.24745840558E+02  0.96941745187E+02  0.92792436635E+02 0.  0.
         13    1    3    3    0    0  0.32162387054E+02 -0.31948943976E+02 -0.13915481323E+02  0.47421576805E+02  0.10566000000E+00 0. -1.
         22    1    1    0    0    0  0.10105443997E+02  0.85316493063E+01  0.24745840558E+02  0.28058254813E+02  0.00000000000E+00 0. -1.
</event>
<event>
 5    1  0.1285375E-004  0.9118800E+02  0.7818608E-02  0.1130116E+00
         25   -1    0    0    0    0  0.00000000000E+00  0.00000000000E+00  0.99999998245E-14  0.12500000000E+03  0.12500000000E+03 0.  0.
        -13    1    3    3    0    0  0.27451433342E+02  0.22805295333E+02 -0.18801638509E+02  0.40338263007E+02  0.10566000000E+00 0.  1.
         23    2    1    0    0    0  0.10647469987E+02 -0.26379648179E+02 -0.15934896037E+02  0.92393629965E+02  0.86448872122E+02 0.  0.
         13    1    3    3    0    0 -0.16803963355E+02 -0.49184943512E+02  0.28667424716E+01  0.52055366958E+02  0.10566000000E+00 0. -1.
         22    1    1    0    0    0 -0.10647469987E+02  0.26379648179E+02  0.15934896037E+02  0.32606370035E+02  0.00000000000E+00 0. -1.
</event>
<event>
 5    1  0.1285375E-004  0.9118800E+02  0.7818608E-02  0.1130116E+00
         25   -1    0    0    0    0  0.00000000000E+00  0.00000000000E+00  0.99999998245E-14  0.12500000000E+03  0.12500000000E+03 0.  0.
        -13    1    3    3    0    0  0.11213692094E+02 -0.54818438035E+02  0.68467035619E+01  0.56371061306E+02  0.10566000000E+00 0.  1.
         23    2    1    0    0    0  0.20225807227E+02 -0.15424284912E+02  0.11566317080E+02  0.97057710655E+02  0.92948521579E+02 0.  0.
         13    1    3    3    0    0  0.90121151335E+01  0.39394153123E+02  0.47196135182E+01  0.40686649350E+02  0.10566000000E+00 0. -1.
         22    1    1    0    0    0 -0.20225807227E+02  0.15424284912E+02 -0.11566317080E+02  0.27942289345E+02  0.00000000000E+00 0.  1.
</event>
<event>
 5    1  0.1285375E-004  0.9118800E+02  0.7818608E-02  0.1130116E+00
         25   -1    0    0    0    0  0.00000000000E+00  0.00000000000E+00  0.99999998245E-14  0.12500000000E+03  0.12500000000E+03 0.  0.
        -13    1    3    3    0    0 -0.19120197637E+02  0.22292679857E+02 -0.24035910052E+02  0.37951043055E+02  0.10566000000E+00 0. -1.
         23    2    1    0    0    0 -0.21302245905E+02 -0.13272261100E+02  0.18779222328E+02  0.93653584151E+02  0.88251889713E+02 0.  0.
         13    1    3    3    0    0 -0.21820482679E+01 -0.35564940957E+02  0.42815132379E+02  0.55702541097E+02  0.10566000000E+00 0.  1.
         22    1    1    0    0    0  0.21302245905E+02  0.13272261100E+02 -0.18779222328E+02  0.31346415849E+02  0.00000000000E+00 0.  1.
</event>
<event>
 5    1  0.1285375E-004  0.9118800E+02  0.7818608E-02  0.1130116E+00
         25   -1    0    0    0    0  0.00000000000E+00  0.00000000000E+00  0.99999998245E-14  0.12500000000E+03  0.12500000000E+03 0.  0.
        -13    1    3    3    0    0 -0.31542846786E+02  0.24177463798E+02  0.12421343775E+02  0.41638946723E+02  0.10566000000E+00 0.  1.
         23    2    1    0    0    0  0.19022464829E+02  0.39980024836E+01  0.20581460485E+02  0.96690377825E+02  0.92453201438E+02 0.  0.
         13    1    3    3    0    0  0.50565311614E+02 -0.20179461314E+02  0.81601167099E+01  0.55051431102E+02  0.10566000000E+00 0. -1.
         22    1    1    0    0    0 -0.19022464829E+02 -0.39980024836E+01 -0.20581460485E+02  0.28309622175E+02  0.00000000000E+00 0. -1.
</event>
<event>
 5    1  0.1285375E-004  0.9118800E+02  0.7818608E-02  0.1130116E+00
         25   -1    0    0    0    0  0.00000000000E+00  0.00000000000E+00  0.99999998245E-14  0.12500000000E+03  0.12500000000E+03 0.  0.
        -13    1    3    3    0    0 -0.37632882494E+02 -0.34937959369E+02 -0.42878760436E+01  0.51529524495E+02  0.10566000000E+00 0.  1.
         23    2    1    0    0    0  0.27813588005E+01 -0.15752004236E+02 -0.20397224596E+02  0.99078804706E+02  0.95627930944E+02 0.  0.
         13    1    3    3    0    0  0.40414241295E+02  0.19185955133E+02 -0.16109348552E+02  0.47549280211E+02  0.10566000000E+00 0. -1.
         22    1    1    0    0    0 -0.27813588005E+01  0.15752004236E+02  0.20397224596E+02  0.25921195294E+02  0.00000000000E+00 0.  1.
</event>
<event>
 5    1  0.1285375E-004  0.9118800E+02  0.7818608E-02  0.1130116E+00
         25   -1    0    0    0    0  0.00000000000E+00  0.00000000000E+00  0.99999998245E-14  0.12500000000E+03  0.12500000000E+03 0.  0.
        -13    1    3    3    0    0 -0.11366270397E+02 -0.33088322228E+02  0.16344490719E+02  0.38615834984E+02  0.10566000000E+00 0. -1.
         23    2    1    0    0    0  0.10881482291E+02 -0.17030305790E+01 -0.26562779867E+02  0.96244335440E+02  0.91848156541E+02 0.  0.
         13    1    3    3    0    0  0.22247752689E+02  0.31385291649E+02 -0.42907270586E+02  0.57628500456E+02  0.10566000000E+00 0.  1.
         22    1    1    0    0    0 -0.10881482291E+02  0.17030305790E+01  0.26562779867E+02  0.28755664560E+02  0.00000000000E+00 0.  1.
</event>
<event>
 5    1  0.1285375E-004  0.9118800E+02  0.7818608E-02  0.1130116E+00
         25   -1    0    0    0    0  0.00000000000E+00  0.00000000000E+00  0.99999998245E-14  0.12500000000E+03  0.12500000000E+03 0.  0.
        -13    1    3    3    0    0 -0.39327613871E+02 -0.27196336785E+02  0.39567328874E+02  0.62063569230E+02  0.10566000000E+00 0.  1.
         23    2    1    0    0    0 -0.21112146186E+02 -0.10812099176E+02  0.14083964040E+02  0.97414093304E+02  0.93426566489E+02 0.  0.
         13    1    3    3    0    0  0.18215467685E+02  0.16384237609E+02 -0.25483364833E+02  0.35350524074E+02  0.10566000000E+00 0. -1.
         22    1    1    0    0    0  0.21112146186E+02  0.10812099176E+02 -0.14083964040E+02  0.27585906696E+02  0.00000000000E+00 0.  1.
</event>
<event>
 5    1  0.1285375E-004  0.9118800E+02  0.7818608E-02  0.1130116E+00
         25   -1    0    0    0    0  0.00000000000E+00  0.00000000000E+00  0.99999998245E-14  0.12500000000E+03  0.12500000000E+03 0.  0.
        -13    1    3    3    0    0  0.10308141589E+02 -0.24991431266E+01 -0.30052776199E+02  0.31869797939E+02  0.10566000000E+00 0. -1.
         23    2    1    0    0    0 -0.25057602038E+02 -0.20257406212E+01  0.19803304937E+02  0.92997532417E+02  0.87317713577E+02 0.  0.
         13    1    3    3    0    0 -0.35365743627E+02  0.47340250538E+00  0.49856081135E+02  0.61127734478E+02  0.10566000000E+00 0.  1.
         22    1    1    0    0    0  0.25057602038E+02  0.20257406212E+01 -0.19803304937E+02  0.32002467583E+02  0.00000000000E+00 0.  1.
</event>
<event>
 5    1  0.1285375E-004  0.9118800E+02  0.7818608E-02  0.1130116E+00
         25   -1    0    0    0    0  0.00000000000E+00  0.00000000000E+00  0.99999998245E-14  0.12500000000E+03  0.12500000000E+03 0.  0.
        -13    1    3    3    0    0 -0.43758136657E+02 -0.91350493505E+01 -0.18985835385E+02  0.48566415965E+02  0.10566000000E+00 0.  1.
         23    2    1    0    0    0 -0.16127147711E+02  0.23912860599E+02  0.11862028626E+01  0.96132771651E+02  0.91696199009E+02 0.  0.
         13    1    3    3    0    0  0.27630988946E+02  0.33047909949E+02  0.20172038248E+02  0.47566355686E+02  0.10566000000E+00 0. -1.
         22    1    1    0    0    0  0.16127147711E+02 -0.23912860599E+02 -0.11862028626E+01  0.28867228349E+02  0.00000000000E+00 0.  1.
</event>
<event>
 5    1  0.1285375E-004  0.9118800E+02  0.7818608E-02  0.1130116E+00
         25   -1    0    0    0    0  0.00000000000E+00  0.00000000000E+00  0.99999998245E-14  0.12500000000E+03  0.12500000000E+03 0.  0.
        -13    1    3    3    0    0 -0.17487494378E+02 -0.33473663444E+02 -0.43254726986E+02  0.57421957252E+02  0.10566000000E+00 0. -1.
         23    2    1    0    0    0 -0.72582128117E+01 -0.26731955168E+02 -0.59751807268E+01  0.96663065355E+02  0.92416266635E+02 0.  0.
         13    1    3    3    0    0  0.10229281566E+02  0.67417082756E+01  0.37279546259E+02  0.39241108103E+02  0.10566000000E+00 0.  1.
         22    1    1    0    0    0  0.72582128117E+01  0.26731955168E+02  0.59751807268E+01  0.28336934645E+02  0.00000000000E+00 0. -1.
</event>
<event>
 5    1  0.1285375E-004  0.9118800E+02  0.7818608E-02  0.1130116E+00
         25   -1    0    0    0    0  0.00000000000E+00  0.00000000000E+00  0.99999998245E-14  0.12500000000E+03  0.12500000000E+03 0.  0.
        -13    1    3    3    0    0  0.38109868914E+02  0.23104836963E+02  0.95289578382E+01  0.45574201049E+02  0.10566000000E+00 0. -1.
         23    2    1    0    0    0  0.69261946194E+01  0.72295008029E+01 -0.27026803003E+02  0.96178377313E+02  0.91758347458E+02 0.  0.
         13    1    3    3    0    0 -0.31183674295E+02 -0.15875336160E+02 -0.36555760841E+02  0.50604176264E+02  0.10566000000E+00 0.  1.
         22    1    1    0    0    0 -0.69261946194E+01 -0.72295008029E+01  0.27026803003E+02  0.28821622687E+02  0.00000000000E+00 0.  1.
</event>
<event>
 5    1  0.1285375E-004  0.9118800E+02  0.7818608E-02  0.1130116E+00
         25   -1    0    0    0    0  0.00000000000E+00  0.00000000000E+00  0.99999998245E-14  0.12500000000E+03  0.12500000000E+03 0.  0.
        -13    1    3    3    0    0  0.53813652461E+01 -0.51875256729E+01 -0.42868897203E+02  0.43515779045E+02  0.10566000000E+00 0.  1.
         23    2    1    0    0    0  0.26943465090E+02  0.65602170273E+01  0.45341889089E+01  0.96901145441E+02  0.92737728893E+02 0.  0.
         13    1    3    3    0    0  0.21562099844E+02  0.11747742700E+02  0.47403086112E+02  0.53385366395E+02  0.10566000000E+00 0. -1.
         22    1    1    0    0    0 -0.26943465090E+02 -0.65602170273E+01 -0.45341889089E+01  0.28098854559E+02  0.00000000000E+00 0. -1.
</event>
<event>
 5    1  0.1285375E-004  0.9118800E+02  0.7818608E-02  0.1130116E+00
         25   -1    0    0    0    0  0.00000000000E+00  0.00000000000E+00  0.99999998245E-14  0.12500000000E+03  0.12500000000E+03 0.  0.
        -13    1    3    3    0    0  0.34897232131E+02 -0.74554155786E+01  0.48258065364E+02  0.60018764304E+02  0.10566000000E+00 0.  1.
         23    2    1    0    0    0  0.62410045431E+01  0.13141779359E+01  0.28218206059E+02  0.96070009427E+02  0.91610601770E+02 0.  0.
         13    1    3    3    0    0 -0.28656227588E+02  0.87695935145E+01 -0.20039859304E+02  0.36051245123E+02  0.10566000000E+00 0. -1.
         22    1    1    0    0    0 -0.62410045431E+01 -0.13141779359E+01 -0.28218206059E+02  0.28929990573E+02  0.00000000000E+00 0.  1.
</event>
<event>
 5    1  0.1285375E-004  0.9118800E+02  0.7818608E-02  0.1130116E+00
         25   -1    0    0    0    0  0.00000000000E+00  0.00000000000E+00  0.99999998245E-14  0.12500000000E+03  0.12500000000E+03 0.  0.
        -13    1    3    3    0    0  0.46020879680E+02 -0.23029467966E+02  0.29081989154E+02  0.59110498379E+02  0.10566000000E+00 0.  1.
         23    2    1    0    0    0  0.15607011173E+02 -0.23067323983E+02  0.83295447389E+01  0.95930057636E+02  0.91419442183E+02 0.  0.
         13    1    3    3    0    0 -0.30413868507E+02 -0.37856016914E-01 -0.20752444415E+02  0.36819559257E+02  0.10566000000E+00 0. -1.
         22    1    1    0    0    0 -0.15607011173E+02  0.23067323983E+02 -0.83295447389E+01  0.29069942364E+02  0.00000000000E+00 0.  1.
</event>
<event>
 5    1  0.1285375E-004  0.9118800E+02  0.7818608E-02  0.1130116E+00
         25   -1    0    0    0    0  0.00000000000E+00  0.00000000000E+00  0.99999998245E-14  0.12500000000E+03  0.12500000000E+03 0.  0.
        -13    1    3    3    0    0  0.15671074597E+02 -0.35771252636E+02 -0.30085372735E+02  0.49298132934E+02  0.10566000000E+00 0.  1.
         23    2    1    0    0    0  0.93015738636E+00 -0.36252486118E+02  0.59643737904E+01  0.88248378305E+02  0.80231506132E+02 0.  0.
         13    1    3    3    0    0 -0.14740917211E+02 -0.48123348210E+00  0.36049746525E+02  0.38950245371E+02  0.10566000000E+00 0. -1.
         22    1    1    0    0    0 -0.93015738636E+00  0.36252486118E+02 -0.59643737904E+01  0.36751621695E+02  0.00000000000E+00 0.  1.
</event>
<event>
 5    1  0.1285375E-004  0.9118800E+02  0.7818608E-02  0.1130116E+00
         25   -1    0    0    0    0  0.00000000000E+00  0.00000000000E+00  0.99999998245E-14  0.12500000000E+03  0.12500000000E+03 0.  0.
        -13    1    3    3    0    0  0.40388476891E+02  0.10784984144E+02  0.41081865664E+02  0.58611225879E+02  0.10566000000E+00 0.  1.
         23    2    1    0    0    0  0.88350664015E+01  0.17537706624E+02  0.18712082086E+02  0.97874890453E+02  0.94041068759E+02 0.  0.
         13    1    3    3    0    0 -0.31553410490E+02  0.67527224799E+01 -0.22369783578E+02  0.39263664574E+02  0.10566000000E+00 0. -1.
         22    1    1    0    0    0 -0.88350664015E+01 -0.17537706624E+02 -0.18712082086E+02  0.27125109547E+02  0.00000000000E+00 0.  1.
</event>
<event>
 5    1  0.1285375E-004  0.9118800E+02  0.7818608E-02  0.1130116E+00
         25   -1    0    0    0    0  0.00000000000E+00  0.00000000000E+00  0.99999998245E-14  0.12500000000E+03  0.12500000000E+03 0.  0.
        -13    1    3    3    0    0 -0.11272406334E+02 -0.15512904009E+02  0.26952255955E+02  0.33077977575E+02  0.10566000000E+00 0.  1.
         23    2    1    0    0    0  0.10106970180E+02  0.28039793651E+02 -0.94487982491E+01  0.93732434335E+02  0.88363502555E+02 0.  0.
         13    1    3    3    0    0  0.21379376514E+02  0.43552697661E+02 -0.36401054204E+02  0.60654456760E+02  0.10566000000E+00 0. -1.
         22    1    1    0    0    0 -0.10106970180E+02 -0.28039793651E+02  0.94487982491E+01  0.31267565665E+02  0.00000000000E+00 0. -1.
</event>
<event>
 5    1  0.1285375E-004  0.9118800E+02  0.7818608E-02  0.1130116E+00
         25   -1    0    0    0    0  0.00000000000E+00  0.00000000000E+00  0.99999998245E-14  0.12500000000E+03  0.12500000000E+03 0.  0.
        -13    1    3    3    0    0 -0.19522795310E+01  0.18388577729E+02 -0.44418444773E+02  0.48114037310E+02  0.10566000000E+00 0. -1.
         23    2    1    0    0    0  0.55020582398E+01  0.28352347749E+02  0.18818611483E+01  0.96057476455E+02  0.91593499299E+02 0.  0.
         13    1    3    3    0    0  0.74543377709E+01  0.99637700206E+01  0.46300305921E+02  0.47943439145E+02  0.10566000000E+00 0.  1.
         22    1    1    0    0    0 -0.55020582398E+01 -0.28352347749E+02 -0.18818611483E+01  0.28942523545E+02  0.00000000000E+00 0.  1.
</event>
<event>
 5    1  0.1285375E-004  0.9118800E+02  0.7818608E-02  0.1130116E+00
         25   -1    0    0    0    0  0.00000000000E+00  0.00000000000E+00  0.99999998245E-14  0.12500000000E+03  0.12500000000E+03 0.  0.
        -13    1    3    3    0    0  0.36436050593E+02 -0.18075737975E+02  0.35933446279E+02  0.54272845989E+02  0.10566000000E+00 0.  1.
         23    2    1    0    0    0  0.27471712788E+02 -0.81701667132E+01 -0.37035126115E+01  0.96100819505E+02  0.91652631583E+02 0.  0.
         13    1    3    3    0    0 -0.89643378053E+01  0.99055712622E+01 -0.39636958891E+02  0.41827973516E+02  0.10566000000E+00 0. -1.
         22    1    1    0    0    0 -0.27471712788E+02  0.81701667132E+01  0.37035126115E+01  0.28899180495E+02  0.00000000000E+00 0. -1.
</event>
<event>
 5    1  0.1285375E-004  0.9118800E+02  0.7818608E-02  0.1130116E+00
         25   -1    0    0    0    0  0.00000000000E+00  0.00000000000E+00  0.99999998245E-14  0.12500000000E+03  0.12500000000E+03 0.  0.
        -13    1    3    3    0    0 -0.22358007110E+01 -0.78615282356E+01 -0.44850956334E+02  0.45589712427E+02  0.10566000000E+00 0.  1.
         23    2    1    0    0    0 -0.23906620105E+02 -0.16255650916E+02 -0.15605354310E-01  0.96090262625E+02  0.91638232503E+02 0.  0.
         13    1    3    3    0    0 -0.21670819394E+02 -0.83941226802E+01  0.44835350980E+02  0.50500550198E+02  0.10566000000E+00 0. -1.
         22    1    1    0    0    0  0.23906620105E+02  0.16255650916E+02  0.15605354310E-01  0.28909737375E+02  0.00000000000E+00 0. -1.
</event>
<event>
 5    1  0.1285375E-004  0.9118800E+02  0.7818608E-02  0.1130116E+00
         25   -1    0    0    0    0  0.00000000000E+00  0.00000000000E+00  0.99999998245E-14  0.12500000000E+03  0.12500000000E+03 0.  0.
        -13    1    3    3    0    0  0.10766754927E+02  0.31401308584E+02 -0.97343055871E+01  0.34593829822E+02  0.10566000000E+00 0.  1.
         23    2    1    0    0    0 -0.92485371401E+01 -0.24594758313E+02  0.94478069741E+01  0.97076915780E+02  0.92974345629E+02 0.  0.
         13    1    3    3    0    0 -0.20015292067E+02 -0.55996066897E+02  0.19182112561E+02  0.62483085958E+02  0.10566000000E+00 0. -1.
         22    1    1    0    0    0  0.92485371401E+01  0.24594758313E+02 -0.94478069741E+01  0.27923084220E+02  0.00000000000E+00 0. -1.
</event>
<event>
 5    1  0.1285375E-004  0.9118800E+02  0.7818608E-02  0.1130116E+00
         25   -1    0    0    0    0  0.00000000000E+00  0.00000000000E+00  0.99999998245E-14  0.12500000000E+03  0.12500000000E+03 0.  0.
        -13    1    3    3    0    0 -0.42781261030E+01  0.47675111409E+02  0.27856141336E+02  0.55382256951E+02  0.10566000000E+00 0. -1.
         23    2    1    0    0    0  0.12618648141E+02  0.26881700792E+02 -0.16751213978E+01  0.95256729331E+02  0.90494101094E+02 0.  0.
         13    1    3    3    0    0  0.16896774244E+02 -0.20793410617E+02 -0.29531262734E+02  0.39874472381E+02  0.10566000000E+00 0.  1.
         22    1    1    0    0    0 -0.12618648141E+02 -0.26881700792E+02  0.16751213978E+01  0.29743270669E+02  0.00000000000E+00 0. -1.
</event>
<event>
 5    1  0.1285375E-004  0.9118800E+02  0.7818608E-02  0.1130116E+00
         25   -1    0    0    0    0  0.00000000000E+00  0.00000000000E+00  0.99999998245E-14  0.12500000000E+03  0.12500000000E+03 0.  0.
        -13    1    3    3    0    0 -0.77571740860E+01  0.51371064357E+02 -0.71356007935E+01  0.52441281122E+02  0.10566000000E+00 0.  1.
         23    2    1    0    0    0  0.20875755957E+02  0.21020396448E+02  0.25147230272E+01  0.95268231039E+02  0.90509987072E+02 0.  0.
         13    1    3    3    0    0  0.28632930043E+02 -0.30350667908E+02  0.96503238206E+01  0.42826949918E+02  0.10566000000E+00 0. -1.
         22    1    1    0    0    0 -0.20875755957E+02 -0.21020396448E+02 -0.25147230272E+01  0.29731768961E+02  0.00000000000E+00 0.  1.
</event>
<event>
 5    1  0.1285375E-004  0.9118800E+02  0.7818608E-02  0.1130116E+00
         25   -1    0    0    0    0  0.00000000000E+00  0.00000000000E+00  0.99999998245E-14  0.12500000000E+03  0.12500000000E+03 0.  0.
        -13    1    3    3    0    0  0.37075102917E+01 -0.43150910104E+01 -0.46658820402E+02  0.47004492640E+02  0.10566000000E+00 0.  1.
         23    2    1    0    0    0 -0.28933241667E+00  0.28061329188E+02 -0.12372242998E+02  0.94330890038E+02  0.89206067673E+02 0.  0.
         13    1    3    3    0    0 -0.39968427083E+01  0.32376420198E+02  0.34286577405E+02  0.47326397398E+02  0.10566000000E+00 0. -1.
         22    1    1    0    0    0  0.28933241667E+00 -0.28061329188E+02  0.12372242998E+02  0.30669109962E+02  0.00000000000E+00 0.  1.
</event>
<event>
 5    1  0.1285375E-004  0.9118800E+02  0.7818608E-02  0.1130116E+00
         25   -1    0    0    0    0  0.00000000000E+00  0.00000000000E+00  0.99999998245E-14  0.12500000000E+03  0.12500000000E+03 0.  0.
        -13    1    3    3    0    0 -0.37031380395E+02  0.45732275290E+02 -0.18594311524E+02  0.61713237820E+02  0.10566000000E+00 0. -1.
         23    2    1    0    0    0 -0.10793985660E+02  0.21612893013E+02 -0.12251842597E+02  0.97912458254E+02  0.94090990873E+02 0.  0.
         13    1    3    3    0    0  0.26237394735E+02 -0.24119382277E+02  0.63424689277E+01  0.36199220434E+02  0.10566000000E+00 0.  1.
         22    1    1    0    0    0  0.10793985660E+02 -0.21612893013E+02  0.12251842597E+02  0.27087541746E+02  0.00000000000E+00 0. -1.
</event>
<event>
 5    1  0.1285375E-004  0.9118800E+02  0.7818608E-02  0.1130116E+00
         25   -1    0    0    0    0  0.00000000000E+00  0.00000000000E+00  0.99999998245E-14  0.12500000000E+03  0.12500000000E+03 0.  0.
        -13    1    3    3    0    0 -0.25093507207E+02  0.27553164192E+02 -0.42530073247E+02  0.56548026097E+02  0.10566000000E+00 0.  1.
         23    2    1    0    0    0  0.72518827952E+01  0.15852259698E+02 -0.23123195997E+02  0.96041993599E+02  0.91572367010E+02 0.  0.
         13    1    3    3    0    0  0.32345390003E+02 -0.11700904494E+02  0.19406877250E+02  0.39493967502E+02  0.10566000000E+00 0. -1.
         22    1    1    0    0    0 -0.72518827952E+01 -0.15852259698E+02  0.23123195997E+02  0.28958006401E+02  0.00000000000E+00 0.  1.
</event>
<event>
 5    1  0.1285375E-004  0.9118800E+02  0.7818608E-02  0.1130116E+00
         25   -1    0    0    0    0  0.00000000000E+00  0.00000000000E+00  0.99999998245E-14  0.12500000000E+03  0.12500000000E+03 0.  0.
        -13    1    3    3    0    0  0.21075677612E+02 -0.21429480677E+02  0.35759456410E+02  0.46713560297E+02  0.10566000000E+00 0. -1.
         23    2    1    0    0    0  0.14902312233E+02 -0.21354619448E+02 -0.13022658082E+02  0.95884912757E+02  0.91357693651E+02 0.  0.
         13    1    3    3    0    0 -0.61733653782E+01  0.74861229543E-01 -0.48782114492E+02  0.49171352459E+02  0.10566000000E+00 0.  1.
         22    1    1    0    0    0 -0.14902312233E+02  0.21354619448E+02  0.13022658082E+02  0.29115087243E+02  0.00000000000E+00 0.  1.
</event>
<event>
 5    1  0.1285375E-004  0.9118800E+02  0.7818608E-02  0.1130116E+00
         25   -1    0    0    0    0  0.00000000000E+00  0.00000000000E+00  0.99999998245E-14  0.12500000000E+03  0.12500000000E+03 0.  0.
        -13    1    3    3    0    0  0.53203862707E+01  0.18251847305E+02 -0.31868337282E+02  0.37108469724E+02  0.10566000000E+00 0. -1.
         23    2    1    0    0    0 -0.32474028648E+02  0.28000281946E+02 -0.16804622593E+02  0.78945970142E+02  0.64120921200E+02 0.  0.
         13    1    3    3    0    0 -0.37794414919E+02  0.97484346401E+01  0.15063714688E+02  0.41837500418E+02  0.10566000000E+00 0.  1.
         22    1    1    0    0    0  0.32474028648E+02 -0.28000281946E+02  0.16804622593E+02  0.46054029858E+02  0.00000000000E+00 0. -1.
</event>
<event>
 5    1  0.1285375E-004  0.9118800E+02  0.7818608E-02  0.1130116E+00
         25   -1    0    0    0    0  0.00000000000E+00  0.00000000000E+00  0.99999998245E-14  0.12500000000E+03  0.12500000000E+03 0.  0.
        -13    1    3    3    0    0  0.18786979787E+02 -0.38581826613E+02  0.52452257637E+01  0.43232297090E+02  0.10566000000E+00 0. -1.
         23    2    1    0    0    0 -0.26234996647E+02 -0.11861655569E+02 -0.22502826510E+01  0.96120289234E+02  0.91679181435E+02 0.  0.
         13    1    3    3    0    0 -0.45021976434E+02  0.26720171044E+02 -0.74955084147E+01  0.52887992145E+02  0.10566000000E+00 0.  1.
         22    1    1    0    0    0  0.26234996647E+02  0.11861655569E+02  0.22502826510E+01  0.28879710766E+02  0.00000000000E+00 0. -1.
</event>
<event>
 5    1  0.1285375E-004  0.9118800E+02  0.7818608E-02  0.1130116E+00
         25   -1    0    0    0    0  0.00000000000E+00  0.00000000000E+00  0.99999998245E-14  0.12500000000E+03  0.12500000000E+03 0.  0.
        -13    1    3    3    0    0  0.27941320988E+02  0.10643871505E+02 -0.42143852269E+02  0.51673250984E+02  0.10566000000E+00 0. -1.
         23    2    1    0    0    0  0.85148284272E+01 -0.21092062077E+02 -0.17451664685E+02  0.96330539139E+02  0.91965399932E+02 0.  0.
         13    1    3    3    0    0 -0.19426492561E+02 -0.31735933583E+02  0.24692187584E+02  0.44657288154E+02  0.10566000000E+00 0.  1.
         22    1    1    0    0    0 -0.85148284272E+01  0.21092062077E+02  0.17451664685E+02  0.28669460861E+02  0.00000000000E+00 0.  1.
</event>
<event>
 5    1  0.1285375E-004  0.9118800E+02  0.7818608E-02  0.1130116E+00
         25   -1    0    0    0    0  0.00000000000E+00  0.00000000000E+00  0.99999998245E-14  0.12500000000E+03  0.12500000000E+03 0.  0.
        -13    1    3    3    0    0  0.25330170918E+02 -0.22353380228E+02  0.66044400655E+01  0.34422680881E+02  0.10566000000E+00 0. -1.
         23    2    1    0    0    0 -0.29433123579E+02  0.36362171263E+01  0.59813395307E+00  0.95337083710E+02  0.90605027054E+02 0.  0.
         13    1    3    3    0    0 -0.54763294498E+02  0.25989597355E+02 -0.60063061125E+01  0.60914402829E+02  0.10566000000E+00 0.  1.
         22    1    1    0    0    0  0.29433123579E+02 -0.36362171263E+01 -0.59813395307E+00  0.29662916290E+02  0.00000000000E+00 0.  1.
</event>
<event>
 5    1  0.1285375E-004  0.9118800E+02  0.7818608E-02  0.1130116E+00
         25   -1    0    0    0    0  0.00000000000E+00  0.00000000000E+00  0.99999998245E-14  0.12500000000E+03  0.12500000000E+03 0.  0.
        -13    1    3    3    0    0 -0.31866937043E+02 -0.20832962676E+02 -0.35278090548E+02  0.51904420304E+02  0.10566000000E+00 0.  1.
         23    2    1    0    0    0  0.61171282775E+01  0.30886310804E+01 -0.26479951566E+02  0.97647728883E+02  0.93738637822E+02 0.  0.
         13    1    3    3    0    0  0.37984065321E+02  0.23921593757E+02  0.87981389822E+01  0.45743308579E+02  0.10566000000E+00 0. -1.
         22    1    1    0    0    0 -0.61171282775E+01 -0.30886310804E+01  0.26479951566E+02  0.27352271117E+02  0.00000000000E+00 0.  1.
</event>
<event>
 5    1  0.1285375E-004  0.9118800E+02  0.7818608E-02  0.1130116E+00
         25   -1    0    0    0    0  0.00000000000E+00  0.00000000000E+00  0.99999998245E-14  0.12500000000E+03  0.12500000000E+03 0.  0.
        -13    1    3    3    0    0  0.59874311691E+01  0.63058588324E+01 -0.45657429534E+02  0.46478223109E+02  0.10566000000E+00 0.  1.
         23    2    1    0    0    0 -0.26137597821E+02 -0.71719904185E+01 -0.10613690271E+02  0.95892236644E+02  0.91367713997E+02 0.  0.
         13    1    3    3    0    0 -0.32125028990E+02 -0.13477849251E+02  0.35043739264E+02  0.49414013535E+02  0.10566000000E+00 0. -1.
         22    1    1    0    0    0  0.26137597821E+02  0.71719904185E+01  0.10613690271E+02  0.29107763356E+02  0.00000000000E+00 0.  1.
</event>
<event>
 5    1  0.1285375E-004  0.9118800E+02  0.7818608E-02  0.1130116E+00
         25   -1    0    0    0    0  0.00000000000E+00  0.00000000000E+00  0.99999998245E-14  0.12500000000E+03  0.12500000000E+03 0.  0.
        -13    1    3    3    0    0 -0.34976158045E+02  0.59225371367E+01 -0.21180790884E+02  0.41316402847E+02  0.10566000000E+00 0.  1.
         23    2    1    0    0    0  0.30210980994E+01 -0.25963548447E+02 -0.21860701873E+02  0.90924742582E+02  0.84298194794E+02 0.  0.
         13    1    3    3    0    0  0.37997256144E+02 -0.31886085584E+02 -0.67991098920E+00  0.49608339735E+02  0.10566000000E+00 0. -1.
         22    1    1    0    0    0 -0.30210980994E+01  0.25963548447E+02  0.21860701873E+02  0.34075257418E+02  0.00000000000E+00 0. -1.
</event>
<event>
 5    1  0.1285375E-004  0.9118800E+02  0.7818608E-02  0.1130116E+00
         25   -1    0    0    0    0  0.00000000000E+00  0.00000000000E+00  0.99999998245E-14  0.12500000000E+03  0.12500000000E+03 0.  0.
        -13    1    3    3    0    0 -0.15832787659E+02 -0.27775660164E+02 -0.36257497356E+02  0.48340270388E+02  0.10566000000E+00 0. -1.
         23    2    1    0    0    0  0.13593636824E+02 -0.26321138030E+02  0.40375278846E+00  0.95373115493E+02  0.90654723392E+02 0.  0.
         13    1    3    3    0    0  0.29426424483E+02  0.14545221346E+01  0.36661250144E+02  0.47032845105E+02  0.10566000000E+00 0.  1.
         22    1    1    0    0    0 -0.13593636824E+02  0.26321138030E+02 -0.40375278846E+00  0.29626884507E+02  0.00000000000E+00 0. -1.
</event>
<event>
 5    1  0.1285375E-004  0.9118800E+02  0.7818608E-02  0.1130116E+00
         25   -1    0    0    0    0  0.00000000000E+00  0.00000000000E+00  0.99999998245E-14  0.12500000000E+03  0.12500000000E+03 0.  0.
        -13    1    3    3    0    0  0.27847992774E+02 -0.30776555461E+01  0.20560790298E+02  0.34752552811E+02  0.10566000000E+00 0. -1.
         23    2    1    0    0    0 -0.16031017884E+02 -0.80890295835E+01 -0.22349985841E+02  0.96330367964E+02  0.91965167269E+02 0.  0.
         13    1    3    3    0    0 -0.43879010658E+02 -0.50113740374E+01 -0.42910776139E+02  0.61577815152E+02  0.10566000000E+00 0.  1.
         22    1    1    0    0    0  0.16031017884E+02  0.80890295835E+01  0.22349985841E+02  0.28669632036E+02  0.00000000000E+00 0.  1.
</event>
<event>
 5    1  0.1285375E-004  0.9118800E+02  0.7818608E-02  0.1130116E+00
         25   -1    0    0    0    0  0.00000000000E+00  0.00000000000E+00  0.99999998245E-14  0.12500000000E+03  0.12500000000E+03 0.  0.
        -13    1    3    3    0    0 -0.52493830178E+02 -0.14578960097E+02  0.12873189746E+01  0.54496024061E+02  0.10566000000E+00 0.  1.
         23    2    1    0    0    0 -0.16805226512E+02 -0.11784525522E+02 -0.20162326690E+02  0.96228310835E+02  0.91826345396E+02 0.  0.
         13    1    3    3    0    0  0.35688603666E+02  0.27944345755E+01 -0.21449645664E+02  0.41732286774E+02  0.10566000000E+00 0. -1.
         22    1    1    0    0    0  0.16805226512E+02  0.11784525522E+02  0.20162326690E+02  0.28771689165E+02  0.00000000000E+00 0.  1.
</event>
<event>
 5    1  0.1285375E-004  0.9118800E+02  0.7818608E-02  0.1130116E+00
         25   -1    0    0    0    0  0.00000000000E+00  0.00000000000E+00  0.99999998245E-14  0.12500000000E+03  0.12500000000E+03 0.  0.
        -13    1    3    3    0    0  0.32543337293E+02 -0.66276410390E+01  0.26402671970E+02  0.42427664078E+02  0.10566000000E+00 0.  1.
         23    2    1    0    0    0  0.71743337603E+01  0.53305540784E+01  0.46957318464E+02  0.77199627313E+02  0.60621009793E+02 0.  0.
         13    1    3    3    0    0 -0.25369003533E+02  0.11958195117E+02  0.20554646494E+02  0.34771963235E+02  0.10566000000E+00 0. -1.
         22    1    1    0    0    0 -0.71743337603E+01 -0.53305540784E+01 -0.46957318464E+02  0.47800372687E+02  0.00000000000E+00 0.  1.
</event>
<event>
 5    1  0.1285375E-004  0.9118800E+02  0.7818608E-02  0.1130116E+00
         25   -1    0    0    0    0  0.00000000000E+00  0.00000000000E+00  0.99999998245E-14  0.12500000000E+03  0.12500000000E+03 0.  0.
        -13    1    3    3    0    0  0.41217339876E+01 -0.11007835357E+01 -0.47155028180E+02  0.47347737667E+02  0.10566000000E+00 0. -1.
         23    2    1    0    0    0 -0.26806632201E+02  0.89527321296E+00 -0.85620765618E+01  0.96844961390E+02  0.92661968182E+02 0.  0.
         13    1    3    3    0    0 -0.30928366189E+02  0.19960567487E+01  0.38592951618E+02  0.49497223723E+02  0.10566000000E+00 0.  1.
         22    1    1    0    0    0  0.26806632201E+02 -0.89527321296E+00  0.85620765618E+01  0.28155038610E+02  0.00000000000E+00 0.  1.
</event>
<event>
 5    1  0.1285375E-004  0.9118800E+02  0.7818608E-02  0.1130116E+00
         25   -1    0    0    0    0  0.00000000000E+00  0.00000000000E+00  0.99999998245E-14  0.12500000000E+03  0.12500000000E+03 0.  0.
        -13    1    3    3    0    0 -0.30511488020E+02  0.37104259945E+00  0.15780553209E+02  0.34352956167E+02  0.10566000000E+00 0.  1.
         23    2    1    0    0    0  0.28787801497E+02  0.64932520335E+01  0.28679075692E+01  0.95349962381E+02  0.90622792912E+02 0.  0.
         13    1    3    3    0    0  0.59299289517E+02  0.61222094340E+01 -0.12912645640E+02  0.60997006214E+02  0.10566000000E+00 0. -1.
         22    1    1    0    0    0 -0.28787801497E+02 -0.64932520335E+01 -0.28679075692E+01  0.29650037619E+02  0.00000000000E+00 0. -1.
</event>
<event>
 5    1  0.1285375E-004  0.9118800E+02  0.7818608E-02  0.1130116E+00
         25   -1    0    0    0    0  0.00000000000E+00  0.00000000000E+00  0.99999998245E-14  0.12500000000E+03  0.12500000000E+03 0.  0.
        -13    1    3    3    0    0  0.23256572593E+02 -0.19748067483E+02 -0.23588686855E+02  0.38565420387E+02  0.10566000000E+00 0.  1.
         23    2    1    0    0    0  0.65270284016E+01  0.16806995188E+02  0.20142147041E+02  0.97966996570E+02  0.94163417220E+02 0.  0.
         13    1    3    3    0    0 -0.16729544192E+02  0.36555062671E+02  0.43730833896E+02  0.59401576183E+02  0.10566000000E+00 0. -1.
         22    1    1    0    0    0 -0.65270284016E+01 -0.16806995188E+02 -0.20142147041E+02  0.27033003430E+02  0.00000000000E+00 0. -1.
</event>
<event>
 5    1  0.1285375E-004  0.9118800E+02  0.7818608E-02  0.1130116E+00
         25   -1    0    0    0    0  0.00000000000E+00  0.00000000000E+00  0.99999998245E-14  0.12500000000E+03  0.12500000000E+03 0.  0.
        -13    1    3    3    0    0  0.37659751636E+02 -0.16461710928E+02  0.35007358418E+02  0.53988620351E+02  0.10566000000E+00 0.  1.
         23    2    1    0    0    0  0.24226946558E+02 -0.23661771461E+02  0.11529782769E+01  0.91115582828E+02  0.84580705288E+02 0.  0.
         13    1    3    3    0    0 -0.13432805079E+02 -0.72000605329E+01 -0.33854380141E+02  0.37126962476E+02  0.10566000000E+00 0. -1.
         22    1    1    0    0    0 -0.24226946558E+02  0.23661771461E+02 -0.11529782769E+01  0.33884417172E+02  0.00000000000E+00 0.  1.
</event>
<event>
 5    1  0.1285375E-004  0.9118800E+02  0.7818608E-02  0.1130116E+00
         25   -1    0    0    0    0  0.00000000000E+00  0.00000000000E+00  0.99999998245E-14  0.12500000000E+03  0.12500000000E+03 0.  0.
        -13    1    3    3    0    0  0.11102758926E+02  0.43854042589E+01 -0.39772644703E+02  0.41525624101E+02  0.10566000000E+00 0.  1.
         23    2    1    0    0    0 -0.17424442661E+02 -0.24803522218E+02 -0.69480866836E+01  0.93901739196E+02  0.88602679412E+02 0.  0.
         13    1    3    3    0    0 -0.28527201587E+02 -0.29188926477E+02  0.32824558019E+02  0.52376115095E+02  0.10566000000E+00 0. -1.
         22    1    1    0    0    0  0.17424442661E+02  0.24803522218E+02  0.69480866836E+01  0.31098260804E+02  0.00000000000E+00 0. -1.
</event>
<event>
 5    1  0.1285375E-004  0.9118800E+02  0.7818608E-02  0.1130116E+00
         25   -1    0    0    0    0  0.00000000000E+00  0.00000000000E+00  0.99999998245E-14  0.12500000000E+03  0.12500000000E+03 0.  0.
        -13    1    3    3    0    0 -0.29823051915E+02  0.38742753103E+02  0.97933052822E+01  0.49863166124E+02  0.10566000000E+00 0.  1.
         23    2    1    0    0    0 -0.18690624925E+02 -0.50927243936E+01  0.20970707384E+02  0.96450991785E+02  0.92128974521E+02 0.  0.
         13    1    3    3    0    0  0.11132426990E+02 -0.43835477497E+02  0.11177402102E+02  0.46587825661E+02  0.10566000000E+00 0. -1.
         22    1    1    0    0    0  0.18690624925E+02  0.50927243936E+01 -0.20970707384E+02  0.28549008215E+02  0.00000000000E+00 0.  1.
</event>
<event>
 5    1  0.1285375E-004  0.9118800E+02  0.7818608E-02  0.1130116E+00
         25   -1    0    0    0    0  0.00000000000E+00  0.00000000000E+00  0.99999998245E-14  0.12500000000E+03  0.12500000000E+03 0.  0.
        -13    1    3    3    0    0  0.38249728766E+02 -0.10090043714E+02  0.21919532464E+02  0.45225300445E+02  0.10566000000E+00 0. -1.
         23    2    1    0    0    0  0.18939634779E+02  0.17224675052E+02 -0.15226427992E+02  0.95213370355E+02  0.90434189269E+02 0.  0.
         13    1    3    3    0    0 -0.19310093987E+02  0.27314718766E+02 -0.37145960456E+02  0.49988069910E+02  0.10566000000E+00 0.  1.
         22    1    1    0    0    0 -0.18939634779E+02 -0.17224675052E+02  0.15226427992E+02  0.29786629645E+02  0.00000000000E+00 0. -1.
</event>
<event>
 5    1  0.1285375E-004  0.9118800E+02  0.7818608E-02  0.1130116E+00
         25   -1    0    0    0    0  0.00000000000E+00  0.00000000000E+00  0.99999998245E-14  0.12500000000E+03  0.12500000000E+03 0.  0.
        -13    1    3    3    0    0  0.30848483972E+02 -0.28120888646E+02  0.38462519765E+01  0.41919186060E+02  0.10566000000E+00 0. -1.
         23    2    1    0    0    0  0.81312011883E+01  0.23183156309E+02  0.10225031473E+02  0.98389354802E+02  0.94722429765E+02 0.  0.
         13    1    3    3    0    0 -0.22717282784E+02  0.51304044955E+02  0.63787794968E+01  0.56470168742E+02  0.10566000000E+00 0.  1.
         22    1    1    0    0    0 -0.81312011883E+01 -0.23183156309E+02 -0.10225031473E+02  0.26610645198E+02  0.00000000000E+00 0.  1.
</event>
<event>
 5    1  0.1285375E-004  0.9118800E+02  0.7818608E-02  0.1130116E+00
         25   -1    0    0    0    0  0.00000000000E+00  0.00000000000E+00  0.99999998245E-14  0.12500000000E+03  0.12500000000E+03 0.  0.
        -13    1    3    3    0    0 -0.37973519964E+02 -0.41133799165E+01  0.43250741701E+02  0.57702217761E+02  0.10566000000E+00 0.  1.
         23    2    1    0    0    0 -0.26250038466E+02 -0.50012148937E+01  0.48775107625E+01  0.97836296624E+02  0.93989755590E+02 0.  0.
         13    1    3    3    0    0  0.11723481498E+02 -0.88783497716E+00 -0.38373230939E+02  0.40134078862E+02  0.10566000000E+00 0. -1.
         22    1    1    0    0    0  0.26250038466E+02  0.50012148937E+01 -0.48775107625E+01  0.27163703376E+02  0.00000000000E+00 0.  1.
</event>
<event>
 5    1  0.1285375E-004  0.9118800E+02  0.7818608E-02  0.1130116E+00
         25   -1    0    0    0    0  0.00000000000E+00  0.00000000000E+00  0.99999998245E-14  0.12500000000E+03  0.12500000000E+03 0.  0.
        -13    1    3    3    0    0  0.58045196624E+02  0.14666835175E+02  0.14882447709E+02  0.61691647077E+02  0.10566000000E+00 0. -1.
         23    2    1    0    0    0  0.24783964827E+02  0.10434641394E+02  0.12612918254E+02  0.95297940131E+02  0.90551007906E+02 0.  0.
         13    1    3    3    0    0 -0.33261231797E+02 -0.42321937804E+01 -0.22695294548E+01  0.33606293054E+02  0.10566000000E+00 0.  1.
         22    1    1    0    0    0 -0.24783964827E+02 -0.10434641394E+02 -0.12612918254E+02  0.29702059869E+02  0.00000000000E+00 0. -1.
</event>
<event>
 5    1  0.1285375E-004  0.9118800E+02  0.7818608E-02  0.1130116E+00
         25   -1    0    0    0    0  0.00000000000E+00  0.00000000000E+00  0.99999998245E-14  0.12500000000E+03  0.12500000000E+03 0.  0.
        -13    1    3    3    0    0 -0.54110108704E+01 -0.16902758576E+02 -0.17381761944E+02  0.24841881943E+02  0.10566000000E+00 0. -1.
         23    2    1    0    0    0  0.26342979390E+01  0.14103007877E+02  0.35523364682E+02  0.86688855471E+02  0.77763833931E+02 0.  0.
         13    1    3    3    0    0  0.80453088094E+01  0.31005766453E+02  0.52905126627E+02  0.61846973528E+02  0.10566000000E+00 0.  1.
         22    1    1    0    0    0 -0.26342979390E+01 -0.14103007877E+02 -0.35523364682E+02  0.38311144529E+02  0.00000000000E+00 0.  1.
</event>
<event>
 5    1  0.1285375E-004  0.9118800E+02  0.7818608E-02  0.1130116E+00
         25   -1    0    0    0    0  0.00000000000E+00  0.00000000000E+00  0.99999998245E-14  0.12500000000E+03  0.12500000000E+03 0.  0.
        -13    1    3    3    0    0  0.11312281138E+02 -0.30363886208E+02 -0.34601173048E+02  0.47404489561E+02  0.10566000000E+00 0. -1.
         23    2    1    0    0    0 -0.19871388068E+02 -0.22195908589E+02  0.68793064867E+00  0.95200609563E+02  0.90416549319E+02 0.  0.
         13    1    3    3    0    0 -0.31183669206E+02  0.81679776197E+01  0.35289103696E+02  0.47796120002E+02  0.10566000000E+00 0.  1.
         22    1    1    0    0    0  0.19871388068E+02  0.22195908589E+02 -0.68793064867E+00  0.29799390437E+02  0.00000000000E+00 0.  1.
</event>
<event>
 5    1  0.1285375E-004  0.9118800E+02  0.7818608E-02  0.1130116E+00
         25   -1    0    0    0    0  0.00000000000E+00  0.00000000000E+00  0.99999998245E-14  0.12500000000E+03  0.12500000000E+03 0.  0.
        -13    1    3    3    0    0 -0.31569746087E+02 -0.63153199306E+01  0.29390776476E+02  0.43593130648E+02  0.10566000000E+00 0.  1.
         23    2    1    0    0    0 -0.71192004625E+01 -0.22041768150E+02 -0.15538716747E+02  0.97107809757E+02  0.93015871976E+02 0.  0.
         13    1    3    3    0    0  0.24450545624E+02 -0.15726448219E+02 -0.44929493223E+02  0.53514679110E+02  0.10566000000E+00 0. -1.
         22    1    1    0    0    0  0.71192004625E+01  0.22041768150E+02  0.15538716747E+02  0.27892190243E+02  0.00000000000E+00 0. -1.
</event>
<event>
 5    1  0.1285375E-004  0.9118800E+02  0.7818608E-02  0.1130116E+00
         25   -1    0    0    0    0  0.00000000000E+00  0.00000000000E+00  0.99999998245E-14  0.12500000000E+03  0.12500000000E+03 0.  0.
        -13    1    3    3    0    0  0.39008465013E+02 -0.36501155544E+01 -0.20968383522E+02  0.44437236163E+02  0.10566000000E+00 0.  1.
         23    2    1    0    0    0 -0.16620550964E+02 -0.43120752616E+01 -0.17961386922E+02  0.10015149647E+03  0.97019967626E+02 0.  0.
         13    1    3    3    0    0 -0.55629015977E+02 -0.66195970728E+00  0.30069966006E+01  0.55714260310E+02  0.10566000000E+00 0. -1.
         22    1    1    0    0    0  0.16620550964E+02  0.43120752616E+01  0.17961386922E+02  0.24848503528E+02  0.00000000000E+00 0. -1.
</event>
<event>
 5    1  0.1285375E-004  0.9118800E+02  0.7818608E-02  0.1130116E+00
         25   -1    0    0    0    0  0.00000000000E+00  0.00000000000E+00  0.99999998245E-14  0.12500000000E+03  0.12500000000E+03 0.  0.
        -13    1    3    3    0    0  0.54785033236E+02 -0.21359155797E+02  0.15537901071E+02  0.60819823551E+02  0.10566000000E+00 0.  1.
         23    2    1    0    0    0  0.30800714150E+02 -0.70109431008E+01 -0.11844454527E+01  0.93389238757E+02  0.87876673181E+02 0.  0.
         13    1    3    3    0    0 -0.23984319086E+02  0.14348212696E+02 -0.16722346523E+02  0.32569415206E+02  0.10566000000E+00 0. -1.
         22    1    1    0    0    0 -0.30800714150E+02  0.70109431008E+01  0.11844454527E+01  0.31610761243E+02  0.00000000000E+00 0.  1.
</event>
<event>
 5    1  0.1285375E-004  0.9118800E+02  0.7818608E-02  0.1130116E+00
         25   -1    0    0    0    0  0.00000000000E+00  0.00000000000E+00  0.99999998245E-14  0.12500000000E+03  0.12500000000E+03 0.  0.
        -13    1    3    3    0    0 -0.13369576200E+02  0.81412695460E+01 -0.35305131240E+02  0.38619804421E+02  0.10566000000E+00 0.  1.
         23    2    1    0    0    0 -0.76548993060E+01  0.29477497684E+02  0.13115549336E+02  0.91840717929E+02  0.85645662367E+02 0.  0.
         13    1    3    3    0    0  0.57146768942E+01  0.21336228138E+02  0.48420680576E+02  0.53220913508E+02  0.10566000000E+00 0. -1.
         22    1    1    0    0    0  0.76548993060E+01 -0.29477497684E+02 -0.13115549336E+02  0.33159282071E+02  0.00000000000E+00 0. -1.
</event>
<event>
 5    1  0.1285375E-004  0.9118800E+02  0.7818608E-02  0.1130116E+00
         25   -1    0    0    0    0  0.00000000000E+00  0.00000000000E+00  0.99999998245E-14  0.12500000000E+03  0.12500000000E+03 0.  0.
        -13    1    3    3    0    0 -0.12557053389E+02  0.21332352268E+02 -0.27735710941E+02  0.37175659625E+02  0.10566000000E+00 0.  1.
         23    2    1    0    0    0 -0.14516404827E+02 -0.24798607447E+02  0.75524920293E+01  0.95289108457E+02  0.90538815512E+02 0.  0.
         13    1    3    3    0    0 -0.19593514382E+01 -0.46130959715E+02  0.35288202971E+02  0.58113448833E+02  0.10566000000E+00 0. -1.
         22    1    1    0    0    0  0.14516404827E+02  0.24798607447E+02 -0.75524920293E+01  0.29710891543E+02  0.00000000000E+00 0. -1.
</event>
<event>
 5    1  0.1285375E-004  0.9118800E+02  0.7818608E-02  0.1130116E+00
         25   -1    0    0    0    0  0.00000000000E+00  0.00000000000E+00  0.99999998245E-14  0.12500000000E+03  0.12500000000E+03 0.  0.
        -13    1    3    3    0    0 -0.28365218974E+02 -0.22024206236E+02 -0.24121267931E+02  0.43260814121E+02  0.10566000000E+00 0.  1.
         23    2    1    0    0    0  0.14334945541E+02  0.93346217762E+01 -0.23108680256E+02  0.96248705585E+02  0.91854103861E+02 0.  0.
         13    1    3    3    0    0  0.42700164515E+02  0.31358828012E+02  0.10125876746E+01  0.52987891464E+02  0.10566000000E+00 0. -1.
         22    1    1    0    0    0 -0.14334945541E+02 -0.93346217762E+01  0.23108680256E+02  0.28751294415E+02  0.00000000000E+00 0.  1.
</event>
<event>
 5    1  0.1285375E-004  0.9118800E+02  0.7818608E-02  0.1130116E+00
         25   -1    0    0    0    0  0.00000000000E+00  0.00000000000E+00  0.99999998245E-14  0.12500000000E+03  0.12500000000E+03 0.  0.
        -13    1    3    3    0    0 -0.33108115248E+02  0.18889818169E+02 -0.63211334737E+00  0.38123263987E+02  0.10566000000E+00 0. -1.
         23    2    1    0    0    0  0.10444167514E+02 -0.14193150945E+01  0.28701965500E+02  0.94423899628E+02  0.89336302291E+02 0.  0.
         13    1    3    3    0    0  0.43552282762E+02 -0.20309133263E+02  0.29334078847E+02  0.56300635641E+02  0.10566000000E+00 0.  1.
         22    1    1    0    0    0 -0.10444167514E+02  0.14193150945E+01 -0.28701965500E+02  0.30576100372E+02  0.00000000000E+00 0.  1.
</event>
<event>
 5    1  0.1285375E-004  0.9118800E+02  0.7818608E-02  0.1130116E+00
         25   -1    0    0    0    0  0.00000000000E+00  0.00000000000E+00  0.99999998245E-14  0.12500000000E+03  0.12500000000E+03 0.  0.
        -13    1    3    3    0    0 -0.34818370698E+02  0.28179222711E+02 -0.25535411021E+02  0.51560216356E+02  0.10566000000E+00 0. -1.
         23    2    1    0    0    0  0.76604831537E+01  0.25042009311E+02 -0.11395530740E+02  0.96440529533E+02  0.92114778311E+02 0.  0.
         13    1    3    3    0    0  0.42478853851E+02 -0.31372133996E+01  0.14139880282E+02  0.44880313177E+02  0.10566000000E+00 0.  1.
         22    1    1    0    0    0 -0.76604831537E+01 -0.25042009311E+02  0.11395530740E+02  0.28559470467E+02  0.00000000000E+00 0. -1.
</event>
<event>
 5    1  0.1285375E-004  0.9118800E+02  0.7818608E-02  0.1130116E+00
         25   -1    0    0    0    0  0.00000000000E+00  0.00000000000E+00  0.99999998245E-14  0.12500000000E+03  0.12500000000E+03 0.  0.
        -13    1    3    3    0    0 -0.20175384387E+02  0.59474451650E+01 -0.30179410223E+02  0.36786223027E+02  0.10566000000E+00 0. -1.
         23    2    1    0    0    0  0.22118526437E+02 -0.18080868419E+02  0.38821003803E+01  0.96169153361E+02  0.91745781049E+02 0.  0.
         13    1    3    3    0    0  0.42293910824E+02 -0.24028313584E+02  0.34061510603E+02  0.59382930334E+02  0.10566000000E+00 0.  1.
         22    1    1    0    0    0 -0.22118526437E+02  0.18080868419E+02 -0.38821003803E+01  0.28830846639E+02  0.00000000000E+00 0.  1.
</event>
<event>
 5    1  0.1285375E-004  0.9118800E+02  0.7818608E-02  0.1130116E+00
         25   -1    0    0    0    0  0.00000000000E+00  0.00000000000E+00  0.99999998245E-14  0.12500000000E+03  0.12500000000E+03 0.  0.
        -13    1    3    3    0    0 -0.29893319904E+02 -0.40851347209E+02 -0.11531138762E+02  0.51917448597E+02  0.10566000000E+00 0. -1.
         23    2    1    0    0    0 -0.23941842550E+02  0.30640445825E+01 -0.15344803022E+02  0.96398196321E+02  0.92057314105E+02 0.  0.
         13    1    3    3    0    0  0.59514773536E+01  0.43915391792E+02 -0.38136642602E+01  0.44480747723E+02  0.10566000000E+00 0.  1.
         22    1    1    0    0    0  0.23941842550E+02 -0.30640445825E+01  0.15344803022E+02  0.28601803679E+02  0.00000000000E+00 0.  1.
</event>
<event>
 5    1  0.1285375E-004  0.9118800E+02  0.7818608E-02  0.1130116E+00
         25   -1    0    0    0    0  0.00000000000E+00  0.00000000000E+00  0.99999998245E-14  0.12500000000E+03  0.12500000000E+03 0.  0.
        -13    1    3    3    0    0 -0.63179403958E+01 -0.72260408733E+01 -0.43765765808E+02  0.44806087292E+02  0.10566000000E+00 0.  1.
         23    2    1    0    0    0 -0.16259639451E+02 -0.23682666468E+02  0.37166412452E+01  0.96033502313E+02  0.91560775325E+02 0.  0.
         13    1    3    3    0    0 -0.99416990552E+01 -0.16456625595E+02  0.47482407054E+02  0.51227415021E+02  0.10566000000E+00 0. -1.
         22    1    1    0    0    0  0.16259639451E+02  0.23682666468E+02 -0.37166412452E+01  0.28966497687E+02  0.00000000000E+00 0.  1.
</event>
<event>
 5    1  0.1285375E-004  0.9118800E+02  0.7818608E-02  0.1130116E+00
         25   -1    0    0    0    0  0.00000000000E+00  0.00000000000E+00  0.99999998245E-14  0.12500000000E+03  0.12500000000E+03 0.  0.
        -13    1    3    3    0    0 -0.26247213664E+02  0.46101453826E+01 -0.24701606484E+02  0.36336623295E+02  0.10566000000E+00 0.  1.
         23    2    1    0    0    0  0.26510514234E+02  0.11985142883E+02  0.18296400740E+01  0.95848694752E+02  0.91308124984E+02 0.  0.
         13    1    3    3    0    0  0.52757727898E+02  0.73749975000E+01  0.26531246558E+02  0.59512071457E+02  0.10566000000E+00 0. -1.
         22    1    1    0    0    0 -0.26510514234E+02 -0.11985142883E+02 -0.18296400740E+01  0.29151305248E+02  0.00000000000E+00 0. -1.
</event>
<event>
 5    1  0.1285375E-004  0.9118800E+02  0.7818608E-02  0.1130116E+00
         25   -1    0    0    0    0  0.00000000000E+00  0.00000000000E+00  0.99999998245E-14  0.12500000000E+03  0.12500000000E+03 0.  0.
        -13    1    3    3    0    0 -0.20539161867E+02 -0.46015130672E+02  0.79178983756E+01  0.51009349140E+02  0.10566000000E+00 0. -1.
         23    2    1    0    0    0 -0.90315972038E+00 -0.25742715666E+02 -0.21258008202E+02  0.91602305169E+02  0.85296988764E+02 0.  0.
         13    1    3    3    0    0  0.19636002147E+02  0.20272415007E+02 -0.29175906577E+02  0.40592956029E+02  0.10566000000E+00 0.  1.
         22    1    1    0    0    0  0.90315972038E+00  0.25742715666E+02  0.21258008202E+02  0.33397694831E+02  0.00000000000E+00 0. -1.
</event>
<event>
 5    1  0.1285375E-004  0.9118800E+02  0.7818608E-02  0.1130116E+00
         25   -1    0    0    0    0  0.00000000000E+00  0.00000000000E+00  0.99999998245E-14  0.12500000000E+03  0.12500000000E+03 0.  0.
        -13    1    3    3    0    0  0.90732533805E+01 -0.35198739592E+02  0.38643104102E+02  0.53052576323E+02  0.10566000000E+00 0.  1.
         23    2    1    0    0    0 -0.18982294167E+02 -0.81617551129E+01  0.19989416762E+02  0.96250764865E+02  0.91856906198E+02 0.  0.
         13    1    3    3    0    0 -0.28055547547E+02  0.27036984479E+02 -0.18653687340E+02  0.43198188542E+02  0.10566000000E+00 0. -1.
         22    1    1    0    0    0  0.18982294167E+02  0.81617551129E+01 -0.19989416762E+02  0.28749235135E+02  0.00000000000E+00 0. -1.
</event>
<event>
 5    1  0.1285375E-004  0.9118800E+02  0.7818608E-02  0.1130116E+00
         25   -1    0    0    0    0  0.00000000000E+00  0.00000000000E+00  0.99999998245E-14  0.12500000000E+03  0.12500000000E+03 0.  0.
        -13    1    3    3    0    0 -0.20742932070E+02 -0.67129684080E+01  0.36605192897E+02  0.42606155503E+02  0.10566000000E+00 0.  1.
         23    2    1    0    0    0  0.43925252850E+01  0.28711398181E+02  0.71503297174E+01  0.95087362555E+02  0.90259850646E+02 0.  0.
         13    1    3    3    0    0  0.25135457355E+02  0.35424366589E+02 -0.29454863179E+02  0.52481207052E+02  0.10566000000E+00 0. -1.
         22    1    1    0    0    0 -0.43925252850E+01 -0.28711398181E+02 -0.71503297174E+01  0.29912637445E+02  0.00000000000E+00 0. -1.
</event>
<event>
 5    1  0.1285375E-004  0.9118800E+02  0.7818608E-02  0.1130116E+00
         25   -1    0    0    0    0  0.00000000000E+00  0.00000000000E+00  0.99999998245E-14  0.12500000000E+03  0.12500000000E+03 0.  0.
        -13    1    3    3    0    0  0.38527139471E+01 -0.32472656519E+02  0.28126192889E+02  0.43132478675E+02  0.10566000000E+00 0.  1.
         23    2    1    0    0    0  0.30089540608E+02  0.23731737872E+01  0.40625653210E+00  0.94814283971E+02  0.89880871117E+02 0.  0.
         13    1    3    3    0    0  0.26236826661E+02  0.34845830306E+02 -0.27719936357E+02  0.51681805296E+02  0.10566000000E+00 0. -1.
         22    1    1    0    0    0 -0.30089540608E+02 -0.23731737872E+01 -0.40625653210E+00  0.30185716029E+02  0.00000000000E+00 0. -1.
</event>
<event>
 5    1  0.1285375E-004  0.9118800E+02  0.7818608E-02  0.1130116E+00
         25   -1    0    0    0    0  0.00000000000E+00  0.00000000000E+00  0.99999998245E-14  0.12500000000E+03  0.12500000000E+03 0.  0.
        -13    1    3    3    0    0 -0.14790936472E+02  0.27114988075E+02 -0.18843056057E+02  0.36181021345E+02  0.10566000000E+00 0. -1.
         23    2    1    0    0    0  0.11758171042E+02 -0.18120901929E+01  0.26374452518E+02  0.96066455406E+02  0.91605752284E+02 0.  0.
         13    1    3    3    0    0  0.26549107514E+02 -0.28927078268E+02  0.45217508575E+02  0.59885434061E+02  0.10566000000E+00 0.  1.
         22    1    1    0    0    0 -0.11758171042E+02  0.18120901929E+01 -0.26374452518E+02  0.28933544594E+02  0.00000000000E+00 0.  1.
</event>
<event>
 5    1  0.1285375E-004  0.9118800E+02  0.7818608E-02  0.1130116E+00
         25   -1    0    0    0    0  0.00000000000E+00  0.00000000000E+00  0.99999998245E-14  0.12500000000E+03  0.12500000000E+03 0.  0.
        -13    1    3    3    0    0  0.13591009554E+02 -0.20564723084E+02  0.23615830089E+02  0.34137105487E+02  0.10566000000E+00 0.  1.
         23    2    1    0    0    0 -0.19085493888E+02  0.91602234950E+01 -0.19755869110E+02  0.96043823876E+02  0.91574865378E+02 0.  0.
         13    1    3    3    0    0 -0.32676503442E+02  0.29724946579E+02 -0.43371699199E+02  0.61906718389E+02  0.10566000000E+00 0. -1.
         22    1    1    0    0    0  0.19085493888E+02 -0.91602234950E+01  0.19755869110E+02  0.28956176124E+02  0.00000000000E+00 0. -1.
</event>
<event>
 5    1  0.1285375E-004  0.9118800E+02  0.7818608E-02  0.1130116E+00
         25   -1    0    0    0    0  0.00000000000E+00  0.00000000000E+00  0.99999998245E-14  0.12500000000E+03  0.12500000000E+03 0.  0.
        -13    1    3    3    0    0  0.33347579520E+02 -0.16061238804E+02 -0.10697977344E+02  0.38528980457E+02  0.10566000000E+00 0.  1.
         23    2    1    0    0    0 -0.22818114642E+02 -0.18281738777E+02  0.73593948110E-01  0.95761433951E+02  0.91188587486E+02 0.  0.
         13    1    3    3    0    0 -0.56165694162E+02 -0.22204999731E+01  0.10771571292E+02  0.57232453494E+02  0.10566000000E+00 0. -1.
         22    1    1    0    0    0  0.22818114642E+02  0.18281738777E+02 -0.73593948110E-01  0.29238566049E+02  0.00000000000E+00 0. -1.
</event>
<event>
 5    1  0.1285375E-004  0.9118800E+02  0.7818608E-02  0.1130116E+00
         25   -1    0    0    0    0  0.00000000000E+00  0.00000000000E+00  0.99999998245E-14  0.12500000000E+03  0.12500000000E+03 0.  0.
        -13    1    3    3    0    0  0.35549747454E+02 -0.32397493348E+02 -0.37914260269E+02  0.61244464362E+02  0.10566000000E+00 0.  1.
         23    2    1    0    0    0  0.18866639007E+02 -0.74210824666E+01 -0.21402111326E+02  0.95519957571E+02  0.90856972175E+02 0.  0.
         13    1    3    3    0    0 -0.16683108446E+02  0.24976410881E+02  0.16512148944E+02  0.34275493209E+02  0.10566000000E+00 0. -1.
         22    1    1    0    0    0 -0.18866639007E+02  0.74210824666E+01  0.21402111326E+02  0.29480042429E+02  0.00000000000E+00 0.  1.
</event>
<event>
 5    1  0.1285375E-004  0.9118800E+02  0.7818608E-02  0.1130116E+00
         25   -1    0    0    0    0  0.00000000000E+00  0.00000000000E+00  0.99999998245E-14  0.12500000000E+03  0.12500000000E+03 0.  0.
        -13    1    3    3    0    0  0.18058882512E+02  0.44769858237E+02  0.73089475791E+01  0.48825150515E+02  0.10566000000E+00 0. -1.
         23    2    1    0    0    0  0.15633831804E+02  0.60899686995E+01  0.27697593906E+02  0.92616962406E+02  0.86771196842E+02 0.  0.
         13    1    3    3    0    0 -0.24250507082E+01 -0.38679889537E+02  0.20388646327E+02  0.43791811890E+02  0.10566000000E+00 0.  1.
         22    1    1    0    0    0 -0.15633831804E+02 -0.60899686995E+01 -0.27697593906E+02  0.32383037594E+02  0.00000000000E+00 0. -1.
</event>
<event>
 5    1  0.1285375E-004  0.9118800E+02  0.7818608E-02  0.1130116E+00
         25   -1    0    0    0    0  0.00000000000E+00  0.00000000000E+00  0.99999998245E-14  0.12500000000E+03  0.12500000000E+03 0.  0.
        -13    1    3    3    0    0 -0.26891851878E+02  0.80510369187E+01 -0.17908688724E+02  0.33297495232E+02  0.10566000000E+00 0.  1.
         23    2    1    0    0    0  0.22153887157E+02 -0.11374911722E+02  0.15431613317E+02  0.95702934918E+02  0.91108362566E+02 0.  0.
         13    1    3    3    0    0  0.49045739035E+02 -0.19425948641E+02  0.33340302041E+02  0.62405439685E+02  0.10566000000E+00 0. -1.
         22    1    1    0    0    0 -0.22153887157E+02  0.11374911722E+02 -0.15431613317E+02  0.29297065082E+02  0.00000000000E+00 0. -1.
</event>
<event>
 5    1  0.1285375E-004  0.9118800E+02  0.7818608E-02  0.1130116E+00
         25   -1    0    0    0    0  0.00000000000E+00  0.00000000000E+00  0.99999998245E-14  0.12500000000E+03  0.12500000000E+03 0.  0.
        -13    1    3    3    0    0 -0.28433336312E+02 -0.11369922851E+02  0.12786294640E+02  0.33184789499E+02  0.10566000000E+00 0.  1.
         23    2    1    0    0    0  0.12787001472E+02  0.20259186894E+02 -0.19287036672E+02  0.94243994995E+02  0.89084222783E+02 0.  0.
         13    1    3    3    0    0  0.41220337785E+02  0.31629109745E+02 -0.32073331312E+02  0.61059205496E+02  0.10566000000E+00 0. -1.
         22    1    1    0    0    0 -0.12787001472E+02 -0.20259186894E+02  0.19287036672E+02  0.30756005005E+02  0.00000000000E+00 0. -1.
</event>
<event>
 5    1  0.1285375E-004  0.9118800E+02  0.7818608E-02  0.1130116E+00
         25   -1    0    0    0    0  0.00000000000E+00  0.00000000000E+00  0.99999998245E-14  0.12500000000E+03  0.12500000000E+03 0.  0.
        -13    1    3    3    0    0  0.30568101465E+01 -0.15003817277E+02 -0.31905427454E+02  0.35389632468E+02  0.10566000000E+00 0. -1.
         23    2    1    0    0    0 -0.20846654084E+02  0.13314536960E+02  0.15687712741E+02  0.95708973866E+02  0.91116647581E+02 0.  0.
         13    1    3    3    0    0 -0.23903464231E+02  0.28318354238E+02  0.47593140195E+02  0.60319341397E+02  0.10566000000E+00 0.  1.
         22    1    1    0    0    0  0.20846654084E+02 -0.13314536960E+02 -0.15687712741E+02  0.29291026134E+02  0.00000000000E+00 0.  1.
</event>
<event>
 5    1  0.1285375E-004  0.9118800E+02  0.7818608E-02  0.1130116E+00
         25   -1    0    0    0    0  0.00000000000E+00  0.00000000000E+00  0.99999998245E-14  0.12500000000E+03  0.12500000000E+03 0.  0.
        -13    1    3    3    0    0 -0.16940573617E+02 -0.24938284563E+02  0.38453564929E+02  0.48862960320E+02  0.10566000000E+00 0.  1.
         23    2    1    0    0    0 -0.19249474384E+02  0.14289149107E+02  0.24912507061E+02  0.90426092869E+02  0.83555509796E+02 0.  0.
         13    1    3    3    0    0 -0.23089007664E+01  0.39227433670E+02 -0.13541057868E+02  0.41563132549E+02  0.10566000000E+00 0. -1.
         22    1    1    0    0    0  0.19249474384E+02 -0.14289149107E+02 -0.24912507061E+02  0.34573907131E+02  0.00000000000E+00 0.  1.
</event>
<event>
 5    1  0.1285375E-004  0.9118800E+02  0.7818608E-02  0.1130116E+00
         25   -1    0    0    0    0  0.00000000000E+00  0.00000000000E+00  0.99999998245E-14  0.12500000000E+03  0.12500000000E+03 0.  0.
        -13    1    3    3    0    0  0.30458881354E+02 -0.30181107293E+02 -0.41828558400E+02  0.59902271682E+02  0.10566000000E+00 0. -1.
         23    2    1    0    0    0  0.30576731609E+01 -0.20443854548E+02 -0.19706997820E+02  0.96440127504E+02  0.92114232754E+02 0.  0.
         13    1    3    3    0    0 -0.27401208193E+02  0.97372527452E+01  0.22121560581E+02  0.36537855822E+02  0.10566000000E+00 0.  1.
         22    1    1    0    0    0 -0.30576731609E+01  0.20443854548E+02  0.19706997820E+02  0.28559872496E+02  0.00000000000E+00 0. -1.
</event>
<event>
 5    1  0.1285375E-004  0.9118800E+02  0.7818608E-02  0.1130116E+00
         25   -1    0    0    0    0  0.00000000000E+00  0.00000000000E+00  0.99999998245E-14  0.12500000000E+03  0.12500000000E+03 0.  0.
        -13    1    3    3    0    0  0.58451129740E+02 -0.77315679600E+01  0.13473975365E+02  0.60480334714E+02  0.10566000000E+00 0.  1.
         23    2    1    0    0    0  0.24616742819E+02 -0.13637774317E+02  0.16318323355E+01  0.96810714942E+02  0.92615758570E+02 0.  0.
         13    1    3    3    0    0 -0.33834386921E+02 -0.59062063575E+01 -0.11842143030E+02  0.36330380227E+02  0.10566000000E+00 0. -1.
         22    1    1    0    0    0 -0.24616742819E+02  0.13637774317E+02 -0.16318323355E+01  0.28189285058E+02  0.00000000000E+00 0.  1.
</event>
<event>
 5    1  0.1285375E-004  0.9118800E+02  0.7818608E-02  0.1130116E+00
         25   -1    0    0    0    0  0.00000000000E+00  0.00000000000E+00  0.99999998245E-14  0.12500000000E+03  0.12500000000E+03 0.  0.
        -13    1    3    3    0    0  0.25833040138E+02 -0.34984396146E+02  0.32565645115E+01  0.43610438119E+02  0.10566000000E+00 0.  1.
         23    2    1    0    0    0 -0.10550637839E+02 -0.10239455100E+02 -0.25067023838E+02  0.95939406688E+02  0.91432224473E+02 0.  0.
         13    1    3    3    0    0 -0.36383677977E+02  0.24744941046E+02 -0.28323588349E+02  0.52328968569E+02  0.10566000000E+00 0. -1.
         22    1    1    0    0    0  0.10550637839E+02  0.10239455100E+02  0.25067023838E+02  0.29060593312E+02  0.00000000000E+00 0. -1.
</event>
<event>
 5    1  0.1285375E-004  0.9118800E+02  0.7818608E-02  0.1130116E+00
         25   -1    0    0    0    0  0.00000000000E+00  0.00000000000E+00  0.99999998245E-14  0.12500000000E+03  0.12500000000E+03 0.  0.
        -13    1    3    3    0    0  0.14269621537E+02 -0.39840718213E+02  0.25336626654E+02  0.49324038164E+02  0.10566000000E+00 0.  1.
         23    2    1    0    0    0  0.13762836565E+02  0.10341556568E+02  0.18087075532E+02  0.10002990261E+03  0.96863180061E+02 0.  0.
         13    1    3    3    0    0 -0.50678497173E+00  0.50182274782E+02 -0.72495511222E+01  0.50705864442E+02  0.10566000000E+00 0. -1.
         22    1    1    0    0    0 -0.13762836565E+02 -0.10341556568E+02 -0.18087075532E+02  0.24970097394E+02  0.00000000000E+00 0.  1.
</event>
<event>
 5    1  0.1285375E-004  0.9118800E+02  0.7818608E-02  0.1130116E+00
         25   -1    0    0    0    0  0.00000000000E+00  0.00000000000E+00  0.99999998245E-14  0.12500000000E+03  0.12500000000E+03 0.  0.
        -13    1    3    3    0    0  0.30024800988E+02  0.47677576382E+02  0.14000034345E+02  0.58057317280E+02  0.10566000000E+00 0.  1.
         23    2    1    0    0    0  0.34622595724E+00  0.29967838187E+02  0.90343435402E+00  0.95016548037E+02  0.90161726964E+02 0.  0.
         13    1    3    3    0    0 -0.29678575031E+02 -0.17709738195E+02 -0.13096599991E+02  0.36959230757E+02  0.10566000000E+00 0. -1.
         22    1    1    0    0    0 -0.34622595724E+00 -0.29967838187E+02 -0.90343435402E+00  0.29983451963E+02  0.00000000000E+00 0.  1.
</event>
<event>
 5    1  0.1285375E-004  0.9118800E+02  0.7818608E-02  0.1130116E+00
         25   -1    0    0    0    0  0.00000000000E+00  0.00000000000E+00  0.99999998245E-14  0.12500000000E+03  0.12500000000E+03 0.  0.
        -13    1    3    3    0    0  0.10061683702E+01 -0.27840774764E+02 -0.26245910935E+02  0.38275058708E+02  0.10566000000E+00 0.  1.
         23    2    1    0    0    0  0.22194187374E+02  0.20189637590E+02 -0.69766189194E+01  0.94196158831E+02  0.89017075372E+02 0.  0.
         13    1    3    3    0    0  0.21188019004E+02  0.48030412354E+02  0.19269292016E+02  0.55921100123E+02  0.10566000000E+00 0. -1.
         22    1    1    0    0    0 -0.22194187374E+02 -0.20189637590E+02  0.69766189194E+01  0.30803841169E+02  0.00000000000E+00 0. -1.
</event>
<event>
 5    1  0.1285375E-004  0.9118800E+02  0.7818608E-02  0.1130116E+00
         25   -1    0    0    0    0  0.00000000000E+00  0.00000000000E+00  0.99999998245E-14  0.12500000000E+03  0.12500000000E+03 0.  0.
        -13    1    3    3    0    0  0.88470269187E+01  0.39438421971E+02 -0.20047289847E+02  0.45117225171E+02  0.10566000000E+00 0.  1.
         23    2    1    0    0    0 -0.28533259479E+02  0.12320212027E+02 -0.96828472306E+01  0.92447088434E+02  0.86526135408E+02 0.  0.
         13    1    3    3    0    0 -0.37380286398E+02 -0.27118209944E+02  0.10364442616E+02  0.47329863264E+02  0.10566000000E+00 0. -1.
         22    1    1    0    0    0  0.28533259479E+02 -0.12320212027E+02  0.96828472306E+01  0.32552911566E+02  0.00000000000E+00 0. -1.
</event>
<event>
 5    1  0.1285375E-004  0.9118800E+02  0.7818608E-02  0.1130116E+00
         25   -1    0    0    0    0  0.00000000000E+00  0.00000000000E+00  0.99999998245E-14  0.12500000000E+03  0.12500000000E+03 0.  0.
        -13    1    3    3    0    0 -0.18920803775E+02  0.18311711325E+02 -0.50179645808E+02  0.56668541578E+02  0.10566000000E+00 0.  1.
         23    2    1    0    0    0 -0.24758478029E+02  0.73103513746E+01 -0.12569301799E+02  0.96287444919E+02  0.91906807310E+02 0.  0.
         13    1    3    3    0    0 -0.58376742539E+01 -0.11001359951E+02  0.37610344009E+02  0.39618903341E+02  0.10566000000E+00 0. -1.
         22    1    1    0    0    0  0.24758478029E+02 -0.73103513746E+01  0.12569301799E+02  0.28712555081E+02  0.00000000000E+00 0.  1.
</event>
<event>
 5    1  0.1285375E-004  0.9118800E+02  0.7818608E-02  0.1130116E+00
         25   -1    0    0    0    0  0.00000000000E+00  0.00000000000E+00  0.99999998245E-14  0.12500000000E+03  0.12500000000E+03 0.  0.
        -13    1    3    3    0    0  0.38534470191E+02  0.45905767246E+01  0.14275380619E+01  0.38833333832E+02  0.10566000000E+00 0.  1.
         23    2    1    0    0    0 -0.99279405234E+01 -0.20312722112E+02  0.18343576429E+02  0.95885442149E+02  0.91358417988E+02 0.  0.
         13    1    3    3    0    0 -0.48462410715E+02 -0.24903298837E+02  0.16916038368E+02  0.57052108316E+02  0.10566000000E+00 0. -1.
         22    1    1    0    0    0  0.99279405234E+01  0.20312722112E+02 -0.18343576429E+02  0.29114557851E+02  0.00000000000E+00 0.  1.
</event>
<event>
 5    1  0.1285375E-004  0.9118800E+02  0.7818608E-02  0.1130116E+00
         25   -1    0    0    0    0  0.00000000000E+00  0.00000000000E+00  0.99999998245E-14  0.12500000000E+03  0.12500000000E+03 0.  0.
        -13    1    3    3    0    0  0.30423328572E+02  0.33851246134E+02 -0.14838982152E+02  0.47871623553E+02  0.10566000000E+00 0. -1.
         23    2    1    0    0    0 -0.97076670104E+00  0.19447791649E+02  0.20108995417E+02  0.97008381885E+02  0.92882159058E+02 0.  0.
         13    1    3    3    0    0 -0.31394095273E+02 -0.14403454485E+02  0.34947977569E+02  0.49136758332E+02  0.10566000000E+00 0.  1.
         22    1    1    0    0    0  0.97076670104E+00 -0.19447791649E+02 -0.20108995417E+02  0.27991618115E+02  0.00000000000E+00 0.  1.
</event>
<event>
 5    1  0.1285375E-004  0.9118800E+02  0.7818608E-02  0.1130116E+00
         25   -1    0    0    0    0  0.00000000000E+00  0.00000000000E+00  0.99999998245E-14  0.12500000000E+03  0.12500000000E+03 0.  0.
        -13    1    3    3    0    0  0.47691871406E+02  0.16443954267E+02 -0.20609644140E+02  0.54494833019E+02  0.10566000000E+00 0. -1.
         23    2    1    0    0    0  0.15846471807E+02  0.29110165717E+02 -0.10733507522E+02  0.90161506913E+02  0.83158744148E+02 0.  0.
         13    1    3    3    0    0 -0.31845399599E+02  0.12666211451E+02  0.98761366184E+01  0.35666673894E+02  0.10566000000E+00 0.  1.
         22    1    1    0    0    0 -0.15846471807E+02 -0.29110165717E+02  0.10733507522E+02  0.34838493087E+02  0.00000000000E+00 0.  1.
</event>
<event>
 5    1  0.1285375E-004  0.9118800E+02  0.7818608E-02  0.1130116E+00
         25   -1    0    0    0    0  0.00000000000E+00  0.00000000000E+00  0.99999998245E-14  0.12500000000E+03  0.12500000000E+03 0.  0.
        -13    1    3    3    0    0 -0.18290877996E+02  0.24256370051E+02  0.19826678201E+02  0.36277211007E+02  0.10566000000E+00 0.  1.
         23    2    1    0    0    0  0.26119536500E+02 -0.90178087743E+01 -0.47384876636E+01  0.96964231285E+02  0.92822722549E+02 0.  0.
         13    1    3    3    0    0  0.44410414497E+02 -0.33274178825E+02 -0.24565165865E+02  0.60687020278E+02  0.10566000000E+00 0. -1.
         22    1    1    0    0    0 -0.26119536500E+02  0.90178087743E+01  0.47384876636E+01  0.28035768715E+02  0.00000000000E+00 0. -1.
</event>
<event>
 5    1  0.1285375E-004  0.9118800E+02  0.7818608E-02  0.1130116E+00
         25   -1    0    0    0    0  0.00000000000E+00  0.00000000000E+00  0.99999998245E-14  0.12500000000E+03  0.12500000000E+03 0.  0.
        -13    1    3    3    0    0 -0.16688013402E+02 -0.30266111060E+02 -0.33273674416E+02  0.47975783924E+02  0.10566000000E+00 0.  1.
         23    2    1    0    0    0  0.22393905445E+02 -0.10994710978E+02 -0.18331835803E+02  0.94041529842E+02  0.88799676016E+02 0.  0.
         13    1    3    3    0    0  0.39081918847E+02  0.19271400081E+02  0.14941838613E+02  0.46065745918E+02  0.10566000000E+00 0. -1.
         22    1    1    0    0    0 -0.22393905445E+02  0.10994710978E+02  0.18331835803E+02  0.30958470158E+02  0.00000000000E+00 0.  1.
</event>
<event>
 5    1  0.1285375E-004  0.9118800E+02  0.7818608E-02  0.1130116E+00
         25   -1    0    0    0    0  0.00000000000E+00  0.00000000000E+00  0.99999998245E-14  0.12500000000E+03  0.12500000000E+03 0.  0.
        -13    1    3    3    0    0  0.22631582503E+02 -0.63689897458E+01  0.35754185490E+02  0.42791652236E+02  0.10566000000E+00 0. -1.
         23    2    1    0    0    0 -0.24994193559E+02  0.79870606541E+00  0.18272768026E+02  0.94028372752E+02  0.88781153339E+02 0.  0.
         13    1    3    3    0    0 -0.47625776062E+02  0.71676958112E+01 -0.17481417464E+02  0.51236720517E+02  0.10566000000E+00 0.  1.
         22    1    1    0    0    0  0.24994193559E+02 -0.79870606541E+00 -0.18272768026E+02  0.30971627248E+02  0.00000000000E+00 0. -1.
</event>
<event>
 5    1  0.1285375E-004  0.9118800E+02  0.7818608E-02  0.1130116E+00
         25   -1    0    0    0    0  0.00000000000E+00  0.00000000000E+00  0.99999998245E-14  0.12500000000E+03  0.12500000000E+03 0.  0.
        -13    1    3    3    0    0  0.43786490013E+02  0.25535696003E+01 -0.38688079314E+01  0.44031310044E+02  0.10566000000E+00 0.  1.
         23    2    1    0    0    0  0.24813986532E+01  0.18392582121E+02 -0.25649294487E+02  0.93340392864E+02  0.87807164946E+02 0.  0.
         13    1    3    3    0    0 -0.41305091360E+02  0.15839012520E+02 -0.21780486556E+02  0.49309082819E+02  0.10566000000E+00 0. -1.
         22    1    1    0    0    0 -0.24813986532E+01 -0.18392582121E+02  0.25649294487E+02  0.31659607136E+02  0.00000000000E+00 0. -1.
</event>
<event>
 5    1  0.1285375E-004  0.9118800E+02  0.7818608E-02  0.1130116E+00
         25   -1    0    0    0    0  0.00000000000E+00  0.00000000000E+00  0.99999998245E-14  0.12500000000E+03  0.12500000000E+03 0.  0.
        -13    1    3    3    0    0  0.28930105990E+02 -0.19002608575E+02 -0.26494315324E+01  0.34714273962E+02  0.10566000000E+00 0.  1.
         23    2    1    0    0    0 -0.26804681892E+02 -0.41218534765E+01  0.13620621909E+02  0.94651985426E+02  0.89654873579E+02 0.  0.
         13    1    3    3    0    0 -0.55734787882E+02  0.14880755098E+02  0.16270053442E+02  0.59937711464E+02  0.10566000000E+00 0. -1.
         22    1    1    0    0    0  0.26804681892E+02  0.41218534765E+01 -0.13620621909E+02  0.30348014574E+02  0.00000000000E+00 0. -1.
</event>
<event>
 5    1  0.1285375E-004  0.9118800E+02  0.7818608E-02  0.1130116E+00
         25   -1    0    0    0    0  0.00000000000E+00  0.00000000000E+00  0.99999998245E-14  0.12500000000E+03  0.12500000000E+03 0.  0.
        -13    1    3    3    0    0  0.17765471072E+02 -0.91279560272E+01  0.54045762130E+02  0.57618461554E+02  0.10566000000E+00 0.  1.
         23    2    1    0    0    0  0.44122808779E+01  0.13050984228E+02  0.24419920979E+02  0.96962008765E+02  0.92819729536E+02 0.  0.
         13    1    3    3    0    0 -0.13353190194E+02  0.22178940255E+02 -0.29625841150E+02  0.39343547211E+02  0.10566000000E+00 0. -1.
         22    1    1    0    0    0 -0.44122808779E+01 -0.13050984228E+02 -0.24419920979E+02  0.28037991235E+02  0.00000000000E+00 0.  1.
</event>
<event>
 5    1  0.1285375E-004  0.9118800E+02  0.7818608E-02  0.1130116E+00
         25   -1    0    0    0    0  0.00000000000E+00  0.00000000000E+00  0.99999998245E-14  0.12500000000E+03  0.12500000000E+03 0.  0.
        -13    1    3    3    0    0  0.24932895620E+02 -0.98837486542E+01  0.38022834360E+02  0.46530472470E+02  0.10566000000E+00 0. -1.
         23    2    1    0    0    0 -0.87402936405E+01  0.20804191006E+02  0.17220489619E+02  0.96614222592E+02  0.92350179470E+02 0.  0.
         13    1    3    3    0    0 -0.33673189261E+02  0.30687939660E+02 -0.20802344741E+02  0.50083750122E+02  0.10566000000E+00 0.  1.
         22    1    1    0    0    0  0.87402936405E+01 -0.20804191006E+02 -0.17220489619E+02  0.28385777408E+02  0.00000000000E+00 0. -1.
</event>
<event>
 5    1  0.1285375E-004  0.9118800E+02  0.7818608E-02  0.1130116E+00
         25   -1    0    0    0    0  0.00000000000E+00  0.00000000000E+00  0.99999998245E-14  0.12500000000E+03  0.12500000000E+03 0.  0.
        -13    1    3    3    0    0 -0.89403061591E+01 -0.28757954024E+02  0.20024944809E+02  0.36165709899E+02  0.10566000000E+00 0.  1.
         23    2    1    0    0    0  0.19912735246E+02  0.10263344415E+02 -0.16727375832E+02  0.97041846166E+02  0.92927184082E+02 0.  0.
         13    1    3    3    0    0  0.28853041405E+02  0.39021298440E+02 -0.36752320641E+02  0.60876136267E+02  0.10566000000E+00 0. -1.
         22    1    1    0    0    0 -0.19912735246E+02 -0.10263344415E+02  0.16727375832E+02  0.27958153834E+02  0.00000000000E+00 0. -1.
</event>
<event>
 5    1  0.1285375E-004  0.9118800E+02  0.7818608E-02  0.1130116E+00
         25   -1    0    0    0    0  0.00000000000E+00  0.00000000000E+00  0.99999998245E-14  0.12500000000E+03  0.12500000000E+03 0.  0.
        -13    1    3    3    0    0 -0.10370640381E+02 -0.33515354981E+02 -0.22659095126E+00  0.35084066311E+02  0.10566000000E+00 0.  1.
         23    2    1    0    0    0 -0.29715287106E+02  0.16947307921E+02 -0.84852560980E+01  0.89755013057E+02  0.82545461803E+02 0.  0.
         13    1    3    3    0    0 -0.19344646726E+02  0.50462662902E+02 -0.82586651467E+01  0.54670946746E+02  0.10566000000E+00 0. -1.
         22    1    1    0    0    0  0.29715287106E+02 -0.16947307921E+02  0.84852560980E+01  0.35244986943E+02  0.00000000000E+00 0. -1.
</event>
<event>
 5    1  0.1285375E-004  0.9118800E+02  0.7818608E-02  0.1130116E+00
         25   -1    0    0    0    0  0.00000000000E+00  0.00000000000E+00  0.99999998245E-14  0.12500000000E+03  0.12500000000E+03 0.  0.
        -13    1    3    3    0    0  0.37533563321E+02 -0.14227426384E+02 -0.85659276533E+01  0.41043566094E+02  0.10566000000E+00 0.  1.
         23    2    1    0    0    0  0.41523485657E+01  0.24812166318E+01  0.29938805284E+02  0.94672941184E+02  0.89684086080E+02 0.  0.
         13    1    3    3    0    0 -0.33381214756E+02  0.16708643016E+02  0.38504732937E+02  0.53629375090E+02  0.10566000000E+00 0. -1.
         22    1    1    0    0    0 -0.41523485657E+01 -0.24812166318E+01 -0.29938805284E+02  0.30327058816E+02  0.00000000000E+00 0.  1.
</event>
<event>
 5    1  0.1285375E-004  0.9118800E+02  0.7818608E-02  0.1130116E+00
         25   -1    0    0    0    0  0.00000000000E+00  0.00000000000E+00  0.99999998245E-14  0.12500000000E+03  0.12500000000E+03 0.  0.
        -13    1    3    3    0    0 -0.10253750243E+02  0.35426879458E+02 -0.68652431246E+01  0.37514609279E+02  0.10566000000E+00 0. -1.
         23    2    1    0    0    0 -0.19242634596E+02 -0.20719714980E+02  0.66308635546E+01  0.95956000163E+02  0.91454907144E+02 0.  0.
         13    1    3    3    0    0 -0.89888843532E+01 -0.56146594438E+02  0.13496106679E+02  0.58441390884E+02  0.10566000000E+00 0.  1.
         22    1    1    0    0    0  0.19242634596E+02  0.20719714980E+02 -0.66308635546E+01  0.29043999837E+02  0.00000000000E+00 0.  1.
</event>
<event>
 5    1  0.1285375E-004  0.9118800E+02  0.7818608E-02  0.1130116E+00
         25   -1    0    0    0    0  0.00000000000E+00  0.00000000000E+00  0.99999998245E-14  0.12500000000E+03  0.12500000000E+03 0.  0.
        -13    1    3    3    0    0 -0.25524567649E+02  0.26806595136E+02  0.27393130777E+02  0.46048798836E+02  0.10566000000E+00 0.  1.
         23    2    1    0    0    0 -0.23799157186E+01  0.24170561263E+02 -0.16429158763E+02  0.95677699812E+02  0.91073733607E+02 0.  0.
         13    1    3    3    0    0  0.23144651930E+02 -0.26360338726E+01 -0.43822289540E+02  0.49628900976E+02  0.10566000000E+00 0. -1.
         22    1    1    0    0    0  0.23799157186E+01 -0.24170561263E+02  0.16429158763E+02  0.29322300188E+02  0.00000000000E+00 0. -1.
</event>
<event>
 5    1  0.1285375E-004  0.9118800E+02  0.7818608E-02  0.1130116E+00
         25   -1    0    0    0    0  0.00000000000E+00  0.00000000000E+00  0.99999998245E-14  0.12500000000E+03  0.12500000000E+03 0.  0.
        -13    1    3    3    0    0  0.10350358912E+02  0.45905606777E+02  0.24002598033E+00  0.47058723311E+02  0.10566000000E+00 0.  1.
         23    2    1    0    0    0  0.46077229017E+01 -0.27022071358E+01  0.23250525447E+02  0.10114376460E+03  0.98290086737E+02 0.  0.
         13    1    3    3    0    0 -0.57426360106E+01 -0.48607813913E+02  0.23010499467E+02  0.54085041292E+02  0.10566000000E+00 0. -1.
         22    1    1    0    0    0 -0.46077229017E+01  0.27022071358E+01 -0.23250525447E+02  0.23856235397E+02  0.00000000000E+00 0. -1.
</event>
<event>
 5    1  0.1285375E-004  0.9118800E+02  0.7818608E-02  0.1130116E+00
         25   -1    0    0    0    0  0.00000000000E+00  0.00000000000E+00  0.99999998245E-14  0.12500000000E+03  0.12500000000E+03 0.  0.
        -13    1    3    3    0    0 -0.16782064713E+02  0.43193478755E+02 -0.37769602269E+02  0.59781839404E+02  0.10566000000E+00 0. -1.
         23    2    1    0    0    0 -0.15502911234E+02  0.10854059127E+02 -0.22592119528E+02  0.95528747549E+02  0.90869064523E+02 0.  0.
         13    1    3    3    0    0  0.12791534793E+01 -0.32339419628E+02  0.15177482740E+02  0.35746908144E+02  0.10566000000E+00 0.  1.
         22    1    1    0    0    0  0.15502911234E+02 -0.10854059127E+02  0.22592119528E+02  0.29471252451E+02  0.00000000000E+00 0. -1.
</event>
<event>
 5    1  0.1285375E-004  0.9118800E+02  0.7818608E-02  0.1130116E+00
         25   -1    0    0    0    0  0.00000000000E+00  0.00000000000E+00  0.99999998245E-14  0.12500000000E+03  0.12500000000E+03 0.  0.
        -13    1    3    3    0    0  0.52585413992E+02  0.45781979977E+01  0.31367027143E+02  0.61401035964E+02  0.10566000000E+00 0. -1.
         23    2    1    0    0    0  0.30256917569E+02  0.67609578607E+01  0.98935720955E+01  0.92456576996E+02  0.86539841975E+02 0.  0.
         13    1    3    3    0    0 -0.22328496423E+02  0.21827598629E+01 -0.21473455047E+02  0.31055541033E+02  0.10566000000E+00 0.  1.
         22    1    1    0    0    0 -0.30256917569E+02 -0.67609578607E+01 -0.98935720955E+01  0.32543423004E+02  0.00000000000E+00 0. -1.
</event>
<event>
 5    1  0.1285375E-004  0.9118800E+02  0.7818608E-02  0.1130116E+00
         25   -1    0    0    0    0  0.00000000000E+00  0.00000000000E+00  0.99999998245E-14  0.12500000000E+03  0.12500000000E+03 0.  0.
        -13    1    3    3    0    0  0.54961636906E+02 -0.10264230969E+02 -0.11188794026E+02  0.57020489690E+02  0.10566000000E+00 0.  1.
         23    2    1    0    0    0  0.17461473210E+02 -0.18463340829E+02 -0.14826293079E+02  0.95578630764E+02  0.90937658267E+02 0.  0.
         13    1    3    3    0    0 -0.37500163695E+02 -0.81991098595E+01 -0.36374990531E+01  0.38558141074E+02  0.10566000000E+00 0. -1.
         22    1    1    0    0    0 -0.17461473210E+02  0.18463340829E+02  0.14826293079E+02  0.29421369236E+02  0.00000000000E+00 0.  1.
</event>
<event>
 5    1  0.1285375E-004  0.9118800E+02  0.7818608E-02  0.1130116E+00
         25   -1    0    0    0    0  0.00000000000E+00  0.00000000000E+00  0.99999998245E-14  0.12500000000E+03  0.12500000000E+03 0.  0.
        -13    1    3    3    0    0 -0.19449047568E+02 -0.40610686002E+02 -0.31849238293E+01  0.45140316488E+02  0.10566000000E+00 0. -1.
         23    2    1    0    0    0 -0.13827774027E+02  0.20895957026E+01  0.24818474706E+02  0.96512626806E+02  0.92212562602E+02 0.  0.
         13    1    3    3    0    0  0.56212735410E+01  0.42700281704E+02  0.28003398535E+02  0.51372310318E+02  0.10566000000E+00 0.  1.
         22    1    1    0    0    0  0.13827774027E+02 -0.20895957026E+01 -0.24818474706E+02  0.28487373194E+02  0.00000000000E+00 0.  1.
</event>
<event>
 5    1  0.1285375E-004  0.9118800E+02  0.7818608E-02  0.1130116E+00
         25   -1    0    0    0    0  0.00000000000E+00  0.00000000000E+00  0.99999998245E-14  0.12500000000E+03  0.12500000000E+03 0.  0.
        -13    1    3    3    0    0  0.20534787510E+02 -0.12386988530E+02 -0.30091779701E+02  0.38479102803E+02  0.10566000000E+00 0. -1.
         23    2    1    0    0    0 -0.29270826719E+02  0.20327096956E+00 -0.64708749287E+01  0.95021760588E+02  0.90168953343E+02 0.  0.
         13    1    3    3    0    0 -0.49805614229E+02  0.12590259500E+02  0.23620904772E+02  0.56542657784E+02  0.10566000000E+00 0.  1.
         22    1    1    0    0    0  0.29270826719E+02 -0.20327096956E+00  0.64708749287E+01  0.29978239412E+02  0.00000000000E+00 0.  1.
</event>
<event>
 5    1  0.1285375E-004  0.9118800E+02  0.7818608E-02  0.1130116E+00
         25   -1    0    0    0    0  0.00000000000E+00  0.00000000000E+00  0.99999998245E-14  0.12500000000E+03  0.12500000000E+03 0.  0.
        -13    1    3    3    0    0  0.30880253652E+02  0.37569334401E+02  0.30602577888E+02  0.57459323790E+02  0.10566000000E+00 0.  1.
         23    2    1    0    0    0  0.24723002857E+02  0.12185559264E+02  0.34049495606E+00  0.97434973941E+02  0.93454499545E+02 0.  0.
         13    1    3    3    0    0 -0.61572507945E+01 -0.25383775137E+02 -0.30262082932E+02  0.39975650151E+02  0.10566000000E+00 0. -1.
         22    1    1    0    0    0 -0.24723002857E+02 -0.12185559264E+02 -0.34049495606E+00  0.27565026059E+02  0.00000000000E+00 0.  1.
</event>
<event>
 5    1  0.1285375E-004  0.9118800E+02  0.7818608E-02  0.1130116E+00
         25   -1    0    0    0    0  0.00000000000E+00  0.00000000000E+00  0.99999998245E-14  0.12500000000E+03  0.12500000000E+03 0.  0.
        -13    1    3    3    0    0  0.19152384233E+02 -0.22219952538E+02  0.39102990413E+02  0.48883485308E+02  0.10566000000E+00 0.  1.
         23    2    1    0    0    0  0.42068699391E+01 -0.36372213435E+02  0.59519951964E+01  0.87904691515E+02  0.79694246208E+02 0.  0.
         13    1    3    3    0    0 -0.14945514294E+02 -0.14152260897E+02 -0.33150995216E+02  0.39021206207E+02  0.10566000000E+00 0. -1.
         22    1    1    0    0    0 -0.42068699391E+01  0.36372213435E+02 -0.59519951964E+01  0.37095308485E+02  0.00000000000E+00 0.  1.
</event>
<event>
 5    1  0.1285375E-004  0.9118800E+02  0.7818608E-02  0.1130116E+00
         25   -1    0    0    0    0  0.00000000000E+00  0.00000000000E+00  0.99999998245E-14  0.12500000000E+03  0.12500000000E+03 0.  0.
        -13    1    3    3    0    0 -0.36582422850E+02  0.29395173282E+02  0.38610236067E+02  0.60770974709E+02  0.10566000000E+00 0.  1.
         23    2    1    0    0    0 -0.14278032291E+02  0.14035411453E+02  0.29506835263E+02  0.89341784846E+02  0.81917313259E+02 0.  0.
         13    1    3    3    0    0  0.22304390559E+02 -0.15359761829E+02 -0.91034008044E+01  0.28570810137E+02  0.10566000000E+00 0. -1.
         22    1    1    0    0    0  0.14278032291E+02 -0.14035411453E+02 -0.29506835263E+02  0.35658215154E+02  0.00000000000E+00 0.  1.
</event>
<event>
 5    1  0.1285375E-004  0.9118800E+02  0.7818608E-02  0.1130116E+00
         25   -1    0    0    0    0  0.00000000000E+00  0.00000000000E+00  0.99999998245E-14  0.12500000000E+03  0.12500000000E+03 0.  0.
        -13    1    3    3    0    0  0.32346766011E+02 -0.53696597571E+01 -0.51106294585E+02  0.60720762738E+02  0.10566000000E+00 0. -1.
         23    2    1    0    0    0  0.14427520812E+02  0.81087686549E+01 -0.22554999477E+02  0.97024412655E+02  0.92903730623E+02 0.  0.
         13    1    3    3    0    0 -0.17919245199E+02  0.13478428412E+02  0.28551295107E+02  0.36303649917E+02  0.10566000000E+00 0.  1.
         22    1    1    0    0    0 -0.14427520812E+02 -0.81087686549E+01  0.22554999477E+02  0.27975587345E+02  0.00000000000E+00 0. -1.
</event>
<event>
 5    1  0.1285375E-004  0.9118800E+02  0.7818608E-02  0.1130116E+00
         25   -1    0    0    0    0  0.00000000000E+00  0.00000000000E+00  0.99999998245E-14  0.12500000000E+03  0.12500000000E+03 0.  0.
        -13    1    3    3    0    0  0.44783492856E+01 -0.34497397743E+02  0.35562339081E+02  0.49747534495E+02  0.10566000000E+00 0. -1.
         23    2    1    0    0    0  0.20911848807E+02 -0.18481306601E+02 -0.52817107117E+01  0.96596468842E+02  0.92326145866E+02 0.  0.
         13    1    3    3    0    0  0.16433499521E+02  0.16016091142E+02 -0.40844049793E+02  0.46848934347E+02  0.10566000000E+00 0.  1.
         22    1    1    0    0    0 -0.20911848807E+02  0.18481306601E+02  0.52817107117E+01  0.28403531158E+02  0.00000000000E+00 0. -1.
</event>
<event>
 5    1  0.1285375E-004  0.9118800E+02  0.7818608E-02  0.1130116E+00
         25   -1    0    0    0    0  0.00000000000E+00  0.00000000000E+00  0.99999998245E-14  0.12500000000E+03  0.12500000000E+03 0.  0.
        -13    1    3    3    0    0  0.28875564165E+01 -0.92469675958E+01 -0.47499021519E+02  0.48476928544E+02  0.10566000000E+00 0. -1.
         23    2    1    0    0    0  0.13259020820E+02 -0.25774590645E+02 -0.45375707848E+01  0.95661958064E+02  0.91052125269E+02 0.  0.
         13    1    3    3    0    0  0.10371464403E+02 -0.16527623049E+02  0.42961450734E+02  0.47185029520E+02  0.10566000000E+00 0.  1.
         22    1    1    0    0    0 -0.13259020820E+02  0.25774590645E+02  0.45375707848E+01  0.29338041936E+02  0.00000000000E+00 0.  1.
</event>
<event>
 5    1  0.1285375E-004  0.9118800E+02  0.7818608E-02  0.1130116E+00
         25   -1    0    0    0    0  0.00000000000E+00  0.00000000000E+00  0.99999998245E-14  0.12500000000E+03  0.12500000000E+03 0.  0.
        -13    1    3    3    0    0  0.36868338266E+02 -0.35274726558E+02 -0.28766215642E+02  0.58575481446E+02  0.10566000000E+00 0. -1.
         23    2    1    0    0    0  0.13316579989E+02 -0.26343902998E+02 -0.18732748299E+01  0.95422277195E+02  0.90722485078E+02 0.  0.
         13    1    3    3    0    0 -0.23551758278E+02  0.89308235600E+01  0.26892940812E+02  0.36846795749E+02  0.10566000000E+00 0.  1.
         22    1    1    0    0    0 -0.13316579989E+02  0.26343902998E+02  0.18732748299E+01  0.29577722805E+02  0.00000000000E+00 0. -1.
</event>
<event>
 5    1  0.1285375E-004  0.9118800E+02  0.7818608E-02  0.1130116E+00
         25   -1    0    0    0    0  0.00000000000E+00  0.00000000000E+00  0.99999998245E-14  0.12500000000E+03  0.12500000000E+03 0.  0.
        -13    1    3    3    0    0 -0.39654705438E+02 -0.33008614046E+02  0.22806665586E+02  0.56411163999E+02  0.10566000000E+00 0.  1.
         23    2    1    0    0    0 -0.25694332065E+02  0.28667065295E+01  0.12611318487E+02  0.96234359722E+02  0.91834579166E+02 0.  0.
         13    1    3    3    0    0  0.13960373372E+02  0.35875320576E+02 -0.10195347099E+02  0.39823195723E+02  0.10566000000E+00 0. -1.
         22    1    1    0    0    0  0.25694332065E+02 -0.28667065295E+01 -0.12611318487E+02  0.28765640278E+02  0.00000000000E+00 0.  1.
</event>
<event>
 5    1  0.1285375E-004  0.9118800E+02  0.7818608E-02  0.1130116E+00
         25   -1    0    0    0    0  0.00000000000E+00  0.00000000000E+00  0.99999998245E-14  0.12500000000E+03  0.12500000000E+03 0.  0.
        -13    1    3    3    0    0  0.31453823261E+02 -0.23027621630E+02 -0.35532199647E+02  0.52746210589E+02  0.10566000000E+00 0.  1.
         23    2    1    0    0    0  0.26732734920E+01 -0.28324593095E+02 -0.31765904771E+01  0.96372745639E+02  0.92022749415E+02 0.  0.
         13    1    3    3    0    0 -0.28780549769E+02 -0.52969714649E+01  0.32355609170E+02  0.43626535050E+02  0.10566000000E+00 0. -1.
         22    1    1    0    0    0 -0.26732734920E+01  0.28324593095E+02  0.31765904771E+01  0.28627254361E+02  0.00000000000E+00 0.  1.
</event>
<event>
 5    1  0.1285375E-004  0.9118800E+02  0.7818608E-02  0.1130116E+00
         25   -1    0    0    0    0  0.00000000000E+00  0.00000000000E+00  0.99999998245E-14  0.12500000000E+03  0.12500000000E+03 0.  0.
        -13    1    3    3    0    0 -0.32034827504E+02  0.14327822803E+02  0.34989241096E+01  0.35267127944E+02  0.10566000000E+00 0.  1.
         23    2    1    0    0    0  0.28015138704E+02  0.75376418007E+01 -0.18068930609E+01  0.95932339223E+02  0.91422561798E+02 0.  0.
         13    1    3    3    0    0  0.60049966208E+02 -0.67901810021E+01 -0.53058171705E+01  0.60665211279E+02  0.10566000000E+00 0. -1.
         22    1    1    0    0    0 -0.28015138704E+02 -0.75376418007E+01  0.18068930609E+01  0.29067660777E+02  0.00000000000E+00 0. -1.
</event>
<event>
 5    1  0.1285375E-004  0.9118800E+02  0.7818608E-02  0.1130116E+00
         25   -1    0    0    0    0  0.00000000000E+00  0.00000000000E+00  0.99999998245E-14  0.12500000000E+03  0.12500000000E+03 0.  0.
        -13    1    3    3    0    0 -0.11026331173E+02 -0.14917443694E+02  0.34804437390E+02  0.39439448926E+02  0.10566000000E+00 0.  1.
         23    2    1    0    0    0  0.15610583442E+02 -0.18057572852E+02 -0.15564135453E+02  0.96504236015E+02  0.92201187648E+02 0.  0.
         13    1    3    3    0    0  0.26636914615E+02 -0.31401291578E+01 -0.50368572842E+02  0.57064787089E+02  0.10566000000E+00 0. -1.
         22    1    1    0    0    0 -0.15610583442E+02  0.18057572852E+02  0.15564135453E+02  0.28495763985E+02  0.00000000000E+00 0. -1.
</event>
<event>
 5    1  0.1285375E-004  0.9118800E+02  0.7818608E-02  0.1130116E+00
         25   -1    0    0    0    0  0.00000000000E+00  0.00000000000E+00  0.99999998245E-14  0.12500000000E+03  0.12500000000E+03 0.  0.
        -13    1    3    3    0    0  0.19593036065E+02 -0.91562733059E+01  0.55558635154E+02  0.59619606735E+02  0.10566000000E+00 0.  1.
         23    2    1    0    0    0  0.18655332261E+01  0.61465880924E+01  0.30144534356E+02  0.94178680902E+02  0.88992529043E+02 0.  0.
         13    1    3    3    0    0 -0.17727502839E+02  0.15302861398E+02 -0.25414100797E+02  0.34559074166E+02  0.10566000000E+00 0. -1.
         22    1    1    0    0    0 -0.18655332261E+01 -0.61465880924E+01 -0.30144534356E+02  0.30821319098E+02  0.00000000000E+00 0.  1.
</event>
<event>
 5    1  0.1285375E-004  0.9118800E+02  0.7818608E-02  0.1130116E+00
         25   -1    0    0    0    0  0.00000000000E+00  0.00000000000E+00  0.99999998245E-14  0.12500000000E+03  0.12500000000E+03 0.  0.
        -13    1    3    3    0    0 -0.41345891038E+02  0.37455355933E+02  0.95398241511E+01  0.56598637816E+02  0.10566000000E+00 0. -1.
         23    2    1    0    0    0 -0.23306425976E+02  0.10962226062E+02 -0.13355032185E+02  0.95987644413E+02  0.91498148087E+02 0.  0.
         13    1    3    3    0    0  0.18039465062E+02 -0.26493129870E+02 -0.22894856336E+02  0.39389006597E+02  0.10566000000E+00 0.  1.
         22    1    1    0    0    0  0.23306425976E+02 -0.10962226062E+02  0.13355032185E+02  0.29012355587E+02  0.00000000000E+00 0.  1.
</event>
<event>
 5    1  0.1285375E-004  0.9118800E+02  0.7818608E-02  0.1130116E+00
         25   -1    0    0    0    0  0.00000000000E+00  0.00000000000E+00  0.99999998245E-14  0.12500000000E+03  0.12500000000E+03 0.  0.
        -13    1    3    3    0    0  0.51327334585E+02 -0.41513639012E+00  0.72267488657E+01  0.51835361261E+02  0.10566000000E+00 0.  1.
         23    2    1    0    0    0  0.15184601695E+02  0.24556989980E+02  0.32226440192E+01  0.95948264768E+02  0.91444333843E+02 0.  0.
         13    1    3    3    0    0 -0.36142732890E+02  0.24972126370E+02 -0.40041048465E+01  0.44112903507E+02  0.10566000000E+00 0. -1.
         22    1    1    0    0    0 -0.15184601695E+02 -0.24556989980E+02 -0.32226440192E+01  0.29051735232E+02  0.00000000000E+00 0. -1.
</event>
<event>
 5    1  0.1285375E-004  0.9118800E+02  0.7818608E-02  0.1130116E+00
         25   -1    0    0    0    0  0.00000000000E+00  0.00000000000E+00  0.99999998245E-14  0.12500000000E+03  0.12500000000E+03 0.  0.
        -13    1    3    3    0    0  0.54873266986E+02 -0.18299787110E+02  0.21509088495E+02  0.61713934326E+02  0.10566000000E+00 0. -1.
         23    2    1    0    0    0  0.33681724908E+02 -0.67808262752E+01  0.18376963796E+02  0.86036542811E+02  0.76708120188E+02 0.  0.
         13    1    3    3    0    0 -0.21191542078E+02  0.11518960835E+02 -0.31321246986E+01  0.24322608485E+02  0.10566000000E+00 0.  1.
         22    1    1    0    0    0 -0.33681724908E+02  0.67808262752E+01 -0.18376963796E+02  0.38963457189E+02  0.00000000000E+00 0. -1.
</event>
<event>
 5    1  0.1285375E-004  0.9118800E+02  0.7818608E-02  0.1130116E+00
         25   -1    0    0    0    0  0.00000000000E+00  0.00000000000E+00  0.99999998245E-14  0.12500000000E+03  0.12500000000E+03 0.  0.
        -13    1    3    3    0    0 -0.16674078147E+02 -0.60187042049E+01 -0.56643998805E+02  0.59353209239E+02  0.10566000000E+00 0. -1.
         23    2    1    0    0    0 -0.15422275820E+02 -0.13848293009E+02 -0.22491422131E+02  0.94414286338E+02  0.89322850293E+02 0.  0.
         13    1    3    3    0    0  0.12518023270E+01 -0.78295888040E+01  0.34152576673E+02  0.35061077099E+02  0.10566000000E+00 0.  1.
         22    1    1    0    0    0  0.15422275820E+02  0.13848293009E+02  0.22491422131E+02  0.30585713662E+02  0.00000000000E+00 0. -1.
</event>
<event>
 5    1  0.1285375E-004  0.9118800E+02  0.7818608E-02  0.1130116E+00
         25   -1    0    0    0    0  0.00000000000E+00  0.00000000000E+00  0.99999998245E-14  0.12500000000E+03  0.12500000000E+03 0.  0.
        -13    1    3    3    0    0 -0.32002222685E+02  0.25724034946E+02  0.23022657962E+02  0.47073582553E+02  0.10566000000E+00 0. -1.
         23    2    1    0    0    0  0.16615815869E+02  0.15953395268E+02 -0.50004630674E+00  0.10195990009E+03  0.99322580626E+02 0.  0.
         13    1    3    3    0    0  0.48618038554E+02 -0.97706396772E+01 -0.23522704269E+02  0.54886317537E+02  0.10566000000E+00 0.  1.
         22    1    1    0    0    0 -0.16615815869E+02 -0.15953395268E+02  0.50004630674E+00  0.23040099911E+02  0.00000000000E+00 0. -1.
</event>
<event>
 5    1  0.1285375E-004  0.9118800E+02  0.7818608E-02  0.1130116E+00
         25   -1    0    0    0    0  0.00000000000E+00  0.00000000000E+00  0.99999998245E-14  0.12500000000E+03  0.12500000000E+03 0.  0.
        -13    1    3    3    0    0 -0.17236581568E+02  0.50174371908E+01 -0.67774728708E+01  0.19189052157E+02  0.10566000000E+00 0.  1.
         23    2    1    0    0    0  0.88123746504E+01 -0.43977932544E+02  0.13329031764E+02  0.78209193365E+02  0.62668160505E+02 0.  0.
         13    1    3    3    0    0  0.26048956219E+02 -0.48995369735E+02  0.20106504635E+02  0.59020141208E+02  0.10566000000E+00 0. -1.
         22    1    1    0    0    0 -0.88123746504E+01  0.43977932544E+02 -0.13329031764E+02  0.46790806635E+02  0.00000000000E+00 0. -1.
</event>
<event>
 5    1  0.1285375E-004  0.9118800E+02  0.7818608E-02  0.1130116E+00
         25   -1    0    0    0    0  0.00000000000E+00  0.00000000000E+00  0.99999998245E-14  0.12500000000E+03  0.12500000000E+03 0.  0.
        -13    1    3    3    0    0 -0.27165589968E+02  0.23183117673E+02 -0.25296646911E+02  0.43764800152E+02  0.10566000000E+00 0. -1.
         23    2    1    0    0    0  0.14377264549E+01 -0.19689729426E+02 -0.22046719377E+02  0.95405907050E+02  0.90699927026E+02 0.  0.
         13    1    3    3    0    0  0.28603316423E+02 -0.42872847098E+02  0.32499275336E+01  0.51641106899E+02  0.10566000000E+00 0.  1.
         22    1    1    0    0    0 -0.14377264549E+01  0.19689729426E+02  0.22046719377E+02  0.29594092950E+02  0.00000000000E+00 0.  1.
</event>
<event>
 5    1  0.1285375E-004  0.9118800E+02  0.7818608E-02  0.1130116E+00
         25   -1    0    0    0    0  0.00000000000E+00  0.00000000000E+00  0.99999998245E-14  0.12500000000E+03  0.12500000000E+03 0.  0.
        -13    1    3    3    0    0 -0.32858614340E+02 -0.15818052945E+02 -0.46190370761E+01  0.36759298182E+02  0.10566000000E+00 0.  1.
         23    2    1    0    0    0  0.21490895308E+02 -0.86497604540E+00 -0.20462860104E+02  0.95312706281E+02  0.90571389358E+02 0.  0.
         13    1    3    3    0    0  0.54349509648E+02  0.14953076900E+02 -0.15843823028E+02  0.58553408099E+02  0.10566000000E+00 0. -1.
         22    1    1    0    0    0 -0.21490895308E+02  0.86497604540E+00  0.20462860104E+02  0.29687293719E+02  0.00000000000E+00 0. -1.
</event>
<event>
 5    1  0.1285375E-004  0.9118800E+02  0.7818608E-02  0.1130116E+00
         25   -1    0    0    0    0  0.00000000000E+00  0.00000000000E+00  0.99999998245E-14  0.12500000000E+03  0.12500000000E+03 0.  0.
        -13    1    3    3    0    0 -0.90435347787E+01  0.20588660768E+02 -0.34394223607E+02  0.41093214222E+02  0.10566000000E+00 0. -1.
         23    2    1    0    0    0  0.27932613349E+02  0.68169433382E+01  0.37865703499E+01  0.95999315181E+02  0.91514090692E+02 0.  0.
         13    1    3    3    0    0  0.36976148127E+02 -0.13771717430E+02  0.38180793957E+02  0.54906100959E+02  0.10566000000E+00 0.  1.
         22    1    1    0    0    0 -0.27932613349E+02 -0.68169433382E+01 -0.37865703499E+01  0.29000684819E+02  0.00000000000E+00 0.  1.
</event>
<event>
 5    1  0.1285375E-004  0.9118800E+02  0.7818608E-02  0.1130116E+00
         25   -1    0    0    0    0  0.00000000000E+00  0.00000000000E+00  0.99999998245E-14  0.12500000000E+03  0.12500000000E+03 0.  0.
        -13    1    3    3    0    0 -0.41072892805E+02 -0.71891385245E+00 -0.14075731931E+02  0.43423919145E+02  0.10566000000E+00 0. -1.
         23    2    1    0    0    0  0.74884473022E+01  0.56507091490E+01 -0.28916002266E+02  0.94600287108E+02  0.89582764955E+02 0.  0.
         13    1    3    3    0    0  0.48561340107E+02  0.63696230015E+01 -0.14840270335E+02  0.51176367963E+02  0.10566000000E+00 0.  1.
         22    1    1    0    0    0 -0.74884473022E+01 -0.56507091490E+01  0.28916002266E+02  0.30399712892E+02  0.00000000000E+00 0.  1.
</event>
<event>
 5    1  0.1285375E-004  0.9118800E+02  0.7818608E-02  0.1130116E+00
         25   -1    0    0    0    0  0.00000000000E+00  0.00000000000E+00  0.99999998245E-14  0.12500000000E+03  0.12500000000E+03 0.  0.
        -13    1    3    3    0    0  0.12972208628E+02 -0.13284284740E+02  0.29184804652E+02  0.34590669325E+02  0.10566000000E+00 0. -1.
         23    2    1    0    0    0 -0.21429880714E+02  0.68478894286E+01 -0.17877273472E+02  0.96264476969E+02  0.91875563902E+02 0.  0.
         13    1    3    3    0    0 -0.34402089342E+02  0.20132174169E+02 -0.47062078125E+02  0.61673807644E+02  0.10566000000E+00 0.  1.
         22    1    1    0    0    0  0.21429880714E+02 -0.68478894286E+01  0.17877273472E+02  0.28735523031E+02  0.00000000000E+00 0.  1.
</event>
<event>
 5    1  0.1285375E-004  0.9118800E+02  0.7818608E-02  0.1130116E+00
         25   -1    0    0    0    0  0.00000000000E+00  0.00000000000E+00  0.99999998245E-14  0.12500000000E+03  0.12500000000E+03 0.  0.
        -13    1    3    3    0    0 -0.36119871027E+02 -0.24636537670E+01  0.19192383804E+02  0.40976498545E+02  0.10566000000E+00 0.  1.
         23    2    1    0    0    0  0.18823858602E+02 -0.10307658768E+01  0.22020874653E+02  0.96011742869E+02  0.91531064221E+02 0.  0.
         13    1    3    3    0    0  0.54943729629E+02  0.14328878903E+01  0.28284908489E+01  0.55035244324E+02  0.10566000000E+00 0. -1.
         22    1    1    0    0    0 -0.18823858602E+02  0.10307658768E+01 -0.22020874653E+02  0.28988257131E+02  0.00000000000E+00 0. -1.
</event>
<event>
 5    1  0.1285375E-004  0.9118800E+02  0.7818608E-02  0.1130116E+00
         25   -1    0    0    0    0  0.00000000000E+00  0.00000000000E+00  0.99999998245E-14  0.12500000000E+03  0.12500000000E+03 0.  0.
        -13    1    3    3    0    0  0.99168590561E+00  0.47313513287E+02 -0.15106597587E+01  0.47348128130E+02  0.10566000000E+00 0. -1.
         23    2    1    0    0    0  0.13487184290E+02  0.11177114117E+02 -0.26650443617E+02  0.93108337060E+02  0.87476192562E+02 0.  0.
         13    1    3    3    0    0  0.12495498384E+02 -0.36136399170E+02 -0.25139783859E+02  0.45760208930E+02  0.10566000000E+00 0.  1.
         22    1    1    0    0    0 -0.13487184290E+02 -0.11177114117E+02  0.26650443617E+02  0.31891662940E+02  0.00000000000E+00 0.  1.
</event>
<event>
 5    1  0.1285375E-004  0.9118800E+02  0.7818608E-02  0.1130116E+00
         25   -1    0    0    0    0  0.00000000000E+00  0.00000000000E+00  0.99999998245E-14  0.12500000000E+03  0.12500000000E+03 0.  0.
        -13    1    3    3    0    0  0.26218502949E+02 -0.52507392491E+01  0.17605653060E+02  0.32014845669E+02  0.10566000000E+00 0. -1.
         23    2    1    0    0    0 -0.25688165689E+02  0.29125993596E+00 -0.16589370148E+02  0.94419387012E+02  0.89329987983E+02 0.  0.
         13    1    3    3    0    0 -0.51906668638E+02  0.55419991851E+01 -0.34195023207E+02  0.62404541343E+02  0.10566000000E+00 0.  1.
         22    1    1    0    0    0  0.25688165689E+02 -0.29125993596E+00  0.16589370148E+02  0.30580612988E+02  0.00000000000E+00 0.  1.
</event>
<event>
 5    1  0.1285375E-004  0.9118800E+02  0.7818608E-02  0.1130116E+00
         25   -1    0    0    0    0  0.00000000000E+00  0.00000000000E+00  0.99999998245E-14  0.12500000000E+03  0.12500000000E+03 0.  0.
        -13    1    3    3    0    0  0.44451304718E+02  0.27014761766E+02  0.27599865975E+02  0.58885308951E+02  0.10566000000E+00 0.  1.
         23    2    1    0    0    0  0.23964752158E+02 -0.17874539039E+00  0.20036277975E+02  0.93762302726E+02  0.88405744618E+02 0.  0.
         13    1    3    3    0    0 -0.20486552560E+02 -0.27193507157E+02 -0.75635880005E+01  0.34876993775E+02  0.10566000000E+00 0. -1.
         22    1    1    0    0    0 -0.23964752158E+02  0.17874539039E+00 -0.20036277975E+02  0.31237697274E+02  0.00000000000E+00 0.  1.
</event>
<event>
 5    1  0.1285375E-004  0.9118800E+02  0.7818608E-02  0.1130116E+00
         25   -1    0    0    0    0  0.00000000000E+00  0.00000000000E+00  0.99999998245E-14  0.12500000000E+03  0.12500000000E+03 0.  0.
        -13    1    3    3    0    0  0.60437727268E+02 -0.58061356061E+00  0.95830017032E+01  0.61195596861E+02  0.10566000000E+00 0. -1.
         23    2    1    0    0    0  0.33402209074E+02  0.42575643149E+01 -0.25702786491E+01  0.91229587547E+02  0.84749022925E+02 0.  0.
         13    1    3    3    0    0 -0.27035518194E+02  0.48381778755E+01 -0.12153280352E+02  0.30033990686E+02  0.10566000000E+00 0.  1.
         22    1    1    0    0    0 -0.33402209074E+02 -0.42575643149E+01  0.25702786491E+01  0.33770412453E+02  0.00000000000E+00 0. -1.
</event>
<event>
 5    1  0.1285375E-004  0.9118800E+02  0.7818608E-02  0.1130116E+00
         25   -1    0    0    0    0  0.00000000000E+00  0.00000000000E+00  0.99999998245E-14  0.12500000000E+03  0.12500000000E+03 0.  0.
        -13    1    3    3    0    0 -0.87580739731E+01 -0.37395209414E+02 -0.13652076882E+02  0.40761451324E+02  0.10566000000E+00 0.  1.
         23    2    1    0    0    0 -0.62605988475E+01  0.16415852281E+02 -0.23637533558E+02  0.95548203845E+02  0.90895824774E+02 0.  0.
         13    1    3    3    0    0  0.24974751256E+01  0.53811061695E+02 -0.99854566756E+01  0.54786752521E+02  0.10566000000E+00 0. -1.
         22    1    1    0    0    0  0.62605988475E+01 -0.16415852281E+02  0.23637533558E+02  0.29451796155E+02  0.00000000000E+00 0. -1.
</event>
<event>
 5    1  0.1285375E-004  0.9118800E+02  0.7818608E-02  0.1130116E+00
         25   -1    0    0    0    0  0.00000000000E+00  0.00000000000E+00  0.99999998245E-14  0.12500000000E+03  0.12500000000E+03 0.  0.
        -13    1    3    3    0    0  0.37549585091E+02 -0.12385674288E+02 -0.43658111681E+02  0.58901766932E+02  0.10566000000E+00 0.  1.
         23    2    1    0    0    0  0.21115492727E+02  0.85706936784E+01 -0.17135474504E+02  0.96487804194E+02  0.92178907828E+02 0.  0.
         13    1    3    3    0    0 -0.16434092364E+02  0.20956367967E+02  0.26522637177E+02  0.37586037262E+02  0.10566000000E+00 0. -1.
         22    1    1    0    0    0 -0.21115492727E+02 -0.85706936784E+01  0.17135474504E+02  0.28512195806E+02  0.00000000000E+00 0.  1.
</event>
<event>
 5    1  0.1285375E-004  0.9118800E+02  0.7818608E-02  0.1130116E+00
         25   -1    0    0    0    0  0.00000000000E+00  0.00000000000E+00  0.99999998245E-14  0.12500000000E+03  0.12500000000E+03 0.  0.
        -13    1    3    3    0    0  0.17772759829E+02  0.29214467882E+02  0.47668361065E+02  0.58665491869E+02  0.10566000000E+00 0. -1.
         23    2    1    0    0    0  0.21785084701E+02  0.18236211136E+02  0.16063139682E+02  0.92363000008E+02  0.86404571650E+02 0.  0.
         13    1    3    3    0    0  0.40123248720E+01 -0.10978256746E+02 -0.31605221383E+02  0.33697508139E+02  0.10566000000E+00 0.  1.
         22    1    1    0    0    0 -0.21785084701E+02 -0.18236211136E+02 -0.16063139682E+02  0.32636999992E+02  0.00000000000E+00 0. -1.
</event>
<event>
 5    1  0.1285375E-004  0.9118800E+02  0.7818608E-02  0.1130116E+00
         25   -1    0    0    0    0  0.00000000000E+00  0.00000000000E+00  0.99999998245E-14  0.12500000000E+03  0.12500000000E+03 0.  0.
        -13    1    3    3    0    0  0.69169991753E+01 -0.44872440131E+02 -0.14517152110E+02  0.47666965818E+02  0.10566000000E+00 0.  1.
         23    2    1    0    0    0 -0.11011690270E+02 -0.15450335066E+02  0.20689864629E+02  0.96927937827E+02  0.92773834980E+02 0.  0.
         13    1    3    3    0    0 -0.17928689445E+02  0.29422105064E+02  0.35207016738E+02  0.49260972009E+02  0.10566000000E+00 0. -1.
         22    1    1    0    0    0  0.11011690270E+02  0.15450335066E+02 -0.20689864629E+02  0.28072062173E+02  0.00000000000E+00 0. -1.
</event>
<event>
 5    1  0.1285375E-004  0.9118800E+02  0.7818608E-02  0.1130116E+00
         25   -1    0    0    0    0  0.00000000000E+00  0.00000000000E+00  0.99999998245E-14  0.12500000000E+03  0.12500000000E+03 0.  0.
        -13    1    3    3    0    0  0.32682450287E+01 -0.15889450115E+02  0.41192236090E+02  0.44271520514E+02  0.10566000000E+00 0.  1.
         23    2    1    0    0    0  0.20975618047E+02 -0.23181205202E+02 -0.41227200842E+01  0.93466816717E+02  0.87986954597E+02 0.  0.
         13    1    3    3    0    0  0.17707373018E+02 -0.72917550870E+01 -0.45314956174E+02  0.49195296203E+02  0.10566000000E+00 0. -1.
         22    1    1    0    0    0 -0.20975618047E+02  0.23181205202E+02  0.41227200842E+01  0.31533183283E+02  0.00000000000E+00 0.  1.
</event>
<event>
 5    1  0.1285375E-004  0.9118800E+02  0.7818608E-02  0.1130116E+00
         25   -1    0    0    0    0  0.00000000000E+00  0.00000000000E+00  0.99999998245E-14  0.12500000000E+03  0.12500000000E+03 0.  0.
        -13    1    3    3    0    0  0.75429179057E+00 -0.51039864988E+02 -0.62254780920E+01  0.51423773837E+02  0.10566000000E+00 0. -1.
         23    2    1    0    0    0 -0.18276095067E+01 -0.46894402089E+02  0.16945717974E+02  0.75104284138E+02  0.56134401524E+02 0.  0.
         13    1    3    3    0    0 -0.25819012972E+01  0.41454628994E+01  0.23171196066E+02  0.23680510301E+02  0.10566000000E+00 0.  1.
         22    1    1    0    0    0  0.18276095067E+01  0.46894402089E+02 -0.16945717974E+02  0.49895715862E+02  0.00000000000E+00 0. -1.
</event>
<event>
 5    1  0.1285375E-004  0.9118800E+02  0.7818608E-02  0.1130116E+00
         25   -1    0    0    0    0  0.00000000000E+00  0.00000000000E+00  0.99999998245E-14  0.12500000000E+03  0.12500000000E+03 0.  0.
        -13    1    3    3    0    0  0.59790447179E+01  0.56985525937E+02  0.12019068954E+01  0.57311036339E+02  0.10566000000E+00 0. -1.
         23    2    1    0    0    0 -0.15186078562E+02  0.23549171561E+02  0.21689950489E+01  0.96895107138E+02  0.92729589584E+02 0.  0.
         13    1    3    3    0    0 -0.21165123280E+02 -0.33436354376E+02  0.96708815344E+00  0.39584070798E+02  0.10566000000E+00 0.  1.
         22    1    1    0    0    0  0.15186078562E+02 -0.23549171561E+02 -0.21689950489E+01  0.28104892862E+02  0.00000000000E+00 0.  1.
</event>
<event>
 5    1  0.1285375E-004  0.9118800E+02  0.7818608E-02  0.1130116E+00
         25   -1    0    0    0    0  0.00000000000E+00  0.00000000000E+00  0.99999998245E-14  0.12500000000E+03  0.12500000000E+03 0.  0.
        -13    1    3    3    0    0  0.40569239339E+02 -0.40100756829E+01  0.15368096907E+02  0.43567573425E+02  0.10566000000E+00 0.  1.
         23    2    1    0    0    0  0.39142420798E+01 -0.19315245744E+02 -0.20121804267E+02  0.96834648659E+02  0.92648055375E+02 0.  0.
         13    1    3    3    0    0 -0.36654997259E+02 -0.15305170061E+02 -0.35489901174E+02  0.53267075234E+02  0.10566000000E+00 0. -1.
         22    1    1    0    0    0 -0.39142420798E+01  0.19315245744E+02  0.20121804267E+02  0.28165351341E+02  0.00000000000E+00 0. -1.
</event>
<event>
 5    1  0.1285375E-004  0.9118800E+02  0.7818608E-02  0.1130116E+00
         25   -1    0    0    0    0  0.00000000000E+00  0.00000000000E+00  0.99999998245E-14  0.12500000000E+03  0.12500000000E+03 0.  0.
        -13    1    3    3    0    0  0.35308741001E+02 -0.14907717450E+02  0.89622883561E+01  0.39360907094E+02  0.10566000000E+00 0.  1.
         23    2    1    0    0    0 -0.60530126203E+01  0.25613111312E+02  0.87524880974E+01  0.97264166124E+02  0.93225755728E+02 0.  0.
         13    1    3    3    0    0 -0.41361753621E+02  0.40520828763E+02 -0.20980025866E+00  0.57903259031E+02  0.10566000000E+00 0. -1.
         22    1    1    0    0    0  0.60530126203E+01 -0.25613111312E+02 -0.87524880974E+01  0.27735833876E+02  0.00000000000E+00 0. -1.
</event>
<event>
 5    1  0.1285375E-004  0.9118800E+02  0.7818608E-02  0.1130116E+00
         25   -1    0    0    0    0  0.00000000000E+00  0.00000000000E+00  0.99999998245E-14  0.12500000000E+03  0.12500000000E+03 0.  0.
        -13    1    3    3    0    0  0.22670785298E+02  0.25962351799E+02 -0.45134296476E+02  0.56790176082E+02  0.10566000000E+00 0. -1.
         23    2    1    0    0    0  0.26356724351E+02  0.94554154940E+01 -0.10943014175E+02  0.94936211817E+02  0.90050280145E+02 0.  0.
         13    1    3    3    0    0  0.36859390531E+01 -0.16506936305E+02  0.34191282301E+02  0.38146035735E+02  0.10566000000E+00 0.  1.
         22    1    1    0    0    0 -0.26356724351E+02 -0.94554154940E+01  0.10943014175E+02  0.30063788183E+02  0.00000000000E+00 0. -1.
</event>
<event>
 5    1  0.1285375E-004  0.9118800E+02  0.7818608E-02  0.1130116E+00
         25   -1    0    0    0    0  0.00000000000E+00  0.00000000000E+00  0.99999998245E-14  0.12500000000E+03  0.12500000000E+03 0.  0.
        -13    1    3    3    0    0 -0.18211753871E+02 -0.82537709252E+01 -0.50909556017E+02  0.54695399911E+02  0.10566000000E+00 0.  1.
         23    2    1    0    0    0  0.69088127275E+00  0.16495140539E+02 -0.24097842108E+02  0.95789163439E+02  0.91226590749E+02 0.  0.
         13    1    3    3    0    0  0.18902635144E+02  0.24748911464E+02  0.26811713909E+02  0.41093763527E+02  0.10566000000E+00 0. -1.
         22    1    1    0    0    0 -0.69088127275E+00 -0.16495140539E+02  0.24097842108E+02  0.29210836561E+02  0.00000000000E+00 0.  1.
</event>
<event>
 5    1  0.1285375E-004  0.9118800E+02  0.7818608E-02  0.1130116E+00
         25   -1    0    0    0    0  0.00000000000E+00  0.00000000000E+00  0.99999998245E-14  0.12500000000E+03  0.12500000000E+03 0.  0.
        -13    1    3    3    0    0 -0.12548034846E+02 -0.44366417301E+02 -0.14305583414E+02  0.48275180409E+02  0.10566000000E+00 0.  1.
         23    2    1    0    0    0 -0.29162260818E+02 -0.14044739272E+01 -0.34406784342E+01  0.95601900213E+02  0.90969638084E+02 0.  0.
         13    1    3    3    0    0 -0.16614225972E+02  0.42961943374E+02  0.10864904980E+02  0.47326719804E+02  0.10566000000E+00 0. -1.
         22    1    1    0    0    0  0.29162260818E+02  0.14044739272E+01  0.34406784342E+01  0.29398099787E+02  0.00000000000E+00 0. -1.
</event>
<event>
 5    1  0.1285375E-004  0.9118800E+02  0.7818608E-02  0.1130116E+00
         25   -1    0    0    0    0  0.00000000000E+00  0.00000000000E+00  0.99999998245E-14  0.12500000000E+03  0.12500000000E+03 0.  0.
        -13    1    3    3    0    0  0.43471262922E+02 -0.18998508175E+02 -0.21935162354E+02  0.52267164878E+02  0.10566000000E+00 0. -1.
         23    2    1    0    0    0  0.27504036420E+02  0.79627136860E+01  0.76503567617E+01  0.95362105554E+02  0.90639540977E+02 0.  0.
         13    1    3    3    0    0 -0.15967226502E+02  0.26961221861E+02  0.29585519116E+02  0.43094940675E+02  0.10566000000E+00 0.  1.
         22    1    1    0    0    0 -0.27504036420E+02 -0.79627136860E+01 -0.76503567617E+01  0.29637894446E+02  0.00000000000E+00 0.  1.
</event>
<event>
 5    1  0.1285375E-004  0.9118800E+02  0.7818608E-02  0.1130116E+00
         25   -1    0    0    0    0  0.00000000000E+00  0.00000000000E+00  0.99999998245E-14  0.12500000000E+03  0.12500000000E+03 0.  0.
        -13    1    3    3    0    0 -0.71407701162E+01 -0.19361382116E+02 -0.48263618312E+02  0.52490396568E+02  0.10566000000E+00 0.  1.
         23    2    1    0    0    0 -0.22816332314E+02  0.41916276561E+01 -0.33070191060E+02  0.84604551006E+02  0.74337996688E+02 0.  0.
         13    1    3    3    0    0 -0.15675562198E+02  0.23553009773E+02  0.15193427252E+02  0.32114154438E+02  0.10566000000E+00 0. -1.
         22    1    1    0    0    0  0.22816332314E+02 -0.41916276561E+01  0.33070191060E+02  0.40395448994E+02  0.00000000000E+00 0.  1.
</event>
<event>
 5    1  0.1285375E-004  0.9118800E+02  0.7818608E-02  0.1130116E+00
         25   -1    0    0    0    0  0.00000000000E+00  0.00000000000E+00  0.99999998245E-14  0.12500000000E+03  0.12500000000E+03 0.  0.
        -13    1    3    3    0    0 -0.28816535184E+02  0.31467671803E+02 -0.36699065540E+02  0.56280011054E+02  0.10566000000E+00 0. -1.
         23    2    1    0    0    0 -0.20032000774E+02  0.24956428919E+02 -0.16937065334E+01  0.92953579900E+02  0.87254770500E+02 0.  0.
         13    1    3    3    0    0  0.87845344093E+01 -0.65112428846E+01  0.35005359006E+02  0.36673568846E+02  0.10566000000E+00 0.  1.
         22    1    1    0    0    0  0.20032000774E+02 -0.24956428919E+02  0.16937065334E+01  0.32046420100E+02  0.00000000000E+00 0.  1.
</event>
<event>
 5    1  0.1285375E-004  0.9118800E+02  0.7818608E-02  0.1130116E+00
         25   -1    0    0    0    0  0.00000000000E+00  0.00000000000E+00  0.99999998245E-14  0.12500000000E+03  0.12500000000E+03 0.  0.
        -13    1    3    3    0    0 -0.16107976944E+02 -0.48050303771E+02  0.41675631603E+01  0.50849565981E+02  0.10566000000E+00 0.  1.
         23    2    1    0    0    0 -0.20878694631E+02 -0.12588261217E+02  0.23171885549E+02  0.91364892005E+02  0.84948354906E+02 0.  0.
         13    1    3    3    0    0 -0.47707176866E+01  0.35462042554E+02  0.19004322389E+02  0.40515326024E+02  0.10566000000E+00 0. -1.
         22    1    1    0    0    0  0.20878694631E+02  0.12588261217E+02 -0.23171885549E+02  0.33635107995E+02  0.00000000000E+00 0.  1.
</event>
<event>
 5    1  0.1285375E-004  0.9118800E+02  0.7818608E-02  0.1130116E+00
         25   -1    0    0    0    0  0.00000000000E+00  0.00000000000E+00  0.99999998245E-14  0.12500000000E+03  0.12500000000E+03 0.  0.
        -13    1    3    3    0    0  0.37750849067E+02 -0.45351241694E+02 -0.53873232822E+01  0.59252815500E+02  0.10566000000E+00 0. -1.
         23    2    1    0    0    0  0.25538797907E+02 -0.19779702639E+02  0.95878304003E+01  0.91304401967E+02  0.84859298204E+02 0.  0.
         13    1    3    3    0    0 -0.12212051160E+02  0.25571539055E+02  0.14975153683E+02  0.32051586467E+02  0.10566000000E+00 0.  1.
         22    1    1    0    0    0 -0.25538797907E+02  0.19779702639E+02 -0.95878304003E+01  0.33695598033E+02  0.00000000000E+00 0. -1.
</event>
<event>
 5    1  0.1285375E-004  0.9118800E+02  0.7818608E-02  0.1130116E+00
         25   -1    0    0    0    0  0.00000000000E+00  0.00000000000E+00  0.99999998245E-14  0.12500000000E+03  0.12500000000E+03 0.  0.
        -13    1    3    3    0    0 -0.38877955053E+02 -0.32871601812E+02  0.30130824659E+02  0.59160082433E+02  0.10566000000E+00 0. -1.
         23    2    1    0    0    0 -0.27587735769E+02 -0.76313451012E+01  0.62358905194E+01  0.95704831055E+02  0.91110964016E+02 0.  0.
         13    1    3    3    0    0  0.11290219283E+02  0.25240256711E+02 -0.23894934140E+02  0.36544748623E+02  0.10566000000E+00 0.  1.
         22    1    1    0    0    0  0.27587735769E+02  0.76313451012E+01 -0.62358905194E+01  0.29295168945E+02  0.00000000000E+00 0. -1.
</event>
<event>
 5    1  0.1285375E-004  0.9118800E+02  0.7818608E-02  0.1130116E+00
         25   -1    0    0    0    0  0.00000000000E+00  0.00000000000E+00  0.99999998245E-14  0.12500000000E+03  0.12500000000E+03 0.  0.
        -13    1    3    3    0    0 -0.28117711866E+02  0.34882558915E+01 -0.30104796768E+02  0.41341064357E+02  0.10566000000E+00 0.  1.
         23    2    1    0    0    0 -0.48784853138E+01  0.21706032051E+02  0.17044424702E+02  0.96973871838E+02  0.92835704120E+02 0.  0.
         13    1    3    3    0    0  0.23239226552E+02  0.18217776160E+02  0.47149221469E+02  0.55632807480E+02  0.10566000000E+00 0. -1.
         22    1    1    0    0    0  0.48784853138E+01 -0.21706032051E+02 -0.17044424702E+02  0.28026128162E+02  0.00000000000E+00 0. -1.
</event>
<event>
 5    1  0.1285375E-004  0.9118800E+02  0.7818608E-02  0.1130116E+00
         25   -1    0    0    0    0  0.00000000000E+00  0.00000000000E+00  0.99999998245E-14  0.12500000000E+03  0.12500000000E+03 0.  0.
        -13    1    3    3    0    0  0.29773249845E+02  0.16062930637E+02 -0.20200234050E+02  0.39402090893E+02  0.10566000000E+00 0. -1.
         23    2    1    0    0    0  0.12648482586E+01  0.40486212484E+01  0.28002268892E+02  0.96678307991E+02  0.92436881155E+02 0.  0.
         13    1    3    3    0    0 -0.28508401587E+02 -0.12014309389E+02  0.48202502943E+02  0.57276217098E+02  0.10566000000E+00 0.  1.
         22    1    1    0    0    0 -0.12648482586E+01 -0.40486212484E+01 -0.28002268892E+02  0.28321692009E+02  0.00000000000E+00 0.  1.
</event>
<event>
 5    1  0.1285375E-004  0.9118800E+02  0.7818608E-02  0.1130116E+00
         25   -1    0    0    0    0  0.00000000000E+00  0.00000000000E+00  0.99999998245E-14  0.12500000000E+03  0.12500000000E+03 0.  0.
        -13    1    3    3    0    0 -0.47559566549E+02  0.17048788360E+02 -0.34357752285E+02  0.61098607684E+02  0.10566000000E+00 0.  1.
         23    2    1    0    0    0 -0.16891233510E+02  0.62664864294E+01 -0.23533591632E+02  0.95361974479E+02  0.90639360213E+02 0.  0.
         13    1    3    3    0    0  0.30668333038E+02 -0.10782301931E+02  0.10824160653E+02  0.34263366795E+02  0.10566000000E+00 0. -1.
         22    1    1    0    0    0  0.16891233510E+02 -0.62664864294E+01  0.23533591632E+02  0.29638025521E+02  0.00000000000E+00 0.  1.
</event>
<event>
 5    1  0.1285375E-004  0.9118800E+02  0.7818608E-02  0.1130116E+00
         25   -1    0    0    0    0  0.00000000000E+00  0.00000000000E+00  0.99999998245E-14  0.12500000000E+03  0.12500000000E+03 0.  0.
        -13    1    3    3    0    0 -0.38944478500E+02 -0.14989704844E+01  0.14984265157E+02  0.41754744454E+02  0.10566000000E+00 0.  1.
         23    2    1    0    0    0 -0.70029699209E+01 -0.14240859884E+02 -0.25556849748E+02  0.94916844464E+02  0.90023392049E+02 0.  0.
         13    1    3    3    0    0  0.31941508579E+02 -0.12741889399E+02 -0.40541114905E+02  0.53162100010E+02  0.10566000000E+00 0. -1.
         22    1    1    0    0    0  0.70029699209E+01  0.14240859884E+02  0.25556849748E+02  0.30083155536E+02  0.00000000000E+00 0. -1.
</event>
<event>
 5    1  0.1285375E-004  0.9118800E+02  0.7818608E-02  0.1130116E+00
         25   -1    0    0    0    0  0.00000000000E+00  0.00000000000E+00  0.99999998245E-14  0.12500000000E+03  0.12500000000E+03 0.  0.
        -13    1    3    3    0    0  0.20091548023E+02 -0.13138803135E+02 -0.31744237022E+02  0.39799575348E+02  0.10566000000E+00 0. -1.
         23    2    1    0    0    0  0.13383845482E+02  0.13831416332E+02  0.19188944568E+02  0.97821865567E+02  0.93970561304E+02 0.  0.
         13    1    3    3    0    0 -0.67077025414E+01  0.26970219466E+02  0.50933181589E+02  0.58022290219E+02  0.10566000000E+00 0.  1.
         22    1    1    0    0    0 -0.13383845482E+02 -0.13831416332E+02 -0.19188944568E+02  0.27178134433E+02  0.00000000000E+00 0.  1.
</event>
<event>
 5    1  0.1285375E-004  0.9118800E+02  0.7818608E-02  0.1130116E+00
         25   -1    0    0    0    0  0.00000000000E+00  0.00000000000E+00  0.99999998245E-14  0.12500000000E+03  0.12500000000E+03 0.  0.
        -13    1    3    3    0    0  0.10842692151E+02  0.11720500728E+02  0.51767119615E+02  0.54173609328E+02  0.10566000000E+00 0. -1.
         23    2    1    0    0    0  0.22726489620E+02 -0.67344724224E+01  0.15141302074E+02  0.96873402664E+02  0.92700327216E+02 0.  0.
         13    1    3    3    0    0  0.11883797469E+02 -0.18454973150E+02 -0.36625817541E+02  0.42699793335E+02  0.10566000000E+00 0.  1.
         22    1    1    0    0    0 -0.22726489620E+02  0.67344724224E+01 -0.15141302074E+02  0.28126597336E+02  0.00000000000E+00 0. -1.
</event>
<event>
 5    1  0.1285375E-004  0.9118800E+02  0.7818608E-02  0.1130116E+00
         25   -1    0    0    0    0  0.00000000000E+00  0.00000000000E+00  0.99999998245E-14  0.12500000000E+03  0.12500000000E+03 0.  0.
        -13    1    3    3    0    0  0.93964628244E+01  0.82817124603E+01 -0.39443235559E+02  0.41384299804E+02  0.10566000000E+00 0.  1.
         23    2    1    0    0    0 -0.28833745326E+02 -0.66516815321E+01 -0.49488800013E+01  0.94997980901E+02  0.90135981857E+02 0.  0.
         13    1    3    3    0    0 -0.38230208150E+02 -0.14933393992E+02  0.34494355558E+02  0.53613681097E+02  0.10566000000E+00 0. -1.
         22    1    1    0    0    0  0.28833745326E+02  0.66516815321E+01  0.49488800013E+01  0.30002019099E+02  0.00000000000E+00 0. -1.
</event>
<event>
 5    1  0.1285375E-004  0.9118800E+02  0.7818608E-02  0.1130116E+00
         25   -1    0    0    0    0  0.00000000000E+00  0.00000000000E+00  0.99999998245E-14  0.12500000000E+03  0.12500000000E+03 0.  0.
        -13    1    3    3    0    0 -0.45651273658E+02  0.24407654802E+01  0.37724522306E+02  0.59271805017E+02  0.10566000000E+00 0.  1.
         23    2    1    0    0    0 -0.12485236636E+02 -0.63815647651E+01  0.25858094255E+02  0.95584926632E+02  0.90946311954E+02 0.  0.
         13    1    3    3    0    0  0.33166037022E+02 -0.88223302454E+01 -0.11866428050E+02  0.36313121615E+02  0.10566000000E+00 0. -1.
         22    1    1    0    0    0  0.12485236636E+02  0.63815647651E+01 -0.25858094255E+02  0.29415073368E+02  0.00000000000E+00 0.  1.
</event>
<event>
 5    1  0.1285375E-004  0.9118800E+02  0.7818608E-02  0.1130116E+00
         25   -1    0    0    0    0  0.00000000000E+00  0.00000000000E+00  0.99999998245E-14  0.12500000000E+03  0.12500000000E+03 0.  0.
        -13    1    3    3    0    0 -0.34633919386E+02  0.26699811595E+02  0.35378374402E+02  0.56249700894E+02  0.10566000000E+00 0.  1.
         23    2    1    0    0    0 -0.17717631274E+02  0.28507119857E+02  0.50032612976E+01  0.91064723898E+02  0.84505508545E+02 0.  0.
         13    1    3    3    0    0  0.16916288112E+02  0.18073082622E+01 -0.30375113104E+02  0.34815023004E+02  0.10566000000E+00 0. -1.
         22    1    1    0    0    0  0.17717631274E+02 -0.28507119857E+02 -0.50032612976E+01  0.33935276102E+02  0.00000000000E+00 0.  1.
</event>
<event>
 5    1  0.1285375E-004  0.9118800E+02  0.7818608E-02  0.1130116E+00
         25   -1    0    0    0    0  0.00000000000E+00  0.00000000000E+00  0.99999998245E-14  0.12500000000E+03  0.12500000000E+03 0.  0.
        -13    1    3    3    0    0 -0.37425807899E+02  0.22512732477E+02 -0.38929124391E+02  0.58506427940E+02  0.10566000000E+00 0.  1.
         23    2    1    0    0    0 -0.26892138317E+02  0.15071057867E+01 -0.89081414284E+01  0.96630765699E+02  0.92372568573E+02 0.  0.
         13    1    3    3    0    0  0.10533669582E+02 -0.21005626690E+02  0.30020982963E+02  0.38124337759E+02  0.10566000000E+00 0. -1.
         22    1    1    0    0    0  0.26892138317E+02 -0.15071057867E+01  0.89081414284E+01  0.28369234301E+02  0.00000000000E+00 0.  1.
</event>
<event>
 5    1  0.1285375E-004  0.9118800E+02  0.7818608E-02  0.1130116E+00
         25   -1    0    0    0    0  0.00000000000E+00  0.00000000000E+00  0.99999998245E-14  0.12500000000E+03  0.12500000000E+03 0.  0.
        -13    1    3    3    0    0 -0.37437935616E+02  0.20044523738E+02 -0.38505307122E+02  0.57324094373E+02  0.10566000000E+00 0. -1.
         23    2    1    0    0    0 -0.23053433366E+02 -0.74730650087E+01 -0.13049796796E+02  0.97475380348E+02  0.93508529488E+02 0.  0.
         13    1    3    3    0    0  0.14384502250E+02 -0.27517588747E+02  0.25455510326E+02  0.40151285975E+02  0.10566000000E+00 0.  1.
         22    1    1    0    0    0  0.23053433366E+02  0.74730650087E+01  0.13049796796E+02  0.27524619652E+02  0.00000000000E+00 0.  1.
</event>
<event>
 5    1  0.1285375E-004  0.9118800E+02  0.7818608E-02  0.1130116E+00
         25   -1    0    0    0    0  0.00000000000E+00  0.00000000000E+00  0.99999998245E-14  0.12500000000E+03  0.12500000000E+03 0.  0.
        -13    1    3    3    0    0  0.32720766321E+02  0.11431169922E+02  0.73163130942E+01  0.35424000279E+02  0.10566000000E+00 0. -1.
         23    2    1    0    0    0 -0.12752111586E+02 -0.15040246470E+02  0.26968916432E+02  0.91591201499E+02  0.85280715140E+02 0.  0.
         13    1    3    3    0    0 -0.45472877907E+02 -0.26471416391E+02  0.19652603338E+02  0.56167201220E+02  0.10566000000E+00 0.  1.
         22    1    1    0    0    0  0.12752111586E+02  0.15040246470E+02 -0.26968916432E+02  0.33408798501E+02  0.00000000000E+00 0.  1.
</event>
<event>
 5    1  0.1285375E-004  0.9118800E+02  0.7818608E-02  0.1130116E+00
         25   -1    0    0    0    0  0.00000000000E+00  0.00000000000E+00  0.99999998245E-14  0.12500000000E+03  0.12500000000E+03 0.  0.
        -13    1    3    3    0    0  0.46118961152E+02  0.80262383485E+01  0.35041559230E+02  0.58474790441E+02  0.10566000000E+00 0.  1.
         23    2    1    0    0    0  0.18180067611E+02  0.18618376178E+02  0.11336261179E+02  0.96615680256E+02  0.92352152459E+02 0.  0.
         13    1    3    3    0    0 -0.27938893541E+02  0.10592137829E+02 -0.23705298052E+02  0.38140889815E+02  0.10566000000E+00 0. -1.
         22    1    1    0    0    0 -0.18180067611E+02 -0.18618376178E+02 -0.11336261179E+02  0.28384319744E+02  0.00000000000E+00 0.  1.
</event>
<event>
 5    1  0.1285375E-004  0.9118800E+02  0.7818608E-02  0.1130116E+00
         25   -1    0    0    0    0  0.00000000000E+00  0.00000000000E+00  0.99999998245E-14  0.12500000000E+03  0.12500000000E+03 0.  0.
        -13    1    3    3    0    0 -0.34163612857E+02  0.38131237957E+01 -0.32339777061E+02  0.47197083606E+02  0.10566000000E+00 0. -1.
         23    2    1    0    0    0  0.14691170046E+02  0.83809805389E+01 -0.21841092498E+02  0.97375651435E+02  0.93375119056E+02 0.  0.
         13    1    3    3    0    0  0.48854782903E+02  0.45678567433E+01  0.10498684563E+02  0.50178567829E+02  0.10566000000E+00 0.  1.
         22    1    1    0    0    0 -0.14691170046E+02 -0.83809805389E+01  0.21841092498E+02  0.27624348565E+02  0.00000000000E+00 0. -1.
</event>
<event>
 5    1  0.1285375E-004  0.9118800E+02  0.7818608E-02  0.1130116E+00
         25   -1    0    0    0    0  0.00000000000E+00  0.00000000000E+00  0.99999998245E-14  0.12500000000E+03  0.12500000000E+03 0.  0.
        -13    1    3    3    0    0 -0.11329934547E+02 -0.46681028496E+02  0.15009596169E+02  0.50326781931E+02  0.10566000000E+00 0. -1.
         23    2    1    0    0    0 -0.27311498134E+02 -0.79871773397E+01 -0.39268929138E+01  0.96274864315E+02  0.91889695172E+02 0.  0.
         13    1    3    3    0    0 -0.15981563586E+02  0.38693851157E+02 -0.18936489083E+02  0.45948082384E+02  0.10566000000E+00 0.  1.
         22    1    1    0    0    0  0.27311498134E+02  0.79871773397E+01  0.39268929138E+01  0.28725135685E+02  0.00000000000E+00 0.  1.
</event>
<event>
 5    1  0.1285375E-004  0.9118800E+02  0.7818608E-02  0.1130116E+00
         25   -1    0    0    0    0  0.00000000000E+00  0.00000000000E+00  0.99999998245E-14  0.12500000000E+03  0.12500000000E+03 0.  0.
        -13    1    3    3    0    0 -0.80284514217E+01  0.31338570430E+02  0.20477850301E+02  0.38287276553E+02  0.10566000000E+00 0. -1.
         23    2    1    0    0    0  0.16668651373E+02 -0.68715564282E+00 -0.22296135930E+02  0.97153388018E+02  0.93077102472E+02 0.  0.
         13    1    3    3    0    0  0.24697102795E+02 -0.32025726073E+02 -0.42773986231E+02  0.58866111465E+02  0.10566000000E+00 0.  1.
         22    1    1    0    0    0 -0.16668651373E+02  0.68715564282E+00  0.22296135930E+02  0.27846611982E+02  0.00000000000E+00 0.  1.
</event>
<event>
 5    1  0.1285375E-004  0.9118800E+02  0.7818608E-02  0.1130116E+00
         25   -1    0    0    0    0  0.00000000000E+00  0.00000000000E+00  0.99999998245E-14  0.12500000000E+03  0.12500000000E+03 0.  0.
        -13    1    3    3    0    0 -0.47228998046E+02  0.82646846423E+01 -0.23927857526E+02  0.53585789147E+02  0.10566000000E+00 0. -1.
         23    2    1    0    0    0 -0.30229883412E+02  0.20203369183E+01  0.10868031603E+02  0.92812397988E+02  0.87052280251E+02 0.  0.
         13    1    3    3    0    0  0.16999114634E+02 -0.62443477240E+01  0.34795889129E+02  0.39226608841E+02  0.10566000000E+00 0.  1.
         22    1    1    0    0    0  0.30229883412E+02 -0.20203369183E+01 -0.10868031603E+02  0.32187602012E+02  0.00000000000E+00 0. -1.
</event>
<event>
 5    1  0.1285375E-004  0.9118800E+02  0.7818608E-02  0.1130116E+00
         25   -1    0    0    0    0  0.00000000000E+00  0.00000000000E+00  0.99999998245E-14  0.12500000000E+03  0.12500000000E+03 0.  0.
        -13    1    3    3    0    0 -0.15233978061E+02 -0.16770531075E+02  0.53154772568E+02  0.57782054401E+02  0.10566000000E+00 0.  1.
         23    2    1    0    0    0 -0.16200720087E+02 -0.18602493967E+02  0.14717836581E+02  0.96274909456E+02  0.91889756579E+02 0.  0.
         13    1    3    3    0    0 -0.96674202587E+00 -0.18319628919E+01 -0.38436935987E+02  0.38492855055E+02  0.10566000000E+00 0. -1.
         22    1    1    0    0    0  0.16200720087E+02  0.18602493967E+02 -0.14717836581E+02  0.28725090544E+02  0.00000000000E+00 0.  1.
</event>
<event>
 5    1  0.1285375E-004  0.9118800E+02  0.7818608E-02  0.1130116E+00
         25   -1    0    0    0    0  0.00000000000E+00  0.00000000000E+00  0.99999998245E-14  0.12500000000E+03  0.12500000000E+03 0.  0.
        -13    1    3    3    0    0  0.13403053610E+02  0.99369591686E+01 -0.28280937050E+02  0.32836071142E+02  0.10566000000E+00 0. -1.
         23    2    1    0    0    0 -0.10720269715E+02 -0.18720794149E+02  0.21104261762E+02  0.94820832005E+02  0.89889977202E+02 0.  0.
         13    1    3    3    0    0 -0.24123323325E+02 -0.28657753317E+02  0.49385198812E+02  0.61984760863E+02  0.10566000000E+00 0.  1.
         22    1    1    0    0    0  0.10720269715E+02  0.18720794149E+02 -0.21104261762E+02  0.30179167995E+02  0.00000000000E+00 0.  1.
</event>
<event>
 5    1  0.1285375E-004  0.9118800E+02  0.7818608E-02  0.1130116E+00
         25   -1    0    0    0    0  0.00000000000E+00  0.00000000000E+00  0.99999998245E-14  0.12500000000E+03  0.12500000000E+03 0.  0.
        -13    1    3    3    0    0 -0.24086756235E+02  0.34172227069E+02  0.12275526660E+02  0.43573072505E+02  0.10566000000E+00 0. -1.
         23    2    1    0    0    0 -0.11339882460E+02 -0.16178681197E+02  0.20917994502E+02  0.96226658980E+02  0.91824096755E+02 0.  0.
         13    1    3    3    0    0  0.12746873775E+02 -0.50350908265E+02  0.86424678425E+01  0.52653586474E+02  0.10566000000E+00 0.  1.
         22    1    1    0    0    0  0.11339882460E+02  0.16178681197E+02 -0.20917994502E+02  0.28773341020E+02  0.00000000000E+00 0.  1.
</event>
<event>
 5    1  0.1285375E-004  0.9118800E+02  0.7818608E-02  0.1130116E+00
         25   -1    0    0    0    0  0.00000000000E+00  0.00000000000E+00  0.99999998245E-14  0.12500000000E+03  0.12500000000E+03 0.  0.
        -13    1    3    3    0    0 -0.20390907825E+01  0.31978483245E+02  0.34040477754E+02  0.46749829643E+02  0.10566000000E+00 0. -1.
         23    2    1    0    0    0 -0.29842674275E+02  0.28383802415E+01  0.11594982965E+02  0.92858356603E+02  0.87118248093E+02 0.  0.
         13    1    3    3    0    0 -0.27803583492E+02 -0.29140103004E+02 -0.22445494789E+02  0.46108526960E+02  0.10566000000E+00 0.  1.
         22    1    1    0    0    0  0.29842674275E+02 -0.28383802415E+01 -0.11594982965E+02  0.32141643397E+02  0.00000000000E+00 0.  1.
</event>
<event>
 5    1  0.1285375E-004  0.9118800E+02  0.7818608E-02  0.1130116E+00
         25   -1    0    0    0    0  0.00000000000E+00  0.00000000000E+00  0.99999998245E-14  0.12500000000E+03  0.12500000000E+03 0.  0.
        -13    1    3    3    0    0  0.92608870998E+01 -0.52536679561E+01  0.52421811515E+02  0.53492266202E+02  0.10566000000E+00 0. -1.
         23    2    1    0    0    0 -0.10749676267E+02  0.15974732728E+02  0.24109395520E+02  0.94145331344E+02  0.88945673509E+02 0.  0.
         13    1    3    3    0    0 -0.20010563367E+02  0.21228400684E+02 -0.28312415996E+02  0.40653065142E+02  0.10566000000E+00 0.  1.
         22    1    1    0    0    0  0.10749676267E+02 -0.15974732728E+02 -0.24109395520E+02  0.30854668656E+02  0.00000000000E+00 0. -1.
</event>
<event>
 5    1  0.1285375E-004  0.9118800E+02  0.7818608E-02  0.1130116E+00
         25   -1    0    0    0    0  0.00000000000E+00  0.00000000000E+00  0.99999998245E-14  0.12500000000E+03  0.12500000000E+03 0.  0.
        -13    1    3    3    0    0  0.51165081619E+02 -0.83948936282E+01  0.13845939401E+02  0.53666199959E+02  0.10566000000E+00 0.  1.
         23    2    1    0    0    0  0.17260401946E+02  0.16524059338E+02  0.16711866416E+02  0.95840910654E+02  0.91297468002E+02 0.  0.
         13    1    3    3    0    0 -0.33904679672E+02  0.24918952966E+02  0.28659270152E+01  0.42174710696E+02  0.10566000000E+00 0. -1.
         22    1    1    0    0    0 -0.17260401946E+02 -0.16524059338E+02 -0.16711866416E+02  0.29159089346E+02  0.00000000000E+00 0.  1.
</event>
<event>
 5    1  0.1285375E-004  0.9118800E+02  0.7818608E-02  0.1130116E+00
         25   -1    0    0    0    0  0.00000000000E+00  0.00000000000E+00  0.99999998245E-14  0.12500000000E+03  0.12500000000E+03 0.  0.
        -13    1    3    3    0    0  0.31544480909E+02  0.19887997191E+02 -0.10172303235E+02  0.38653248573E+02  0.10566000000E+00 0. -1.
         23    2    1    0    0    0 -0.24523159470E+02  0.12128022339E+02 -0.11625612826E+02  0.95274099681E+02  0.90518091673E+02 0.  0.
         13    1    3    3    0    0 -0.56067640379E+02 -0.77599748522E+01 -0.14533095908E+01  0.56620851108E+02  0.10566000000E+00 0.  1.
         22    1    1    0    0    0  0.24523159470E+02 -0.12128022339E+02  0.11625612826E+02  0.29725900319E+02  0.00000000000E+00 0.  1.
</event>
<event>
 5    1  0.1285375E-004  0.9118800E+02  0.7818608E-02  0.1130116E+00
         25   -1    0    0    0    0  0.00000000000E+00  0.00000000000E+00  0.99999998245E-14  0.12500000000E+03  0.12500000000E+03 0.  0.
        -13    1    3    3    0    0 -0.18678092829E+02  0.16207454294E+02 -0.46506117267E+02  0.52672410555E+02  0.10566000000E+00 0.  1.
         23    2    1    0    0    0 -0.13485067521E+02  0.24937919748E+02 -0.40082052966E+01  0.96367630257E+02  0.92015800622E+02 0.  0.
         13    1    3    3    0    0  0.51930253076E+01  0.87304654542E+01  0.42497911970E+02  0.43695219702E+02  0.10566000000E+00 0. -1.
         22    1    1    0    0    0  0.13485067521E+02 -0.24937919748E+02  0.40082052966E+01  0.28632369743E+02  0.00000000000E+00 0. -1.
</event>
<event>
 5    1  0.1285375E-004  0.9118800E+02  0.7818608E-02  0.1130116E+00
         25   -1    0    0    0    0  0.00000000000E+00  0.00000000000E+00  0.99999998245E-14  0.12500000000E+03  0.12500000000E+03 0.  0.
        -13    1    3    3    0    0  0.48926709540E+02 -0.13522491499E+02  0.21369917203E+02  0.55075994843E+02  0.10566000000E+00 0.  1.
         23    2    1    0    0    0  0.26208757877E+02  0.18695182020E+01 -0.10118381567E+02  0.96843726573E+02  0.92660302413E+02 0.  0.
         13    1    3    3    0    0 -0.22717951663E+02  0.15392009701E+02 -0.31488298770E+02  0.41767731730E+02  0.10566000000E+00 0. -1.
         22    1    1    0    0    0 -0.26208757877E+02 -0.18695182020E+01  0.10118381567E+02  0.28156273427E+02  0.00000000000E+00 0.  1.
</event>
<event>
 5    1  0.1285375E-004  0.9118800E+02  0.7818608E-02  0.1130116E+00
         25   -1    0    0    0    0  0.00000000000E+00  0.00000000000E+00  0.99999998245E-14  0.12500000000E+03  0.12500000000E+03 0.  0.
        -13    1    3    3    0    0  0.33810710646E+02  0.33726829763E+02  0.15758141331E+01  0.47782397956E+02  0.10566000000E+00 0.  1.
         23    2    1    0    0    0 -0.74097925232E+01  0.21050766763E+02 -0.19116102675E+02  0.95615221831E+02  0.90987941277E+02 0.  0.
         13    1    3    3    0    0 -0.41220503169E+02 -0.12676063000E+02 -0.20691916808E+02  0.47832823875E+02  0.10566000000E+00 0. -1.
         22    1    1    0    0    0  0.74097925232E+01 -0.21050766763E+02  0.19116102675E+02  0.29384778169E+02  0.00000000000E+00 0.  1.
</event>
<event>
 5    1  0.1285375E-004  0.9118800E+02  0.7818608E-02  0.1130116E+00
         25   -1    0    0    0    0  0.00000000000E+00  0.00000000000E+00  0.99999998245E-14  0.12500000000E+03  0.12500000000E+03 0.  0.
        -13    1    3    3    0    0 -0.41193651314E+02 -0.38750943887E+02 -0.23890635509E+02  0.61394838462E+02  0.10566000000E+00 0.  1.
         23    2    1    0    0    0 -0.24763874738E+02 -0.11944710535E+02 -0.10479144999E+02  0.95576572570E+02  0.90934829095E+02 0.  0.
         13    1    3    3    0    0  0.16429776576E+02  0.26806233352E+02  0.13411490511E+02  0.34181734108E+02  0.10566000000E+00 0. -1.
         22    1    1    0    0    0  0.24763874738E+02  0.11944710535E+02  0.10479144999E+02  0.29423427430E+02  0.00000000000E+00 0.  1.
</event>
<event>
 5    1  0.1285375E-004  0.9118800E+02  0.7818608E-02  0.1130116E+00
         25   -1    0    0    0    0  0.00000000000E+00  0.00000000000E+00  0.99999998245E-14  0.12500000000E+03  0.12500000000E+03 0.  0.
        -13    1    3    3    0    0 -0.13311996895E+02 -0.41087660678E+02  0.30232548338E+02  0.52720235815E+02  0.10566000000E+00 0.  1.
         23    2    1    0    0    0  0.16474292957E+02 -0.22779656691E+02  0.36283650040E+01  0.96654275102E+02  0.92404376387E+02 0.  0.
         13    1    3    3    0    0  0.29786289853E+02  0.18308003987E+02 -0.26604183334E+02  0.43934039287E+02  0.10566000000E+00 0. -1.
         22    1    1    0    0    0 -0.16474292957E+02  0.22779656691E+02 -0.36283650040E+01  0.28345724898E+02  0.00000000000E+00 0.  1.
</event>
<event>
 5    1  0.1285375E-004  0.9118800E+02  0.7818608E-02  0.1130116E+00
         25   -1    0    0    0    0  0.00000000000E+00  0.00000000000E+00  0.99999998245E-14  0.12500000000E+03  0.12500000000E+03 0.  0.
        -13    1    3    3    0    0 -0.18342454760E+02 -0.41992803707E+02  0.16802380647E+02  0.48807503207E+02  0.10566000000E+00 0.  1.
         23    2    1    0    0    0 -0.25353110148E+02  0.52702132488E+01  0.10721357261E+02  0.96973176359E+02  0.92834767678E+02 0.  0.
         13    1    3    3    0    0 -0.70106553883E+01  0.47263016956E+02 -0.60810233863E+01  0.48165673153E+02  0.10566000000E+00 0. -1.
         22    1    1    0    0    0  0.25353110148E+02 -0.52702132488E+01 -0.10721357261E+02  0.28026823641E+02  0.00000000000E+00 0.  1.
</event>
<event>
 5    1  0.1285375E-004  0.9118800E+02  0.7818608E-02  0.1130116E+00
         25   -1    0    0    0    0  0.00000000000E+00  0.00000000000E+00  0.99999998245E-14  0.12500000000E+03  0.12500000000E+03 0.  0.
        -13    1    3    3    0    0  0.44173100797E+01 -0.11779352988E+02  0.33417470418E+02  0.35707202051E+02  0.10566000000E+00 0. -1.
         23    2    1    0    0    0  0.53154950150E+00  0.25665829195E+02 -0.13607610414E+02  0.95945148524E+02  0.91440073988E+02 0.  0.
         13    1    3    3    0    0 -0.38857605782E+01  0.37445182183E+02 -0.47025080831E+02  0.60237946473E+02  0.10566000000E+00 0.  1.
         22    1    1    0    0    0 -0.53154950150E+00 -0.25665829195E+02  0.13607610414E+02  0.29054851476E+02  0.00000000000E+00 0.  1.
</event>
<event>
 5    1  0.1285375E-004  0.9118800E+02  0.7818608E-02  0.1130116E+00
         25   -1    0    0    0    0  0.00000000000E+00  0.00000000000E+00  0.99999998245E-14  0.12500000000E+03  0.12500000000E+03 0.  0.
        -13    1    3    3    0    0  0.35039491085E+02  0.11763510964E+02  0.12387163448E+02  0.38982035709E+02  0.10566000000E+00 0. -1.
         23    2    1    0    0    0 -0.56529373080E+00 -0.27252456599E+02 -0.94668148560E+01  0.96144558032E+02  0.91712264763E+02 0.  0.
         13    1    3    3    0    0 -0.35604784816E+02 -0.39015967562E+02 -0.21853978304E+02  0.57162522323E+02  0.10566000000E+00 0.  1.
         22    1    1    0    0    0  0.56529373080E+00  0.27252456599E+02  0.94668148560E+01  0.28855441968E+02  0.00000000000E+00 0.  1.
</event>
<event>
 5    1  0.1285375E-004  0.9118800E+02  0.7818608E-02  0.1130116E+00
         25   -1    0    0    0    0  0.00000000000E+00  0.00000000000E+00  0.99999998245E-14  0.12500000000E+03  0.12500000000E+03 0.  0.
        -13    1    3    3    0    0 -0.19508203883E+02 -0.20310575254E+02  0.33344790900E+02  0.43646027655E+02  0.10566000000E+00 0.  1.
         23    2    1    0    0    0  0.17945082586E+02 -0.18885000700E+02 -0.62942016638E+01  0.98199137793E+02  0.94471077311E+02 0.  0.
         13    1    3    3    0    0  0.37453286469E+02  0.14255745538E+01 -0.39638992564E+02  0.54553110138E+02  0.10566000000E+00 0. -1.
         22    1    1    0    0    0 -0.17945082586E+02  0.18885000700E+02  0.62942016638E+01  0.26800862207E+02  0.00000000000E+00 0. -1.
</event>
<event>
 5    1  0.1285375E-004  0.9118800E+02  0.7818608E-02  0.1130116E+00
         25   -1    0    0    0    0  0.00000000000E+00  0.00000000000E+00  0.99999998245E-14  0.12500000000E+03  0.12500000000E+03 0.  0.
        -13    1    3    3    0    0 -0.26966662429E+02 -0.46056083642E+02  0.24444723475E+02  0.58701953910E+02  0.10566000000E+00 0. -1.
         23    2    1    0    0    0 -0.15699141675E+02 -0.93677355854E+01  0.20881214139E+02  0.97246754726E+02  0.93202407058E+02 0.  0.
         13    1    3    3    0    0  0.11267520754E+02  0.36688348057E+02 -0.35635093366E+01  0.38544800816E+02  0.10566000000E+00 0.  1.
         22    1    1    0    0    0  0.15699141675E+02  0.93677355854E+01 -0.20881214139E+02  0.27753245274E+02  0.00000000000E+00 0.  1.
</event>
<event>
 5    1  0.1285375E-004  0.9118800E+02  0.7818608E-02  0.1130116E+00
         25   -1    0    0    0    0  0.00000000000E+00  0.00000000000E+00  0.99999998245E-14  0.12500000000E+03  0.12500000000E+03 0.  0.
        -13    1    3    3    0    0  0.64870422377E+01  0.46120656113E+02  0.11855598916E+02  0.48059994039E+02  0.10566000000E+00 0.  1.
         23    2    1    0    0    0 -0.20733323036E+02  0.79371124611E+01  0.19352723615E+02  0.95548406670E+02  0.90896103698E+02 0.  0.
         13    1    3    3    0    0 -0.27220365274E+02 -0.38183543652E+02  0.74971246989E+01  0.47488412631E+02  0.10566000000E+00 0. -1.
         22    1    1    0    0    0  0.20733323036E+02 -0.79371124611E+01 -0.19352723615E+02  0.29451593330E+02  0.00000000000E+00 0. -1.
</event>
<event>
 5    1  0.1285375E-004  0.9118800E+02  0.7818608E-02  0.1130116E+00
         25   -1    0    0    0    0  0.00000000000E+00  0.00000000000E+00  0.99999998245E-14  0.12500000000E+03  0.12500000000E+03 0.  0.
        -13    1    3    3    0    0 -0.16498220140E+02 -0.25959955260E+02  0.14081928109E+02  0.33829312854E+02  0.10566000000E+00 0. -1.
         23    2    1    0    0    0  0.11032783010E+02  0.27209450627E+02  0.10525263316E+02  0.93809333572E+02  0.88472218198E+02 0.  0.
         13    1    3    3    0    0  0.27531003150E+02  0.53169405887E+02 -0.35566647930E+01  0.59980020718E+02  0.10566000000E+00 0.  1.
         22    1    1    0    0    0 -0.11032783010E+02 -0.27209450627E+02 -0.10525263316E+02  0.31190666428E+02  0.00000000000E+00 0.  1.
</event>
<event>
 5    1  0.1285375E-004  0.9118800E+02  0.7818608E-02  0.1130116E+00
         25   -1    0    0    0    0  0.00000000000E+00  0.00000000000E+00  0.99999998245E-14  0.12500000000E+03  0.12500000000E+03 0.  0.
        -13    1    3    3    0    0 -0.27990619989E+02 -0.49483021815E+02 -0.25621753551E+02  0.62358076256E+02  0.10566000000E+00 0.  1.
         23    2    1    0    0    0 -0.14788253842E+02 -0.20874742620E+02 -0.99181145415E+01  0.97562501440E+02  0.93624918478E+02 0.  0.
         13    1    3    3    0    0  0.13202366147E+02  0.28608279195E+02  0.15703639009E+02  0.35204425184E+02  0.10566000000E+00 0. -1.
         22    1    1    0    0    0  0.14788253842E+02  0.20874742620E+02  0.99181145415E+01  0.27437498560E+02  0.00000000000E+00 0.  1.
</event>
<event>
 5    1  0.1285375E-004  0.9118800E+02  0.7818608E-02  0.1130116E+00
         25   -1    0    0    0    0  0.00000000000E+00  0.00000000000E+00  0.99999998245E-14  0.12500000000E+03  0.12500000000E+03 0.  0.
        -13    1    3    3    0    0 -0.29072537379E+02 -0.19116692675E+02  0.21606476473E+02  0.40957433491E+02  0.10566000000E+00 0.  1.
         23    2    1    0    0    0  0.23479512444E+02 -0.15146706142E+02  0.12285119296E+02  0.94477313885E+02  0.89411008669E+02 0.  0.
         13    1    3    3    0    0  0.52552049824E+02  0.39699865336E+01 -0.93213571775E+01  0.53519880394E+02  0.10566000000E+00 0. -1.
         22    1    1    0    0    0 -0.23479512444E+02  0.15146706142E+02 -0.12285119296E+02  0.30522686115E+02  0.00000000000E+00 0. -1.
</event>
<event>
 5    1  0.1285375E-004  0.9118800E+02  0.7818608E-02  0.1130116E+00
         25   -1    0    0    0    0  0.00000000000E+00  0.00000000000E+00  0.99999998245E-14  0.12500000000E+03  0.12500000000E+03 0.  0.
        -13    1    3    3    0    0 -0.31576102550E+02  0.19218656930E+02  0.19341759709E+02  0.41719562068E+02  0.10566000000E+00 0.  1.
         23    2    1    0    0    0 -0.33713858057E+01 -0.26233356614E+02  0.12819843565E+02  0.95607762410E+02  0.90977692884E+02 0.  0.
         13    1    3    3    0    0  0.28204716744E+02 -0.45452013545E+02 -0.65219161435E+01  0.53888200342E+02  0.10566000000E+00 0. -1.
         22    1    1    0    0    0  0.33713858057E+01  0.26233356614E+02 -0.12819843565E+02  0.29392237590E+02  0.00000000000E+00 0. -1.
</event>
<event>
 5    1  0.1285375E-004  0.9118800E+02  0.7818608E-02  0.1130116E+00
         25   -1    0    0    0    0  0.00000000000E+00  0.00000000000E+00  0.99999998245E-14  0.12500000000E+03  0.12500000000E+03 0.  0.
        -13    1    3    3    0    0  0.19110992070E+02  0.13148981473E+02  0.37632540066E+02  0.44207974027E+02  0.10566000000E+00 0.  1.
         23    2    1    0    0    0  0.10797301541E+02 -0.26083966179E+02  0.41212728972E+01  0.96470367992E+02  0.92155260284E+02 0.  0.
         13    1    3    3    0    0 -0.83136905291E+01 -0.39232947652E+02 -0.33511267169E+02  0.52262393965E+02  0.10566000000E+00 0. -1.
         22    1    1    0    0    0 -0.10797301541E+02  0.26083966179E+02 -0.41212728972E+01  0.28529632008E+02  0.00000000000E+00 0. -1.
</event>
<event>
 5    1  0.1285375E-004  0.9118800E+02  0.7818608E-02  0.1130116E+00
         25   -1    0    0    0    0  0.00000000000E+00  0.00000000000E+00  0.99999998245E-14  0.12500000000E+03  0.12500000000E+03 0.  0.
        -13    1    3    3    0    0  0.43237669856E+02  0.14756091017E+02  0.17282488467E+02  0.48846022237E+02  0.10566000000E+00 0. -1.
         23    2    1    0    0    0 -0.14938910877E+01  0.27577518915E+02  0.56701607719E+01  0.96805993842E+02  0.92609386460E+02 0.  0.
         13    1    3    3    0    0 -0.44731560944E+02  0.12821427898E+02 -0.11612327696E+02  0.47959971605E+02  0.10566000000E+00 0.  1.
         22    1    1    0    0    0  0.14938910877E+01 -0.27577518915E+02 -0.56701607719E+01  0.28194006158E+02  0.00000000000E+00 0.  1.
</event>
<event>
 5    1  0.1285375E-004  0.9118800E+02  0.7818608E-02  0.1130116E+00
         25   -1    0    0    0    0  0.00000000000E+00  0.00000000000E+00  0.99999998245E-14  0.12500000000E+03  0.12500000000E+03 0.  0.
        -13    1    3    3    0    0 -0.35097569642E+02 -0.15714849217E+02  0.24545817719E+02  0.45621313135E+02  0.10566000000E+00 0.  1.
         23    2    1    0    0    0 -0.12382243400E+02 -0.80235333726E+01 -0.22306760473E+02  0.98255120075E+02  0.94545121602E+02 0.  0.
         13    1    3    3    0    0  0.22715326242E+02  0.76913158441E+01 -0.46852578192E+02  0.52633806940E+02  0.10566000000E+00 0. -1.
         22    1    1    0    0    0  0.12382243400E+02  0.80235333726E+01  0.22306760473E+02  0.26744879925E+02  0.00000000000E+00 0. -1.
</event>
<event>
 5    1  0.1285375E-004  0.9118800E+02  0.7818608E-02  0.1130116E+00
         25   -1    0    0    0    0  0.00000000000E+00  0.00000000000E+00  0.99999998245E-14  0.12500000000E+03  0.12500000000E+03 0.  0.
        -13    1    3    3    0    0 -0.10838396306E+02 -0.23913976411E+02 -0.52602080789E+02  0.58790638452E+02  0.10566000000E+00 0.  1.
         23    2    1    0    0    0 -0.16447110645E+02 -0.18918123336E+02 -0.18152279105E+02  0.94049909922E+02  0.88811471560E+02 0.  0.
         13    1    3    3    0    0 -0.56087143397E+01  0.49958530759E+01  0.34449801684E+02  0.35259271470E+02  0.10566000000E+00 0. -1.
         22    1    1    0    0    0  0.16447110645E+02  0.18918123336E+02  0.18152279105E+02  0.30950090078E+02  0.00000000000E+00 0.  1.
</event>
<event>
 5    1  0.1285375E-004  0.9118800E+02  0.7818608E-02  0.1130116E+00
         25   -1    0    0    0    0  0.00000000000E+00  0.00000000000E+00  0.99999998245E-14  0.12500000000E+03  0.12500000000E+03 0.  0.
        -13    1    3    3    0    0  0.26107661350E+02 -0.20580910122E+02  0.27493613946E+02  0.43140396549E+02  0.10566000000E+00 0. -1.
         23    2    1    0    0    0 -0.21542807510E+02  0.30096167485E+01  0.17133052377E+02  0.97310799359E+02  0.93288262069E+02 0.  0.
         13    1    3    3    0    0 -0.47650468859E+02  0.23590526871E+02 -0.10360561569E+02  0.54170402810E+02  0.10566000000E+00 0.  1.
         22    1    1    0    0    0  0.21542807510E+02 -0.30096167485E+01 -0.17133052377E+02  0.27689200641E+02  0.00000000000E+00 0.  1.
</event>
<event>
 5    1  0.1285375E-004  0.9118800E+02  0.7818608E-02  0.1130116E+00
         25   -1    0    0    0    0  0.00000000000E+00  0.00000000000E+00  0.99999998245E-14  0.12500000000E+03  0.12500000000E+03 0.  0.
        -13    1    3    3    0    0 -0.17906689312E+02  0.52688974762E+02  0.18847788932E+02  0.58753960677E+02  0.10566000000E+00 0.  1.
         23    2    1    0    0    0  0.51440442673E+01  0.30706661220E+02  0.50828766222E+01  0.93453274821E+02  0.87967713994E+02 0.  0.
         13    1    3    3    0    0  0.23050733580E+02 -0.21982313541E+02 -0.13764912309E+02  0.34699314145E+02  0.10566000000E+00 0. -1.
         22    1    1    0    0    0 -0.51440442673E+01 -0.30706661220E+02 -0.50828766222E+01  0.31546725179E+02  0.00000000000E+00 0.  1.
</event>
<event>
 5    1  0.1285375E-004  0.9118800E+02  0.7818608E-02  0.1130116E+00
         25   -1    0    0    0    0  0.00000000000E+00  0.00000000000E+00  0.99999998245E-14  0.12500000000E+03  0.12500000000E+03 0.  0.
        -13    1    3    3    0    0 -0.18880758711E+02  0.50099707618E+02 -0.91451785566E+01  0.54314907786E+02  0.10566000000E+00 0. -1.
         23    2    1    0    0    0  0.66250535739E+01  0.21614132483E+02 -0.20792371232E+02  0.94285430830E+02  0.89142345198E+02 0.  0.
         13    1    3    3    0    0  0.25505812285E+02 -0.28485575135E+02 -0.11647192676E+02  0.39970523044E+02  0.10566000000E+00 0.  1.
         22    1    1    0    0    0 -0.66250535739E+01 -0.21614132483E+02  0.20792371232E+02  0.30714569170E+02  0.00000000000E+00 0. -1.
</event>
<event>
 4    1  0.1285375E-004  0.9118800E+02  0.7818608E-02  0.1130116E+00
         25   -1    0    0    0    0  0.00000000000E+00  0.00000000000E+00  0.99999998245E-14  0.12500000000E+03  0.12500000000E+03 0.  0.
        -13    1    1    0    0    0 -0.12678453204E+02  0.11791245033E+02  0.16041136932E+02  0.23603090331E+02  0.10566000000E+00 0. -1.
         13    1    1    0    0    0  0.37792846760E+02  0.32047928151E+02 -0.94607436062E+01  0.50446861137E+02  0.10566000000E+00 0.  1.
         22    1    1    0    0    0 -0.25114393556E+02 -0.43839173183E+02 -0.65803933255E+01  0.50950048532E+02  0.00000000000E+00 0.  1.
</event>
<event>
 5    1  0.1285375E-004  0.9118800E+02  0.7818608E-02  0.1130116E+00
         25   -1    0    0    0    0  0.00000000000E+00  0.00000000000E+00  0.99999998245E-14  0.12500000000E+03  0.12500000000E+03 0.  0.
        -13    1    3    3    0    0 -0.13003337968E+02 -0.57794291981E+01  0.35419283722E+02  0.38171002392E+02  0.10566000000E+00 0. -1.
         23    2    1    0    0    0 -0.13607554215E+02  0.26265401759E+02 -0.10012501658E+02  0.93770413856E+02  0.88417212487E+02 0.  0.
         13    1    3    3    0    0 -0.60421624709E+00  0.32044830957E+02 -0.45431785380E+02  0.55599411464E+02  0.10566000000E+00 0.  1.
         22    1    1    0    0    0  0.13607554215E+02 -0.26265401759E+02  0.10012501658E+02  0.31229586144E+02  0.00000000000E+00 0.  1.
</event>
<event>
 4    1  0.1285375E-004  0.9118800E+02  0.7818608E-02  0.1130116E+00
         25   -1    0    0    0    0  0.00000000000E+00  0.00000000000E+00  0.99999998245E-14  0.12500000000E+03  0.12500000000E+03 0.  0.
        -13    1    1    0    0    0  0.17906481147E+02  0.42506632554E+00 -0.23037254992E+02  0.29181313029E+02  0.10566000000E+00 0. -1.
         13    1    1    0    0    0  0.18991347212E+02  0.31786143102E+02 -0.79345244023E+01  0.37868166100E+02  0.10566000000E+00 0.  1.
         22    1    1    0    0    0 -0.36897828359E+02 -0.32211209428E+02  0.30971779395E+02  0.57950520872E+02  0.00000000000E+00 0.  1.
</event>
<event>
 5    1  0.1285375E-004  0.9118800E+02  0.7818608E-02  0.1130116E+00
         25   -1    0    0    0    0  0.00000000000E+00  0.00000000000E+00  0.99999998245E-14  0.12500000000E+03  0.12500000000E+03 0.  0.
        -13    1    3    3    0    0  0.54896434721E+02 -0.10287248451E+02 -0.21907151051E+02  0.59994836919E+02  0.10566000000E+00 0. -1.
         23    2    1    0    0    0  0.25767208141E+02  0.58292108131E+01 -0.16845215357E+02  0.93668067495E+02  0.88272401540E+02 0.  0.
         13    1    3    3    0    0 -0.29129226580E+02  0.16116459265E+02  0.50619356939E+01  0.33673230575E+02  0.10566000000E+00 0.  1.
         22    1    1    0    0    0 -0.25767208141E+02 -0.58292108131E+01  0.16845215357E+02  0.31331932505E+02  0.00000000000E+00 0. -1.
</event>
<event>
 5    1  0.1285375E-004  0.9118800E+02  0.7818608E-02  0.1130116E+00
         25   -1    0    0    0    0  0.00000000000E+00  0.00000000000E+00  0.99999998245E-14  0.12500000000E+03  0.12500000000E+03 0.  0.
        -13    1    3    3    0    0  0.13239627711E+02  0.70041634165E+01 -0.27532010099E+02  0.31342762980E+02  0.10566000000E+00 0. -1.
         23    2    1    0    0    0  0.89390096237E+01  0.60991360625E+01  0.32094040978E+02  0.91130650729E+02  0.84602970883E+02 0.  0.
         13    1    3    3    0    0 -0.43006180870E+01 -0.90502735394E+00  0.59626051077E+02  0.59787887749E+02  0.10566000000E+00 0.  1.
         22    1    1    0    0    0 -0.89390096237E+01 -0.60991360625E+01 -0.32094040978E+02  0.33869349271E+02  0.00000000000E+00 0.  1.
</event>
<event>
 5    1  0.1285375E-004  0.9118800E+02  0.7818608E-02  0.1130116E+00
         25   -1    0    0    0    0  0.00000000000E+00  0.00000000000E+00  0.99999998245E-14  0.12500000000E+03  0.12500000000E+03 0.  0.
        -13    1    3    3    0    0  0.42122119000E+02  0.22438983105E+02  0.10739970571E+02  0.48919719988E+02  0.10566000000E+00 0. -1.
         23    2    1    0    0    0  0.19635333832E+02 -0.15728733495E+02  0.18340162561E+02  0.93866401512E+02  0.88552811236E+02 0.  0.
         13    1    3    3    0    0 -0.22486785168E+02 -0.38167716600E+02  0.76001919904E+01  0.44946681523E+02  0.10566000000E+00 0.  1.
         22    1    1    0    0    0 -0.19635333832E+02  0.15728733495E+02 -0.18340162561E+02  0.31133598488E+02  0.00000000000E+00 0. -1.
</event>
<event>
 5    1  0.1285375E-004  0.9118800E+02  0.7818608E-02  0.1130116E+00
         25   -1    0    0    0    0  0.00000000000E+00  0.00000000000E+00  0.99999998245E-14  0.12500000000E+03  0.12500000000E+03 0.  0.
        -13    1    3    3    0    0  0.18290874006E+02  0.51955968634E+02 -0.13937267540E+02  0.56817579490E+02  0.10566000000E+00 0.  1.
         23    2    1    0    0    0 -0.92091206479E+01  0.23941201347E+02 -0.13358975368E+02  0.96078533095E+02  0.91622231330E+02 0.  0.
         13    1    3    3    0    0 -0.27499994653E+02 -0.28014767288E+02  0.57829217172E+00  0.39260953605E+02  0.10566000000E+00 0. -1.
         22    1    1    0    0    0  0.92091206479E+01 -0.23941201347E+02  0.13358975368E+02  0.28921466905E+02  0.00000000000E+00 0.  1.
</event>
<event>
 5    1  0.1285375E-004  0.9118800E+02  0.7818608E-02  0.1130116E+00
         25   -1    0    0    0    0  0.00000000000E+00  0.00000000000E+00  0.99999998245E-14  0.12500000000E+03  0.12500000000E+03 0.  0.
        -13    1    3    3    0    0 -0.37195466779E+02  0.22911689531E+02  0.44224837512E+01  0.43909199408E+02  0.10566000000E+00 0. -1.
         23    2    1    0    0    0 -0.13987058739E+02 -0.24460483125E+02  0.31071478004E+00  0.96821114455E+02  0.92629793338E+02 0.  0.
         13    1    3    3    0    0  0.23208408040E+02 -0.47372172656E+02 -0.41117689712E+01  0.52911915048E+02  0.10566000000E+00 0.  1.
         22    1    1    0    0    0  0.13987058739E+02  0.24460483125E+02 -0.31071478004E+00  0.28178885545E+02  0.00000000000E+00 0.  1.
</event>
<event>
 5    1  0.1285375E-004  0.9118800E+02  0.7818608E-02  0.1130116E+00
         25   -1    0    0    0    0  0.00000000000E+00  0.00000000000E+00  0.99999998245E-14  0.12500000000E+03  0.12500000000E+03 0.  0.
        -13    1    3    3    0    0  0.25698014018E+02  0.24367975506E+02 -0.27594583544E+02  0.44896084013E+02  0.10566000000E+00 0. -1.
         23    2    1    0    0    0 -0.13430369272E+02 -0.86940425822E+01 -0.23878815575E+02  0.96257017753E+02  0.91865414810E+02 0.  0.
         13    1    3    3    0    0 -0.39128383290E+02 -0.33062018088E+02  0.37157679689E+01  0.51360933739E+02  0.10566000000E+00 0.  1.
         22    1    1    0    0    0  0.13430369272E+02  0.86940425822E+01  0.23878815575E+02  0.28742982247E+02  0.00000000000E+00 0.  1.
</event>
<event>
 5    1  0.1285375E-004  0.9118800E+02  0.7818608E-02  0.1130116E+00
         25   -1    0    0    0    0  0.00000000000E+00  0.00000000000E+00  0.99999998245E-14  0.12500000000E+03  0.12500000000E+03 0.  0.
        -13    1    3    3    0    0 -0.46172051475E+00 -0.36503306174E+02  0.69924251993E+01  0.37170011053E+02  0.10566000000E+00 0.  1.
         23    2    1    0    0    0  0.11497958523E+02  0.75942524553E+01 -0.27381336132E+02  0.94346887777E+02  0.89228481688E+02 0.  0.
         13    1    3    3    0    0  0.11959679037E+02  0.44097558630E+02 -0.34373761332E+02  0.57176876724E+02  0.10566000000E+00 0. -1.
         22    1    1    0    0    0 -0.11497958523E+02 -0.75942524553E+01  0.27381336132E+02  0.30653112223E+02  0.00000000000E+00 0. -1.
</event>
<event>
 5    1  0.1285375E-004  0.9118800E+02  0.7818608E-02  0.1130116E+00
         25   -1    0    0    0    0  0.00000000000E+00  0.00000000000E+00  0.99999998245E-14  0.12500000000E+03  0.12500000000E+03 0.  0.
        -13    1    3    3    0    0  0.19356001856E+02  0.36827041038E+02 -0.92100193257E+01  0.42611282303E+02  0.10566000000E+00 0.  1.
         23    2    1    0    0    0  0.23509579216E+02 -0.14220713850E+02  0.75590377862E+01  0.96503191941E+02  0.92199772154E+02 0.  0.
         13    1    3    3    0    0  0.41535773599E+01 -0.51047754888E+02  0.16769057112E+02  0.53891909638E+02  0.10566000000E+00 0. -1.
         22    1    1    0    0    0 -0.23509579216E+02  0.14220713850E+02 -0.75590377862E+01  0.28496808059E+02  0.00000000000E+00 0. -1.
</event>
<event>
 5    1  0.1285375E-004  0.9118800E+02  0.7818608E-02  0.1130116E+00
         25   -1    0    0    0    0  0.00000000000E+00  0.00000000000E+00  0.99999998245E-14  0.12500000000E+03  0.12500000000E+03 0.  0.
        -13    1    3    3    0    0  0.30996411982E+02  0.26000307021E+02  0.26372925853E+01  0.40543310141E+02  0.10566000000E+00 0.  1.
         23    2    1    0    0    0  0.81846411957E+01  0.45475607346E+02 -0.16285203987E+02  0.76007887534E+02  0.58111718986E+02 0.  0.
         13    1    3    3    0    0 -0.22811770786E+02  0.19475300324E+02 -0.18922496573E+02  0.35464577393E+02  0.10566000000E+00 0. -1.
         22    1    1    0    0    0 -0.81846411957E+01 -0.45475607346E+02  0.16285203987E+02  0.48992112466E+02  0.00000000000E+00 0. -1.
</event>
<event>
 5    1  0.1285375E-004  0.9118800E+02  0.7818608E-02  0.1130116E+00
         25   -1    0    0    0    0  0.00000000000E+00  0.00000000000E+00  0.99999998245E-14  0.12500000000E+03  0.12500000000E+03 0.  0.
        -13    1    3    3    0    0  0.38043386909E+01  0.47742062927E+02  0.85959717803E+01  0.48658806606E+02  0.10566000000E+00 0. -1.
         23    2    1    0    0    0 -0.19513119753E+02  0.33960387517E+01  0.16297955393E+02  0.99350082423E+02  0.95981876445E+02 0.  0.
         13    1    3    3    0    0 -0.23317458444E+02 -0.44346024175E+02  0.77019836132E+01  0.50691275818E+02  0.10566000000E+00 0.  1.
         22    1    1    0    0    0  0.19513119753E+02 -0.33960387517E+01 -0.16297955393E+02  0.25649917577E+02  0.00000000000E+00 0. -1.
</event>
<event>
 5    1  0.1285375E-004  0.9118800E+02  0.7818608E-02  0.1130116E+00
         25   -1    0    0    0    0  0.00000000000E+00  0.00000000000E+00  0.99999998245E-14  0.12500000000E+03  0.12500000000E+03 0.  0.
        -13    1    3    3    0    0  0.91821509491E+01  0.10235511868E+02 -0.37516114943E+02  0.39956822242E+02  0.10566000000E+00 0. -1.
         23    2    1    0    0    0  0.53811424486E+01  0.25240383281E+02  0.15302333985E+02  0.94996749049E+02  0.90134273516E+02 0.  0.
         13    1    3    3    0    0 -0.38010085005E+01  0.15004871413E+02  0.52818448928E+02  0.55039926807E+02  0.10566000000E+00 0.  1.
         22    1    1    0    0    0 -0.53811424486E+01 -0.25240383281E+02 -0.15302333985E+02  0.30003250951E+02  0.00000000000E+00 0.  1.
</event>
<event>
 5    1  0.1285375E-004  0.9118800E+02  0.7818608E-02  0.1130116E+00
         25   -1    0    0    0    0  0.00000000000E+00  0.00000000000E+00  0.99999998245E-14  0.12500000000E+03  0.12500000000E+03 0.  0.
        -13    1    3    3    0    0 -0.15994272828E+02  0.21874773027E+02  0.49071826026E+02  0.56056915112E+02  0.10566000000E+00 0.  1.
         23    2    1    0    0    0  0.94792877321E+01 -0.15662168119E+01  0.24988765174E+02  0.98227844391E+02  0.94509052994E+02 0.  0.
         13    1    3    3    0    0  0.25473560560E+02 -0.23440989839E+02 -0.24083060852E+02  0.42170929279E+02  0.10566000000E+00 0. -1.
         22    1    1    0    0    0 -0.94792877321E+01  0.15662168119E+01 -0.24988765174E+02  0.26772155609E+02  0.00000000000E+00 0.  1.
</event>
<event>
 5    1  0.1285375E-004  0.9118800E+02  0.7818608E-02  0.1130116E+00
         25   -1    0    0    0    0  0.00000000000E+00  0.00000000000E+00  0.99999998245E-14  0.12500000000E+03  0.12500000000E+03 0.  0.
        -13    1    3    3    0    0  0.37680809981E+02 -0.15907489341E+02  0.34248205461E+02  0.53346437550E+02  0.10566000000E+00 0. -1.
         23    2    1    0    0    0  0.28179394793E+02  0.15562294056E+01 -0.40412194279E+01  0.96489798399E+02  0.92181612048E+02 0.  0.
         13    1    3    3    0    0 -0.95014151874E+01  0.17463718746E+02 -0.38289424889E+02  0.43143360849E+02  0.10566000000E+00 0.  1.
         22    1    1    0    0    0 -0.28179394793E+02 -0.15562294056E+01  0.40412194279E+01  0.28510201601E+02  0.00000000000E+00 0. -1.
</event>
<event>
 5    1  0.1285375E-004  0.9118800E+02  0.7818608E-02  0.1130116E+00
         25   -1    0    0    0    0  0.00000000000E+00  0.00000000000E+00  0.99999998245E-14  0.12500000000E+03  0.12500000000E+03 0.  0.
        -13    1    3    3    0    0  0.51375632863E+02  0.23502981824E+02  0.11482209292E+02  0.57651522972E+02  0.10566000000E+00 0. -1.
         23    2    1    0    0    0  0.19289764436E+02  0.22984365743E+02 -0.63003520117E+01  0.94339430598E+02  0.89218034328E+02 0.  0.
         13    1    3    3    0    0 -0.32085868428E+02 -0.51861608032E+00 -0.17782561304E+02  0.36687907626E+02  0.10566000000E+00 0.  1.
         22    1    1    0    0    0 -0.19289764436E+02 -0.22984365743E+02  0.63003520117E+01  0.30660569402E+02  0.00000000000E+00 0. -1.
</event>
<event>
 5    1  0.1285375E-004  0.9118800E+02  0.7818608E-02  0.1130116E+00
         25   -1    0    0    0    0  0.00000000000E+00  0.00000000000E+00  0.99999998245E-14  0.12500000000E+03  0.12500000000E+03 0.  0.
        -13    1    3    3    0    0 -0.25113443458E+02 -0.20134466821E+02 -0.27458572731E+02  0.42309173674E+02  0.10566000000E+00 0.  1.
         23    2    1    0    0    0  0.83079742027E+01  0.10213580863E+01  0.19543036347E+02  0.10373980533E+03  0.10153793051E+03 0.  0.
         13    1    3    3    0    0  0.33421417661E+02  0.21155824907E+02  0.47001609078E+02  0.61430631658E+02  0.10566000000E+00 0. -1.
         22    1    1    0    0    0 -0.83079742027E+01 -0.10213580863E+01 -0.19543036347E+02  0.21260194669E+02  0.00000000000E+00 0. -1.
</event>
<event>
 5    1  0.1285375E-004  0.9118800E+02  0.7818608E-02  0.1130116E+00
         25   -1    0    0    0    0  0.00000000000E+00  0.00000000000E+00  0.99999998245E-14  0.12500000000E+03  0.12500000000E+03 0.  0.
        -13    1    3    3    0    0 -0.51515381695E+02 -0.84841093434E+01 -0.32818408103E+02  0.61667444709E+02  0.10566000000E+00 0. -1.
         23    2    1    0    0    0 -0.27756680594E+02 -0.11398350969E+01 -0.98335244242E+01  0.95530850976E+02  0.90871957962E+02 0.  0.
         13    1    3    3    0    0  0.23758701101E+02  0.73442742465E+01  0.22984883679E+02  0.33863406267E+02  0.10566000000E+00 0.  1.
         22    1    1    0    0    0  0.27756680594E+02  0.11398350969E+01  0.98335244242E+01  0.29469149024E+02  0.00000000000E+00 0. -1.
</event>
<event>
 5    1  0.1285375E-004  0.9118800E+02  0.7818608E-02  0.1130116E+00
         25   -1    0    0    0    0  0.00000000000E+00  0.00000000000E+00  0.99999998245E-14  0.12500000000E+03  0.12500000000E+03 0.  0.
        -13    1    3    3    0    0 -0.21340799327E+02  0.14691461164E+02 -0.25375852059E+02  0.36265876230E+02  0.10566000000E+00 0.  1.
         23    2    1    0    0    0 -0.10300408451E+02 -0.74845145604E+01  0.27521164873E+02  0.94676232285E+02  0.89688673037E+02 0.  0.
         13    1    3    3    0    0  0.11040390876E+02 -0.22175975724E+02  0.52897016932E+02  0.58410356054E+02  0.10566000000E+00 0. -1.
         22    1    1    0    0    0  0.10300408451E+02  0.74845145604E+01 -0.27521164873E+02  0.30323767715E+02  0.00000000000E+00 0. -1.
</event>
<event>
 5    1  0.1285375E-004  0.9118800E+02  0.7818608E-02  0.1130116E+00
         25   -1    0    0    0    0  0.00000000000E+00  0.00000000000E+00  0.99999998245E-14  0.12500000000E+03  0.12500000000E+03 0.  0.
        -13    1    3    3    0    0 -0.12375236456E+02 -0.42485109446E+02 -0.80110668602E+01  0.44970205228E+02  0.10566000000E+00 0.  1.
         23    2    1    0    0    0  0.25045584160E+02 -0.12452124483E+02  0.85853500982E+01  0.95741754557E+02  0.91161607266E+02 0.  0.
         13    1    3    3    0    0  0.37420820617E+02  0.30032984963E+02  0.16596416958E+02  0.50771549329E+02  0.10566000000E+00 0. -1.
         22    1    1    0    0    0 -0.25045584160E+02  0.12452124483E+02 -0.85853500982E+01  0.29258245443E+02  0.00000000000E+00 0. -1.
</event>
<event>
 5    1  0.1285375E-004  0.9118800E+02  0.7818608E-02  0.1130116E+00
         25   -1    0    0    0    0  0.00000000000E+00  0.00000000000E+00  0.99999998245E-14  0.12500000000E+03  0.12500000000E+03 0.  0.
        -13    1    3    3    0    0 -0.17313896230E+02 -0.25761527839E+02  0.53642260854E+02  0.61975242096E+02  0.10566000000E+00 0.  1.
         23    2    1    0    0    0 -0.12402656507E+02 -0.13927927706E+02  0.21726029460E+02  0.96367266727E+02  0.92015306779E+02 0.  0.
         13    1    3    3    0    0  0.49112397223E+01  0.11833600133E+02 -0.31916231395E+02  0.34392024631E+02  0.10566000000E+00 0. -1.
         22    1    1    0    0    0  0.12402656507E+02  0.13927927706E+02 -0.21726029460E+02  0.28632733273E+02  0.00000000000E+00 0.  1.
</event>
<event>
 5    1  0.1285375E-004  0.9118800E+02  0.7818608E-02  0.1130116E+00
         25   -1    0    0    0    0  0.00000000000E+00  0.00000000000E+00  0.99999998245E-14  0.12500000000E+03  0.12500000000E+03 0.  0.
        -13    1    3    3    0    0  0.43298888057E+02  0.11742385920E+02  0.43374111483E+00  0.44865093664E+02  0.10566000000E+00 0.  1.
         23    2    1    0    0    0  0.10193505736E+02 -0.11453422524E+02 -0.27161877421E+02  0.93809359869E+02  0.88472255354E+02 0.  0.
         13    1    3    3    0    0 -0.33105382321E+02 -0.23195808444E+02 -0.27595618536E+02  0.48944266206E+02  0.10566000000E+00 0. -1.
         22    1    1    0    0    0 -0.10193505736E+02  0.11453422524E+02  0.27161877421E+02  0.31190640131E+02  0.00000000000E+00 0. -1.
</event>
<event>
 5    1  0.1285375E-004  0.9118800E+02  0.7818608E-02  0.1130116E+00
         25   -1    0    0    0    0  0.00000000000E+00  0.00000000000E+00  0.99999998245E-14  0.12500000000E+03  0.12500000000E+03 0.  0.
        -13    1    3    3    0    0 -0.60328829304E+01  0.47031323739E+02 -0.38060358823E+02  0.60802493098E+02  0.10566000000E+00 0.  1.
         23    2    1    0    0    0 -0.26589910081E+01  0.15531894941E+02 -0.25792756378E+02  0.94774575682E+02  0.89825630643E+02 0.  0.
         13    1    3    3    0    0  0.33738919223E+01 -0.31499428798E+02  0.12267602445E+02  0.33972082584E+02  0.10566000000E+00 0. -1.
         22    1    1    0    0    0  0.26589910081E+01 -0.15531894941E+02  0.25792756378E+02  0.30225424318E+02  0.00000000000E+00 0.  1.
</event>
<event>
 5    1  0.1285375E-004  0.9118800E+02  0.7818608E-02  0.1130116E+00
         25   -1    0    0    0    0  0.00000000000E+00  0.00000000000E+00  0.99999998245E-14  0.12500000000E+03  0.12500000000E+03 0.  0.
        -13    1    3    3    0    0  0.68263869476E+01  0.49295337353E+02  0.20211285281E+02  0.53713471869E+02  0.10566000000E+00 0.  1.
         23    2    1    0    0    0 -0.18248878848E+02  0.20960034569E+02 -0.11890123579E+01  0.97183487301E+02  0.93117516211E+02 0.  0.
         13    1    3    3    0    0 -0.25075265796E+02 -0.28335302784E+02 -0.21400297639E+02  0.43470015432E+02  0.10566000000E+00 0. -1.
         22    1    1    0    0    0  0.18248878848E+02 -0.20960034569E+02  0.11890123579E+01  0.27816512699E+02  0.00000000000E+00 0.  1.
</event>
<event>
 5    1  0.1285375E-004  0.9118800E+02  0.7818608E-02  0.1130116E+00
         25   -1    0    0    0    0  0.00000000000E+00  0.00000000000E+00  0.99999998245E-14  0.12500000000E+03  0.12500000000E+03 0.  0.
        -13    1    3    3    0    0 -0.86360570525E+00 -0.45659401717E+02  0.95239386472E+01  0.46650223487E+02  0.10566000000E+00 0.  1.
         23    2    1    0    0    0 -0.14938146901E+02  0.22835859648E+01  0.22149046086E+02  0.98186883057E+02  0.94454860987E+02 0.  0.
         13    1    3    3    0    0 -0.14074541195E+02  0.47942987682E+02  0.12625107439E+02  0.51536659570E+02  0.10566000000E+00 0. -1.
         22    1    1    0    0    0  0.14938146901E+02 -0.22835859648E+01 -0.22149046086E+02  0.26813116943E+02  0.00000000000E+00 0.  1.
</event>
<event>
 5    1  0.1285375E-004  0.9118800E+02  0.7818608E-02  0.1130116E+00
         25   -1    0    0    0    0  0.00000000000E+00  0.00000000000E+00  0.99999998245E-14  0.12500000000E+03  0.12500000000E+03 0.  0.
        -13    1    3    3    0    0  0.19292818046E+02  0.34056295512E+02 -0.88921132107E+00  0.39151576635E+02  0.10566000000E+00 0. -1.
         23    2    1    0    0    0 -0.25608768417E+02 -0.39880517863E+01 -0.65284977823E+01  0.98272956389E+02  0.94568700411E+02 0.  0.
         13    1    3    3    0    0 -0.44901586463E+02 -0.38044347299E+02 -0.56392864612E+01  0.59121379755E+02  0.10566000000E+00 0.  1.
         22    1    1    0    0    0  0.25608768417E+02  0.39880517863E+01  0.65284977823E+01  0.26727043611E+02  0.00000000000E+00 0.  1.
</event>
<event>
 5    1  0.1285375E-004  0.9118800E+02  0.7818608E-02  0.1130116E+00
         25   -1    0    0    0    0  0.00000000000E+00  0.00000000000E+00  0.99999998245E-14  0.12500000000E+03  0.12500000000E+03 0.  0.
        -13    1    3    3    0    0 -0.53280967331E+01  0.55351219551E+02  0.11596776861E+02  0.56803543184E+02  0.10566000000E+00 0. -1.
         23    2    1    0    0    0  0.14463215926E+02  0.24905263667E+02  0.13554101518E+02  0.93169661622E+02  0.87563779073E+02 0.  0.
         13    1    3    3    0    0  0.19791312659E+02 -0.30445955884E+02  0.19573246567E+01  0.36366118439E+02  0.10566000000E+00 0.  1.
         22    1    1    0    0    0 -0.14463215926E+02 -0.24905263667E+02 -0.13554101518E+02  0.31830338378E+02  0.00000000000E+00 0. -1.
</event>
<event>
 5    1  0.1285375E-004  0.9118800E+02  0.7818608E-02  0.1130116E+00
         25   -1    0    0    0    0  0.00000000000E+00  0.00000000000E+00  0.99999998245E-14  0.12500000000E+03  0.12500000000E+03 0.  0.
        -13    1    3    3    0    0 -0.32435990939E+02 -0.14721869577E+02 -0.95590202900E-01  0.35620882268E+02  0.10566000000E+00 0.  1.
         23    2    1    0    0    0  0.13292943300E+02  0.21167828715E+02  0.15219447313E+02  0.95735501190E+02  0.91153032301E+02 0.  0.
         13    1    3    3    0    0  0.45728934238E+02  0.35889698292E+02  0.15315037516E+02  0.60114618923E+02  0.10566000000E+00 0. -1.
         22    1    1    0    0    0 -0.13292943300E+02 -0.21167828715E+02 -0.15219447313E+02  0.29264498810E+02  0.00000000000E+00 0. -1.
</event>
<event>
 5    1  0.1285375E-004  0.9118800E+02  0.7818608E-02  0.1130116E+00
         25   -1    0    0    0    0  0.00000000000E+00  0.00000000000E+00  0.99999998245E-14  0.12500000000E+03  0.12500000000E+03 0.  0.
        -13    1    3    3    0    0 -0.10589471453E+02 -0.18903369643E-01 -0.32431318067E+02  0.34116547577E+02  0.10566000000E+00 0.  1.
         23    2    1    0    0    0  0.13559882856E+02  0.47910885791E+01  0.24750361048E+02  0.96374743235E+02  0.92025462828E+02 0.  0.
         13    1    3    3    0    0  0.24149354309E+02  0.48099919487E+01  0.57181679115E+02  0.62258195658E+02  0.10566000000E+00 0. -1.
         22    1    1    0    0    0 -0.13559882856E+02 -0.47910885791E+01 -0.24750361048E+02  0.28625256765E+02  0.00000000000E+00 0. -1.
</event>
<event>
 5    1  0.1285375E-004  0.9118800E+02  0.7818608E-02  0.1130116E+00
         25   -1    0    0    0    0  0.00000000000E+00  0.00000000000E+00  0.99999998245E-14  0.12500000000E+03  0.12500000000E+03 0.  0.
        -13    1    3    3    0    0  0.24600807890E+02  0.47539482636E+02  0.31307698761E+02  0.62011170961E+02  0.10566000000E+00 0. -1.
         23    2    1    0    0    0  0.15949747610E+02  0.19811547806E+02  0.12096452709E+02  0.96835908617E+02  0.92649755284E+02 0.  0.
         13    1    3    3    0    0 -0.86510602807E+01 -0.27727934830E+02 -0.19211246052E+02  0.34824737656E+02  0.10566000000E+00 0.  1.
         22    1    1    0    0    0 -0.15949747610E+02 -0.19811547806E+02 -0.12096452709E+02  0.28164091383E+02  0.00000000000E+00 0. -1.
</event>
<event>
 5    1  0.1285375E-004  0.9118800E+02  0.7818608E-02  0.1130116E+00
         25   -1    0    0    0    0  0.00000000000E+00  0.00000000000E+00  0.99999998245E-14  0.12500000000E+03  0.12500000000E+03 0.  0.
        -13    1    3    3    0    0 -0.26091445205E+02 -0.24526617979E+02  0.16148986921E+01  0.35846025779E+02  0.10566000000E+00 0. -1.
         23    2    1    0    0    0 -0.42777849246E+01  0.30017556871E+02 -0.11713609254E+01  0.94656545174E+02  0.89661230716E+02 0.  0.
         13    1    3    3    0    0  0.21813660280E+02  0.54544174849E+02 -0.27862596175E+01  0.58810519395E+02  0.10566000000E+00 0.  1.
         22    1    1    0    0    0  0.42777849246E+01 -0.30017556871E+02  0.11713609254E+01  0.30343454826E+02  0.00000000000E+00 0.  1.
</event>
<event>
 5    1  0.1285375E-004  0.9118800E+02  0.7818608E-02  0.1130116E+00
         25   -1    0    0    0    0  0.00000000000E+00  0.00000000000E+00  0.99999998245E-14  0.12500000000E+03  0.12500000000E+03 0.  0.
        -13    1    3    3    0    0 -0.18309371288E+02  0.28655047485E+02  0.17447217726E+02  0.38219908343E+02  0.10566000000E+00 0.  1.
         23    2    1    0    0    0 -0.97502459007E+01 -0.26987300364E+02  0.67022215760E+01  0.95533044777E+02  0.90874975621E+02 0.  0.
         13    1    3    3    0    0  0.85591253875E+01 -0.55642347849E+02 -0.10744996150E+02  0.57313136434E+02  0.10566000000E+00 0. -1.
         22    1    1    0    0    0  0.97502459007E+01  0.26987300364E+02 -0.67022215760E+01  0.29466955223E+02  0.00000000000E+00 0. -1.
</event>
<event>
 5    1  0.1285375E-004  0.9118800E+02  0.7818608E-02  0.1130116E+00
         25   -1    0    0    0    0  0.00000000000E+00  0.00000000000E+00  0.99999998245E-14  0.12500000000E+03  0.12500000000E+03 0.  0.
        -13    1    3    3    0    0 -0.30688582535E+02  0.33965195503E+02 -0.29806344301E+02  0.54624654948E+02  0.10566000000E+00 0.  1.
         23    2    1    0    0    0 -0.29830014173E+02  0.22959647898E+01 -0.54423838803E+01  0.94590778666E+02  0.89569496294E+02 0.  0.
         13    1    3    3    0    0  0.85856836234E+00 -0.31669230714E+02  0.24363960420E+02  0.39966123718E+02  0.10566000000E+00 0. -1.
         22    1    1    0    0    0  0.29830014173E+02 -0.22959647898E+01  0.54423838803E+01  0.30409221334E+02  0.00000000000E+00 0. -1.
</event>
<event>
 5    1  0.1285375E-004  0.9118800E+02  0.7818608E-02  0.1130116E+00
         25   -1    0    0    0    0  0.00000000000E+00  0.00000000000E+00  0.99999998245E-14  0.12500000000E+03  0.12500000000E+03 0.  0.
        -13    1    3    3    0    0 -0.15992582844E+02 -0.13229803182E+02 -0.54810440386E+02  0.58608753080E+02  0.10566000000E+00 0.  1.
         23    2    1    0    0    0  0.47998416818E+01  0.32939957487E+01 -0.28201001049E+02  0.96204421376E+02  0.91793819748E+02 0.  0.
         13    1    3    3    0    0  0.20792424526E+02  0.16523798931E+02  0.26609439337E+02  0.37595668296E+02  0.10566000000E+00 0. -1.
         22    1    1    0    0    0 -0.47998416818E+01 -0.32939957487E+01  0.28201001049E+02  0.28795578624E+02  0.00000000000E+00 0.  1.
</event>
<event>
 5    1  0.1285375E-004  0.9118800E+02  0.7818608E-02  0.1130116E+00
         25   -1    0    0    0    0  0.00000000000E+00  0.00000000000E+00  0.99999998245E-14  0.12500000000E+03  0.12500000000E+03 0.  0.
        -13    1    3    3    0    0  0.59974441426E+02 -0.45168184297E+01 -0.15215745525E+02  0.62039224278E+02  0.10566000000E+00 0. -1.
         23    2    1    0    0    0  0.26818512225E+02 -0.71607005359E+01 -0.84779695299E+01  0.95976144338E+02  0.91482435935E+02 0.  0.
         13    1    3    3    0    0 -0.33155929201E+02 -0.26438821062E+01  0.67377759951E+01  0.33936920060E+02  0.10566000000E+00 0.  1.
         22    1    1    0    0    0 -0.26818512225E+02  0.71607005359E+01  0.84779695299E+01  0.29023855662E+02  0.00000000000E+00 0. -1.
</event>
<event>
 5    1  0.1285375E-004  0.9118800E+02  0.7818608E-02  0.1130116E+00
         25   -1    0    0    0    0  0.00000000000E+00  0.00000000000E+00  0.99999998245E-14  0.12500000000E+03  0.12500000000E+03 0.  0.
        -13    1    3    3    0    0  0.59778230104E+02 -0.70413085618E+01  0.23056576099E+01  0.60235737247E+02  0.10566000000E+00 0. -1.
         23    2    1    0    0    0  0.35672995976E+02 -0.11464406540E+02  0.10516056021E+02  0.86082360124E+02  0.76782745660E+02 0.  0.
         13    1    3    3    0    0 -0.24105234127E+02 -0.44230979782E+01  0.82103984112E+01  0.25846622877E+02  0.10566000000E+00 0.  1.
         22    1    1    0    0    0 -0.35672995976E+02  0.11464406540E+02 -0.10516056021E+02  0.38917639876E+02  0.00000000000E+00 0. -1.
</event>
<event>
 5    1  0.1285375E-004  0.9118800E+02  0.7818608E-02  0.1130116E+00
         25   -1    0    0    0    0  0.00000000000E+00  0.00000000000E+00  0.99999998245E-14  0.12500000000E+03  0.12500000000E+03 0.  0.
        -13    1    3    3    0    0 -0.20406849867E+02 -0.20847909494E+02 -0.19473267363E+02  0.35075549284E+02  0.10566000000E+00 0. -1.
         23    2    1    0    0    0 -0.28008772287E+01  0.24385685944E+02  0.16440826569E+02  0.95456686535E+02  0.90769882857E+02 0.  0.
         13    1    3    3    0    0  0.17605972638E+02  0.45233595438E+02  0.35914093932E+02  0.60381137251E+02  0.10566000000E+00 0.  1.
         22    1    1    0    0    0  0.28008772287E+01 -0.24385685944E+02 -0.16440826569E+02  0.29543313465E+02  0.00000000000E+00 0.  1.
</event>
<event>
 5    1  0.1285375E-004  0.9118800E+02  0.7818608E-02  0.1130116E+00
         25   -1    0    0    0    0  0.00000000000E+00  0.00000000000E+00  0.99999998245E-14  0.12500000000E+03  0.12500000000E+03 0.  0.
        -13    1    3    3    0    0  0.98650341366E+01 -0.44225282059E+01  0.47230922132E+02  0.48452541974E+02  0.10566000000E+00 0.  1.
         23    2    1    0    0    0 -0.20617058771E+02 -0.13792230382E+02  0.81564612239E+01  0.98888382069E+02  0.95378695301E+02 0.  0.
         13    1    3    3    0    0 -0.30482092907E+02 -0.93697021757E+01 -0.39074460908E+02  0.50435840096E+02  0.10566000000E+00 0. -1.
         22    1    1    0    0    0  0.20617058771E+02  0.13792230382E+02 -0.81564612239E+01  0.26111617931E+02  0.00000000000E+00 0. -1.
</event>
<event>
 5    1  0.1285375E-004  0.9118800E+02  0.7818608E-02  0.1130116E+00
         25   -1    0    0    0    0  0.00000000000E+00  0.00000000000E+00  0.99999998245E-14  0.12500000000E+03  0.12500000000E+03 0.  0.
        -13    1    3    3    0    0 -0.34986391085E+02 -0.49458803257E+02  0.10357355255E+02  0.61461424916E+02  0.10566000000E+00 0.  1.
         23    2    1    0    0    0 -0.23084212757E+02 -0.19427210283E+02  0.23863222827E+01  0.94734641716E+02  0.89770041936E+02 0.  0.
         13    1    3    3    0    0  0.11902178328E+02  0.30031592975E+02 -0.79710329726E+01  0.33273216800E+02  0.10566000000E+00 0. -1.
         22    1    1    0    0    0  0.23084212757E+02  0.19427210283E+02 -0.23863222827E+01  0.30265358284E+02  0.00000000000E+00 0.  1.
</event>
<event>
 5    1  0.1285375E-004  0.9118800E+02  0.7818608E-02  0.1130116E+00
         25   -1    0    0    0    0  0.00000000000E+00  0.00000000000E+00  0.99999998245E-14  0.12500000000E+03  0.12500000000E+03 0.  0.
        -13    1    3    3    0    0 -0.83786708544E+01  0.20252760136E+02  0.44330581256E+02  0.49452886842E+02  0.10566000000E+00 0.  1.
         23    2    1    0    0    0  0.20054591597E+02 -0.74724016780E+01  0.13961257103E+02  0.99447306779E+02  0.96108411155E+02 0.  0.
         13    1    3    3    0    0  0.28433262452E+02 -0.27725161814E+02 -0.30369324154E+02  0.49994419937E+02  0.10566000000E+00 0. -1.
         22    1    1    0    0    0 -0.20054591597E+02  0.74724016780E+01 -0.13961257103E+02  0.25552693221E+02  0.00000000000E+00 0. -1.
</event>
<event>
 5    1  0.1285375E-004  0.9118800E+02  0.7818608E-02  0.1130116E+00
         25   -1    0    0    0    0  0.00000000000E+00  0.00000000000E+00  0.99999998245E-14  0.12500000000E+03  0.12500000000E+03 0.  0.
        -13    1    3    3    0    0  0.26369117287E+02  0.18523078553E+02 -0.25760454122E+02  0.41255871657E+02  0.10566000000E+00 0.  1.
         23    2    1    0    0    0  0.35193754572E+02 -0.15122380994E+02 -0.30065358598E+02  0.76304902141E+02  0.58747132146E+02 0.  0.
         13    1    3    3    0    0  0.88246372857E+01 -0.33645459547E+02 -0.43049044763E+01  0.35049030485E+02  0.10566000000E+00 0. -1.
         22    1    1    0    0    0 -0.35193754572E+02  0.15122380994E+02  0.30065358598E+02  0.48695097859E+02  0.00000000000E+00 0.  1.
</event>
<event>
 5    1  0.1285375E-004  0.9118800E+02  0.7818608E-02  0.1130116E+00
         25   -1    0    0    0    0  0.00000000000E+00  0.00000000000E+00  0.99999998245E-14  0.12500000000E+03  0.12500000000E+03 0.  0.
        -13    1    3    3    0    0 -0.27954443210E+02  0.16882310535E+02 -0.23065844387E+02  0.39981341217E+02  0.10566000000E+00 0.  1.
         23    2    1    0    0    0  0.22184773074E+02  0.12577851018E+02  0.69381550001E+01  0.98570764533E+02  0.94961524489E+02 0.  0.
         13    1    3    3    0    0  0.50139216283E+02 -0.43044595161E+01  0.30003999387E+02  0.58589423316E+02  0.10566000000E+00 0. -1.
         22    1    1    0    0    0 -0.22184773074E+02 -0.12577851018E+02 -0.69381550001E+01  0.26429235467E+02  0.00000000000E+00 0. -1.
</event>
<event>
 5    1  0.1285375E-004  0.9118800E+02  0.7818608E-02  0.1130116E+00
         25   -1    0    0    0    0  0.00000000000E+00  0.00000000000E+00  0.99999998245E-14  0.12500000000E+03  0.12500000000E+03 0.  0.
        -13    1    3    3    0    0 -0.38652772867E+02 -0.27132654542E+02 -0.25021878672E+02  0.53444582224E+02  0.10566000000E+00 0.  1.
         23    2    1    0    0    0 -0.38889094123E+02 -0.10093603801E+02  0.13001560736E+01  0.84801332296E+02  0.74668153010E+02 0.  0.
         13    1    3    3    0    0 -0.23632125581E+00  0.17039050740E+02  0.26322034746E+02  0.31356750072E+02  0.10566000000E+00 0. -1.
         22    1    1    0    0    0  0.38889094123E+02  0.10093603801E+02 -0.13001560736E+01  0.40198667704E+02  0.00000000000E+00 0.  1.
</event>
<event>
 5    1  0.1285375E-004  0.9118800E+02  0.7818608E-02  0.1130116E+00
         25   -1    0    0    0    0  0.00000000000E+00  0.00000000000E+00  0.99999998245E-14  0.12500000000E+03  0.12500000000E+03 0.  0.
        -13    1    3    3    0    0 -0.33501318246E+01  0.42886688810E+02  0.17652769982E+02  0.46498633446E+02  0.10566000000E+00 0.  1.
         23    2    1    0    0    0 -0.30551549807E+02  0.96692790604E+01  0.15280522254E+02  0.89498077327E+02  0.82155458319E+02 0.  0.
         13    1    3    3    0    0 -0.27201417982E+02 -0.33217409749E+02 -0.23722477284E+01  0.42999443880E+02  0.10566000000E+00 0. -1.
         22    1    1    0    0    0  0.30551549807E+02 -0.96692790604E+01 -0.15280522254E+02  0.35501922673E+02  0.00000000000E+00 0.  1.
</event>
<event>
 5    1  0.1285375E-004  0.9118800E+02  0.7818608E-02  0.1130116E+00
         25   -1    0    0    0    0  0.00000000000E+00  0.00000000000E+00  0.99999998245E-14  0.12500000000E+03  0.12500000000E+03 0.  0.
        -13    1    3    3    0    0  0.79998653072E+01  0.31603356578E+02  0.67840308827E+01  0.33298712152E+02  0.10566000000E+00 0.  1.
         23    2    1    0    0    0 -0.23136548592E+02 -0.10031048887E+02 -0.20943106813E+02  0.92219891008E+02  0.86197289703E+02 0.  0.
         13    1    3    3    0    0 -0.31136413899E+02 -0.41634405466E+02 -0.27727137696E+02  0.58921178856E+02  0.10566000000E+00 0. -1.
         22    1    1    0    0    0  0.23136548592E+02  0.10031048887E+02  0.20943106813E+02  0.32780108992E+02  0.00000000000E+00 0. -1.
</event>
<event>
 5    1  0.1285375E-004  0.9118800E+02  0.7818608E-02  0.1130116E+00
         25   -1    0    0    0    0  0.00000000000E+00  0.00000000000E+00  0.99999998245E-14  0.12500000000E+03  0.12500000000E+03 0.  0.
        -13    1    3    3    0    0 -0.28798277774E+02  0.26763575665E+02  0.44994162993E+02  0.59750444790E+02  0.10566000000E+00 0.  1.
         23    2    1    0    0    0 -0.24874087715E+02  0.16538514387E+02  0.15219447518E+02  0.91475765772E+02  0.85111347322E+02 0.  0.
         13    1    3    3    0    0  0.39241900582E+01 -0.10225061278E+02 -0.29774715475E+02  0.31725320982E+02  0.10566000000E+00 0. -1.
         22    1    1    0    0    0  0.24874087715E+02 -0.16538514387E+02 -0.15219447518E+02  0.33524234228E+02  0.00000000000E+00 0.  1.
</event>
<event>
 5    1  0.1285375E-004  0.9118800E+02  0.7818608E-02  0.1130116E+00
         25   -1    0    0    0    0  0.00000000000E+00  0.00000000000E+00  0.99999998245E-14  0.12500000000E+03  0.12500000000E+03 0.  0.
        -13    1    3    3    0    0  0.13916133503E+01 -0.35143516298E+02 -0.29598295928E+00  0.35172462175E+02  0.10566000000E+00 0. -1.
         23    2    1    0    0    0 -0.23928159445E+01  0.22147228153E+02 -0.19170206644E+02  0.95610850544E+02  0.90981935767E+02 0.  0.
         13    1    3    3    0    0 -0.37844292948E+01  0.57290744451E+02 -0.18874223684E+02  0.60438388368E+02  0.10566000000E+00 0.  1.
         22    1    1    0    0    0  0.23928159445E+01 -0.22147228153E+02  0.19170206644E+02  0.29389149456E+02  0.00000000000E+00 0.  1.
</event>
<event>
 5    1  0.1285375E-004  0.9118800E+02  0.7818608E-02  0.1130116E+00
         25   -1    0    0    0    0  0.00000000000E+00  0.00000000000E+00  0.99999998245E-14  0.12500000000E+03  0.12500000000E+03 0.  0.
        -13    1    3    3    0    0 -0.51910860408E+02  0.63185380124E+01 -0.15168851327E+02  0.54449670022E+02  0.10566000000E+00 0.  1.
         23    2    1    0    0    0 -0.11521879141E+02  0.18971626353E+02 -0.17345187278E+02  0.96830303035E+02  0.92642192109E+02 0.  0.
         13    1    3    3    0    0  0.40388981267E+02  0.12653088341E+02 -0.21763359506E+01  0.42380633013E+02  0.10566000000E+00 0. -1.
         22    1    1    0    0    0  0.11521879141E+02 -0.18971626353E+02  0.17345187278E+02  0.28169696965E+02  0.00000000000E+00 0.  1.
</event>
<event>
 5    1  0.1285375E-004  0.9118800E+02  0.7818608E-02  0.1130116E+00
         25   -1    0    0    0    0  0.00000000000E+00  0.00000000000E+00  0.99999998245E-14  0.12500000000E+03  0.12500000000E+03 0.  0.
        -13    1    3    3    0    0  0.46063567818E+01 -0.40970463133E+02  0.16820047536E+02  0.44527772629E+02  0.10566000000E+00 0.  1.
         23    2    1    0    0    0 -0.29234061375E+02 -0.57710818154E+01  0.47502983901E+01  0.94825489820E+02  0.89896454074E+02 0.  0.
         13    1    3    3    0    0 -0.33840418157E+02  0.35199381318E+02 -0.12069749146E+02  0.50297717191E+02  0.10566000000E+00 0. -1.
         22    1    1    0    0    0  0.29234061375E+02  0.57710818154E+01 -0.47502983901E+01  0.30174510180E+02  0.00000000000E+00 0. -1.
</event>
<event>
 5    1  0.1285375E-004  0.9118800E+02  0.7818608E-02  0.1130116E+00
         25   -1    0    0    0    0  0.00000000000E+00  0.00000000000E+00  0.99999998245E-14  0.12500000000E+03  0.12500000000E+03 0.  0.
        -13    1    3    3    0    0 -0.70451301265E+01  0.68411210302E+01 -0.35722952378E+02  0.37048283173E+02  0.10566000000E+00 0.  1.
         23    2    1    0    0    0 -0.18737545892E+02  0.26185233991E+01  0.21935899449E+02  0.96032156182E+02  0.91558937552E+02 0.  0.
         13    1    3    3    0    0 -0.11692415765E+02 -0.42225976311E+01  0.57658851826E+02  0.58983873009E+02  0.10566000000E+00 0. -1.
         22    1    1    0    0    0  0.18737545892E+02 -0.26185233991E+01 -0.21935899449E+02  0.28967843818E+02  0.00000000000E+00 0. -1.
</event>
<event>
 5    1  0.1285375E-004  0.9118800E+02  0.7818608E-02  0.1130116E+00
         25   -1    0    0    0    0  0.00000000000E+00  0.00000000000E+00  0.99999998245E-14  0.12500000000E+03  0.12500000000E+03 0.  0.
        -13    1    3    3    0    0 -0.24578661508E+02 -0.25636764160E+02 -0.16475802918E+02  0.39151213569E+02  0.10566000000E+00 0.  1.
         23    2    1    0    0    0  0.67224019217E+01 -0.11071367541E+02  0.27229146785E+02  0.94847184187E+02  0.89926614785E+02 0.  0.
         13    1    3    3    0    0  0.31301063430E+02  0.14565396619E+02  0.43704949703E+02  0.55695970618E+02  0.10566000000E+00 0. -1.
         22    1    1    0    0    0 -0.67224019217E+01  0.11071367541E+02 -0.27229146785E+02  0.30152815813E+02  0.00000000000E+00 0. -1.
</event>
<event>
 5    1  0.1285375E-004  0.9118800E+02  0.7818608E-02  0.1130116E+00
         25   -1    0    0    0    0  0.00000000000E+00  0.00000000000E+00  0.99999998245E-14  0.12500000000E+03  0.12500000000E+03 0.  0.
        -13    1    3    3    0    0 -0.35285448903E+02  0.33043623444E+02  0.61690094920E+00  0.48345999684E+02  0.10566000000E+00 0.  1.
         23    2    1    0    0    0 -0.26229320496E+01  0.18361684654E+02  0.26587031440E+02  0.92582389405E+02  0.86721377706E+02 0.  0.
         13    1    3    3    0    0  0.32662516853E+02 -0.14681938789E+02  0.25970130491E+02  0.44236389721E+02  0.10566000000E+00 0. -1.
         22    1    1    0    0    0  0.26229320496E+01 -0.18361684654E+02 -0.26587031440E+02  0.32417610595E+02  0.00000000000E+00 0.  1.
</event>
<event>
 5    1  0.1285375E-004  0.9118800E+02  0.7818608E-02  0.1130116E+00
         25   -1    0    0    0    0  0.00000000000E+00  0.00000000000E+00  0.99999998245E-14  0.12500000000E+03  0.12500000000E+03 0.  0.
        -13    1    3    3    0    0  0.51694961424E+01 -0.24286271369E+02 -0.24407924210E+02  0.34818164737E+02  0.10566000000E+00 0.  1.
         23    2    1    0    0    0 -0.16049803427E+02  0.92759074327E+01  0.22220217270E+02  0.96062538047E+02  0.91600406722E+02 0.  0.
         13    1    3    3    0    0 -0.21219299570E+02  0.33562178802E+02  0.46628141480E+02  0.61244373310E+02  0.10566000000E+00 0. -1.
         22    1    1    0    0    0  0.16049803427E+02 -0.92759074327E+01 -0.22220217270E+02  0.28937461953E+02  0.00000000000E+00 0. -1.
</event>
<event>
 5    1  0.1285375E-004  0.9118800E+02  0.7818608E-02  0.1130116E+00
         25   -1    0    0    0    0  0.00000000000E+00  0.00000000000E+00  0.99999998245E-14  0.12500000000E+03  0.12500000000E+03 0.  0.
        -13    1    3    3    0    0  0.12119823009E+02 -0.93088571003E+01 -0.33397775090E+02  0.36728292572E+02  0.10566000000E+00 0.  1.
         23    2    1    0    0    0 -0.28197929716E+02 -0.54221081115E+00  0.85123532806E+01  0.95540241155E+02  0.90884873816E+02 0.  0.
         13    1    3    3    0    0 -0.40317752725E+02  0.87666462892E+01  0.41910128370E+02  0.58811948582E+02  0.10566000000E+00 0. -1.
         22    1    1    0    0    0  0.28197929716E+02  0.54221081115E+00 -0.85123532806E+01  0.29459758845E+02  0.00000000000E+00 0. -1.
</event>
<event>
 5    1  0.1285375E-004  0.9118800E+02  0.7818608E-02  0.1130116E+00
         25   -1    0    0    0    0  0.00000000000E+00  0.00000000000E+00  0.99999998245E-14  0.12500000000E+03  0.12500000000E+03 0.  0.
        -13    1    3    3    0    0 -0.23158930591E+02 -0.21344161373E+02 -0.20745124221E+02  0.37713136091E+02  0.10566000000E+00 0. -1.
         23    2    1    0    0    0  0.61986231139E+01  0.27285230614E+02 -0.66146042240E+01  0.96248309142E+02  0.91853564359E+02 0.  0.
         13    1    3    3    0    0  0.29357553705E+02  0.48629391987E+02  0.14130519997E+02  0.58535173050E+02  0.10566000000E+00 0.  1.
         22    1    1    0    0    0 -0.61986231139E+01 -0.27285230614E+02  0.66146042240E+01  0.28751690858E+02  0.00000000000E+00 0.  1.
</event>
<event>
 5    1  0.1285375E-004  0.9118800E+02  0.7818608E-02  0.1130116E+00
         25   -1    0    0    0    0  0.00000000000E+00  0.00000000000E+00  0.99999998245E-14  0.12500000000E+03  0.12500000000E+03 0.  0.
        -13    1    3    3    0    0 -0.33774040622E+02  0.18667785750E+02  0.33765747271E+02  0.51276787122E+02  0.10566000000E+00 0. -1.
         23    2    1    0    0    0 -0.41997661474E+02  0.78699967470E+01  0.64388865383E+01  0.81788894045E+02  0.69442231467E+02 0.  0.
         13    1    3    3    0    0 -0.82236208519E+01 -0.10797789003E+02 -0.27326860733E+02  0.30512106922E+02  0.10566000000E+00 0.  1.
         22    1    1    0    0    0  0.41997661474E+02 -0.78699967470E+01 -0.64388865383E+01  0.43211105955E+02  0.00000000000E+00 0. -1.
</event>
<event>
 5    1  0.1285375E-004  0.9118800E+02  0.7818608E-02  0.1130116E+00
         25   -1    0    0    0    0  0.00000000000E+00  0.00000000000E+00  0.99999998245E-14  0.12500000000E+03  0.12500000000E+03 0.  0.
        -13    1    3    3    0    0 -0.20348094279E+02  0.22773907142E+02 -0.69101496872E+01  0.31312251916E+02  0.10566000000E+00 0.  1.
         23    2    1    0    0    0  0.13130337772E+02 -0.24726274931E+02 -0.19638517008E+02  0.90802546992E+02  0.84116804195E+02 0.  0.
         13    1    3    3    0    0  0.33478432051E+02 -0.47500182073E+02 -0.12728367321E+02  0.59490295076E+02  0.10566000000E+00 0. -1.
         22    1    1    0    0    0 -0.13130337772E+02  0.24726274931E+02  0.19638517008E+02  0.34197453008E+02  0.00000000000E+00 0. -1.
</event>
<event>
 5    1  0.1285375E-004  0.9118800E+02  0.7818608E-02  0.1130116E+00
         25   -1    0    0    0    0  0.00000000000E+00  0.00000000000E+00  0.99999998245E-14  0.12500000000E+03  0.12500000000E+03 0.  0.
        -13    1    3    3    0    0 -0.10481289567E+02 -0.16413419316E+02  0.30393890568E+02  0.36097887923E+02  0.10566000000E+00 0.  1.
         23    2    1    0    0    0 -0.41171851903E+01  0.23479884033E+02 -0.14977010240E+02  0.96847433442E+02  0.92665302894E+02 0.  0.
         13    1    3    3    0    0  0.63641043768E+01  0.39893303349E+02 -0.45370900808E+02  0.60749545519E+02  0.10566000000E+00 0. -1.
         22    1    1    0    0    0  0.41171851903E+01 -0.23479884033E+02  0.14977010240E+02  0.28152566558E+02  0.00000000000E+00 0. -1.
</event>
<event>
 5    1  0.1285375E-004  0.9118800E+02  0.7818608E-02  0.1130116E+00
         25   -1    0    0    0    0  0.00000000000E+00  0.00000000000E+00  0.99999998245E-14  0.12500000000E+03  0.12500000000E+03 0.  0.
        -13    1    3    3    0    0 -0.37242777126E+02  0.46422804044E+02  0.13037710250E+02  0.60926958204E+02  0.10566000000E+00 0.  1.
         23    2    1    0    0    0 -0.23776292367E+02  0.14997167190E+02  0.96270504473E+01  0.95286245563E+02  0.90534862847E+02 0.  0.
         13    1    3    3    0    0  0.13466484758E+02 -0.31425636855E+02 -0.34106598031E+01  0.34359287359E+02  0.10566000000E+00 0. -1.
         22    1    1    0    0    0  0.23776292367E+02 -0.14997167190E+02 -0.96270504473E+01  0.29713754437E+02  0.00000000000E+00 0.  1.
</event>
<event>
 5    1  0.1285375E-004  0.9118800E+02  0.7818608E-02  0.1130116E+00
         25   -1    0    0    0    0  0.00000000000E+00  0.00000000000E+00  0.99999998245E-14  0.12500000000E+03  0.12500000000E+03 0.  0.
        -13    1    3    3    0    0 -0.42875187922E+02 -0.34332917708E+02  0.19759356494E+02  0.58373575450E+02  0.10566000000E+00 0. -1.
         23    2    1    0    0    0 -0.60739260223E+01 -0.22429108674E+02  0.14995493656E+02  0.97344578774E+02  0.93333513238E+02 0.  0.
         13    1    3    3    0    0  0.36801261899E+02  0.11903809034E+02 -0.47638628388E+01  0.38971003324E+02  0.10566000000E+00 0.  1.
         22    1    1    0    0    0  0.60739260223E+01  0.22429108674E+02 -0.14995493656E+02  0.27655421226E+02  0.00000000000E+00 0. -1.
</event>
<event>
 5    1  0.1285375E-004  0.9118800E+02  0.7818608E-02  0.1130116E+00
         25   -1    0    0    0    0  0.00000000000E+00  0.00000000000E+00  0.99999998245E-14  0.12500000000E+03  0.12500000000E+03 0.  0.
        -13    1    3    3    0    0 -0.13745030187E+02 -0.23412205726E+02  0.23087847701E+02  0.35638702380E+02  0.10566000000E+00 0.  1.
         23    2    1    0    0    0  0.26880320993E+02  0.80431425961E+01 -0.81666096329E+01  0.95777794190E+02  0.91211011109E+02 0.  0.
         13    1    3    3    0    0  0.40625351180E+02  0.31455348322E+02 -0.31254457334E+02  0.60139091811E+02  0.10566000000E+00 0. -1.
         22    1    1    0    0    0 -0.26880320993E+02 -0.80431425961E+01  0.81666096329E+01  0.29222205810E+02  0.00000000000E+00 0. -1.
</event>
<event>
 5    1  0.1285375E-004  0.9118800E+02  0.7818608E-02  0.1130116E+00
         25   -1    0    0    0    0  0.00000000000E+00  0.00000000000E+00  0.99999998245E-14  0.12500000000E+03  0.12500000000E+03 0.  0.
        -13    1    3    3    0    0  0.18615584468E+02  0.31740529827E+02 -0.10410259733E+02  0.38241154409E+02  0.10566000000E+00 0. -1.
         23    2    1    0    0    0 -0.27033725538E+02  0.49257004359E+01 -0.18606556099E+02  0.91814328829E+02  0.85607138763E+02 0.  0.
         13    1    3    3    0    0 -0.45649310005E+02 -0.26814829391E+02 -0.81962963658E+01  0.53573174420E+02  0.10566000000E+00 0.  1.
         22    1    1    0    0    0  0.27033725538E+02 -0.49257004359E+01  0.18606556099E+02  0.33185671171E+02  0.00000000000E+00 0.  1.
</event>
<event>
 5    1  0.1285375E-004  0.9118800E+02  0.7818608E-02  0.1130116E+00
         25   -1    0    0    0    0  0.00000000000E+00  0.00000000000E+00  0.99999998245E-14  0.12500000000E+03  0.12500000000E+03 0.  0.
        -13    1    3    3    0    0  0.41881383130E+01  0.89119612869E+01  0.41838189239E+02  0.42981493684E+02  0.10566000000E+00 0.  1.
         23    2    1    0    0    0  0.24115129692E+02 -0.18344967545E+02  0.28369136339E+01  0.94567691621E+02  0.89537271040E+02 0.  0.
         13    1    3    3    0    0  0.19926991379E+02 -0.27256928832E+02 -0.39001275605E+02  0.51586197937E+02  0.10566000000E+00 0. -1.
         22    1    1    0    0    0 -0.24115129692E+02  0.18344967545E+02 -0.28369136339E+01  0.30432308379E+02  0.00000000000E+00 0.  1.
</event>
<event>
 5    1  0.1285375E-004  0.9118800E+02  0.7818608E-02  0.1130116E+00
         25   -1    0    0    0    0  0.00000000000E+00  0.00000000000E+00  0.99999998245E-14  0.12500000000E+03  0.12500000000E+03 0.  0.
        -13    1    3    3    0    0 -0.91978147263E+01  0.31717277703E+02  0.26789023945E+02  0.42523504895E+02  0.10566000000E+00 0. -1.
         23    2    1    0    0    0  0.29741554977E+01  0.17330704306E+02 -0.23166773376E+02  0.95915669145E+02  0.91399766335E+02 0.  0.
         13    1    3    3    0    0  0.12171970224E+02 -0.14386573397E+02 -0.49955797321E+02  0.53392164249E+02  0.10566000000E+00 0.  1.
         22    1    1    0    0    0 -0.29741554977E+01 -0.17330704306E+02  0.23166773376E+02  0.29084330855E+02  0.00000000000E+00 0.  1.
</event>
<event>
 5    1  0.1285375E-004  0.9118800E+02  0.7818608E-02  0.1130116E+00
         25   -1    0    0    0    0  0.00000000000E+00  0.00000000000E+00  0.99999998245E-14  0.12500000000E+03  0.12500000000E+03 0.  0.
        -13    1    3    3    0    0 -0.12447023476E+02  0.30754263423E+02 -0.37848096496E+02  0.50331329056E+02  0.10566000000E+00 0. -1.
         23    2    1    0    0    0  0.10237294661E+02 -0.80950254961E+01 -0.24472469315E+02  0.97264942868E+02  0.93226797204E+02 0.  0.
         13    1    3    3    0    0  0.22684318137E+02 -0.38849288920E+02  0.13375627181E+02  0.46933613811E+02  0.10566000000E+00 0.  1.
         22    1    1    0    0    0 -0.10237294661E+02  0.80950254961E+01  0.24472469315E+02  0.27735057132E+02  0.00000000000E+00 0. -1.
</event>
<event>
 5    1  0.1285375E-004  0.9118800E+02  0.7818608E-02  0.1130116E+00
         25   -1    0    0    0    0  0.00000000000E+00  0.00000000000E+00  0.99999998245E-14  0.12500000000E+03  0.12500000000E+03 0.  0.
        -13    1    3    3    0    0 -0.20507667968E+00 -0.62806666366E+01 -0.35281684163E+02  0.35837092952E+02  0.10566000000E+00 0. -1.
         23    2    1    0    0    0  0.12394993635E+02  0.23203976125E+02  0.14432036793E+02  0.94994266194E+02  0.90130830178E+02 0.  0.
         13    1    3    3    0    0  0.12600070315E+02  0.29484642762E+02  0.49713720956E+02  0.59157173242E+02  0.10566000000E+00 0.  1.
         22    1    1    0    0    0 -0.12394993635E+02 -0.23203976125E+02 -0.14432036793E+02  0.30005733806E+02  0.00000000000E+00 0.  1.
</event>
<event>
 5    1  0.1285375E-004  0.9118800E+02  0.7818608E-02  0.1130116E+00
         25   -1    0    0    0    0  0.00000000000E+00  0.00000000000E+00  0.99999998245E-14  0.12500000000E+03  0.12500000000E+03 0.  0.
        -13    1    3    3    0    0 -0.15487235452E+02 -0.38738037770E+01  0.31086718621E+02  0.34946474162E+02  0.10566000000E+00 0. -1.
         23    2    1    0    0    0  0.14822721271E+02  0.22848113583E+02 -0.13061466320E+02  0.94794847085E+02  0.89853835596E+02 0.  0.
         13    1    3    3    0    0  0.30309956723E+02  0.26721917360E+02 -0.44148184942E+02  0.59848372924E+02  0.10566000000E+00 0.  1.
         22    1    1    0    0    0 -0.14822721271E+02 -0.22848113583E+02  0.13061466320E+02  0.30205152915E+02  0.00000000000E+00 0.  1.
</event>
<event>
 5    1  0.1285375E-004  0.9118800E+02  0.7818608E-02  0.1130116E+00
         25   -1    0    0    0    0  0.00000000000E+00  0.00000000000E+00  0.99999998245E-14  0.12500000000E+03  0.12500000000E+03 0.  0.
        -13    1    3    3    0    0 -0.32008083922E+02 -0.52114036903E+01  0.23393441993E+01  0.32513994835E+02  0.10566000000E+00 0. -1.
         23    2    1    0    0    0  0.10310420794E+02  0.23998597784E+02 -0.23323186438E+02  0.89982739996E+02  0.82889595239E+02 0.  0.
         13    1    3    3    0    0  0.42318504717E+02  0.29210001475E+02 -0.25662530638E+02  0.57468745161E+02  0.10566000000E+00 0.  1.
         22    1    1    0    0    0 -0.10310420794E+02 -0.23998597784E+02  0.23323186438E+02  0.35017260004E+02  0.00000000000E+00 0.  1.
</event>
<event>
 5    1  0.1285375E-004  0.9118800E+02  0.7818608E-02  0.1130116E+00
         25   -1    0    0    0    0  0.00000000000E+00  0.00000000000E+00  0.99999998245E-14  0.12500000000E+03  0.12500000000E+03 0.  0.
        -13    1    3    3    0    0  0.17351807382E+02 -0.41868243319E+02 -0.84335775233E+01  0.46099581472E+02  0.10566000000E+00 0.  1.
         23    2    1    0    0    0 -0.24304123302E+02 -0.13017029555E+02 -0.24669037432E+00  0.97428378283E+02  0.93445677112E+02 0.  0.
         13    1    3    3    0    0 -0.41655930684E+02  0.28851213764E+02  0.81868871490E+01  0.51328796811E+02  0.10566000000E+00 0. -1.
         22    1    1    0    0    0  0.24304123302E+02  0.13017029555E+02  0.24669037432E+00  0.27571621717E+02  0.00000000000E+00 0. -1.
</event>
<event>
 5    1  0.1285375E-004  0.9118800E+02  0.7818608E-02  0.1130116E+00
         25   -1    0    0    0    0  0.00000000000E+00  0.00000000000E+00  0.99999998245E-14  0.12500000000E+03  0.12500000000E+03 0.  0.
        -13    1    3    3    0    0 -0.12956353075E+02 -0.54414200993E+02 -0.21737240306E+02  0.60010758492E+02  0.10566000000E+00 0. -1.
         23    2    1    0    0    0  0.47011727336E+01 -0.28687216266E+02 -0.16260136183E+02  0.91691601196E+02  0.85427748999E+02 0.  0.
         13    1    3    3    0    0  0.17657525809E+02  0.25726984727E+02  0.54771041226E+01  0.31680842704E+02  0.10566000000E+00 0.  1.
         22    1    1    0    0    0 -0.47011727336E+01  0.28687216266E+02  0.16260136183E+02  0.33308398804E+02  0.00000000000E+00 0. -1.
</event>
<event>
 5    1  0.1285375E-004  0.9118800E+02  0.7818608E-02  0.1130116E+00
         25   -1    0    0    0    0  0.00000000000E+00  0.00000000000E+00  0.99999998245E-14  0.12500000000E+03  0.12500000000E+03 0.  0.
        -13    1    3    3    0    0  0.42120963658E+02  0.25720487912E+02 -0.47937521377E+01  0.49585383950E+02  0.10566000000E+00 0. -1.
         23    2    1    0    0    0  0.25231681198E+02 -0.16218672252E+02 -0.49997287671E+00  0.95001116044E+02  0.90140329548E+02 0.  0.
         13    1    3    3    0    0 -0.16889282460E+02 -0.41939160164E+02  0.42937792610E+01  0.45415732094E+02  0.10566000000E+00 0.  1.
         22    1    1    0    0    0 -0.25231681198E+02  0.16218672252E+02  0.49997287671E+00  0.29998883956E+02  0.00000000000E+00 0. -1.
</event>
<event>
 5    1  0.1285375E-004  0.9118800E+02  0.7818608E-02  0.1130116E+00
         25   -1    0    0    0    0  0.00000000000E+00  0.00000000000E+00  0.99999998245E-14  0.12500000000E+03  0.12500000000E+03 0.  0.
        -13    1    3    3    0    0  0.21865954016E+02  0.16930756915E+02 -0.22406056314E+02  0.35592316563E+02  0.10566000000E+00 0.  1.
         23    2    1    0    0    0 -0.71068897697E+01 -0.28544168394E+02  0.34341109930E+01  0.95384623085E+02  0.90670589340E+02 0.  0.
         13    1    3    3    0    0 -0.28972843785E+02 -0.45474925308E+02  0.25840167307E+02  0.59792306523E+02  0.10566000000E+00 0. -1.
         22    1    1    0    0    0  0.71068897697E+01  0.28544168394E+02 -0.34341109930E+01  0.29615376915E+02  0.00000000000E+00 0. -1.
</event>
<event>
 5    1  0.1285375E-004  0.9118800E+02  0.7818608E-02  0.1130116E+00
         25   -1    0    0    0    0  0.00000000000E+00  0.00000000000E+00  0.99999998245E-14  0.12500000000E+03  0.12500000000E+03 0.  0.
        -13    1    3    3    0    0 -0.51606502410E+02  0.17150131272E+02 -0.26017886562E+02  0.60285153055E+02  0.10566000000E+00 0.  1.
         23    2    1    0    0    0 -0.28836794071E+02 -0.10624072066E+01 -0.63582555409E+01  0.95451449868E+02  0.90762671110E+02 0.  0.
         13    1    3    3    0    0  0.22769708339E+02 -0.18212538479E+02  0.19659631021E+02  0.35166296814E+02  0.10566000000E+00 0. -1.
         22    1    1    0    0    0  0.28836794071E+02  0.10624072066E+01  0.63582555409E+01  0.29548550132E+02  0.00000000000E+00 0.  1.
</event>
<event>
 5    1  0.1285375E-004  0.9118800E+02  0.7818608E-02  0.1130116E+00
         25   -1    0    0    0    0  0.00000000000E+00  0.00000000000E+00  0.99999998245E-14  0.12500000000E+03  0.12500000000E+03 0.  0.
        -13    1    3    3    0    0 -0.15098103557E+01 -0.17908383054E+01  0.42826053209E+02  0.42890192663E+02  0.10566000000E+00 0. -1.
         23    2    1    0    0    0  0.24434475324E+01 -0.30873083240E+02  0.96479010590E+00  0.94015350179E+02  0.88762816228E+02 0.  0.
         13    1    3    3    0    0  0.39532578881E+01 -0.29082244935E+02 -0.41861263103E+02  0.51125157516E+02  0.10566000000E+00 0.  1.
         22    1    1    0    0    0 -0.24434475324E+01  0.30873083240E+02 -0.96479010590E+00  0.30984649821E+02  0.00000000000E+00 0.  1.
</event>
<event>
 5    1  0.1285375E-004  0.9118800E+02  0.7818608E-02  0.1130116E+00
         25   -1    0    0    0    0  0.00000000000E+00  0.00000000000E+00  0.99999998245E-14  0.12500000000E+03  0.12500000000E+03 0.  0.
        -13    1    3    3    0    0 -0.84983736090E+01 -0.51696864384E+02 -0.97187055019E+01  0.53284637015E+02  0.10566000000E+00 0. -1.
         23    2    1    0    0    0  0.16693850973E+02 -0.23868851928E+02  0.80001939585E+01  0.94793877176E+02  0.89852486299E+02 0.  0.
         13    1    3    3    0    0  0.25192224582E+02  0.27828012456E+02  0.17718899460E+02  0.41509240161E+02  0.10566000000E+00 0.  1.
         22    1    1    0    0    0 -0.16693850973E+02  0.23868851928E+02 -0.80001939585E+01  0.30206122824E+02  0.00000000000E+00 0. -1.
</event>
<event>
 5    1  0.1285375E-004  0.9118800E+02  0.7818608E-02  0.1130116E+00
         25   -1    0    0    0    0  0.00000000000E+00  0.00000000000E+00  0.99999998245E-14  0.12500000000E+03  0.12500000000E+03 0.  0.
        -13    1    3    3    0    0  0.49463887921E+02  0.14276097543E+02  0.14851468355E+02  0.53582277347E+02  0.10566000000E+00 0.  1.
         23    2    1    0    0    0  0.21187532833E+02 -0.16071792831E+02  0.13716692064E+02  0.95077404633E+02  0.90246058962E+02 0.  0.
         13    1    3    3    0    0 -0.28276355088E+02 -0.30347890373E+02 -0.11347762909E+01  0.41495127286E+02  0.10566000000E+00 0. -1.
         22    1    1    0    0    0 -0.21187532833E+02  0.16071792831E+02 -0.13716692064E+02  0.29922595367E+02  0.00000000000E+00 0.  1.
</event>
<event>
 5    1  0.1285375E-004  0.9118800E+02  0.7818608E-02  0.1130116E+00
         25   -1    0    0    0    0  0.00000000000E+00  0.00000000000E+00  0.99999998245E-14  0.12500000000E+03  0.12500000000E+03 0.  0.
        -13    1    3    3    0    0 -0.34449136971E+02 -0.34996403478E+01  0.34147906562E+01  0.34794575438E+02  0.10566000000E+00 0.  1.
         23    2    1    0    0    0  0.22863579505E+02 -0.76361692272E+01 -0.16699773643E+02  0.95675321179E+02  0.91070468840E+02 0.  0.
         13    1    3    3    0    0  0.57312716476E+02 -0.41365288794E+01 -0.20114564299E+02  0.60880745741E+02  0.10566000000E+00 0. -1.
         22    1    1    0    0    0 -0.22863579505E+02  0.76361692272E+01  0.16699773643E+02  0.29324678821E+02  0.00000000000E+00 0. -1.
</event>
<event>
 5    1  0.1285375E-004  0.9118800E+02  0.7818608E-02  0.1130116E+00
         25   -1    0    0    0    0  0.00000000000E+00  0.00000000000E+00  0.99999998245E-14  0.12500000000E+03  0.12500000000E+03 0.  0.
        -13    1    3    3    0    0  0.93947976792E+01  0.28878770457E+02  0.94611711854E+01  0.31808340585E+02  0.10566000000E+00 0.  1.
         23    2    1    0    0    0 -0.10604595907E+02 -0.28565389344E+02 -0.44540899993E+01  0.94205879775E+02  0.89030724718E+02 0.  0.
         13    1    3    3    0    0 -0.19999393587E+02 -0.57444159801E+02 -0.13915261185E+02  0.62397539190E+02  0.10566000000E+00 0. -1.
         22    1    1    0    0    0  0.10604595907E+02  0.28565389344E+02  0.44540899993E+01  0.30794120225E+02  0.00000000000E+00 0. -1.
</event>
<event>
 5    1  0.1285375E-004  0.9118800E+02  0.7818608E-02  0.1130116E+00
         25   -1    0    0    0    0  0.00000000000E+00  0.00000000000E+00  0.99999998245E-14  0.12500000000E+03  0.12500000000E+03 0.  0.
        -13    1    3    3    0    0 -0.10265936215E+02 -0.44907123878E+02  0.77504190705E+01  0.46713160685E+02  0.10566000000E+00 0.  1.
         23    2    1    0    0    0 -0.28669647728E+02  0.48438373973E+00  0.58808627731E+01  0.95729402545E+02  0.91144668721E+02 0.  0.
         13    1    3    3    0    0 -0.18403711513E+02  0.45391507618E+02 -0.18695562974E+01  0.49016241860E+02  0.10566000000E+00 0. -1.
         22    1    1    0    0    0  0.28669647728E+02 -0.48438373973E+00 -0.58808627731E+01  0.29270597455E+02  0.00000000000E+00 0.  1.
</event>
<event>
 5    1  0.1285375E-004  0.9118800E+02  0.7818608E-02  0.1130116E+00
         25   -1    0    0    0    0  0.00000000000E+00  0.00000000000E+00  0.99999998245E-14  0.12500000000E+03  0.12500000000E+03 0.  0.
        -13    1    3    3    0    0  0.18993592332E+02 -0.31861594175E+02  0.15680021549E+02  0.40271478405E+02  0.10566000000E+00 0. -1.
         23    2    1    0    0    0 -0.26181601151E+02 -0.69858203803E+01 -0.76042705909E+01  0.96855678078E+02  0.92676423752E+02 0.  0.
         13    1    3    3    0    0 -0.45175193484E+02  0.24875773795E+02 -0.23284292140E+02  0.56584199673E+02  0.10566000000E+00 0.  1.
         22    1    1    0    0    0  0.26181601151E+02  0.69858203803E+01  0.76042705909E+01  0.28144321922E+02  0.00000000000E+00 0.  1.
</event>
<event>
 5    1  0.1285375E-004  0.9118800E+02  0.7818608E-02  0.1130116E+00
         25   -1    0    0    0    0  0.00000000000E+00  0.00000000000E+00  0.99999998245E-14  0.12500000000E+03  0.12500000000E+03 0.  0.
        -13    1    3    3    0    0  0.84074667084E+01  0.46572348476E+02  0.32179114428E+02  0.57229150862E+02  0.10566000000E+00 0. -1.
         23    2    1    0    0    0 -0.10404882778E+02  0.28146825157E+02  0.59279364692E+01  0.94411672441E+02  0.89319192284E+02 0.  0.
         13    1    3    3    0    0 -0.18812349486E+02 -0.18425523319E+02 -0.26251177958E+02  0.37182521579E+02  0.10566000000E+00 0.  1.
         22    1    1    0    0    0  0.10404882778E+02 -0.28146825157E+02 -0.59279364692E+01  0.30588327559E+02  0.00000000000E+00 0. -1.
</event>
<event>
 5    1  0.1285375E-004  0.9118800E+02  0.7818608E-02  0.1130116E+00
         25   -1    0    0    0    0  0.00000000000E+00  0.00000000000E+00  0.99999998245E-14  0.12500000000E+03  0.12500000000E+03 0.  0.
        -13    1    3    3    0    0  0.22151270484E+02  0.23661409623E+02  0.52497051026E+01  0.32834610659E+02  0.10566000000E+00 0.  1.
         23    2    1    0    0    0 -0.22187376284E+02 -0.66431277108E+01 -0.21998495816E+02  0.93057166214E+02  0.87403040870E+02 0.  0.
         13    1    3    3    0    0 -0.44338646768E+02 -0.30304537334E+02 -0.27248200918E+02  0.60222555555E+02  0.10566000000E+00 0. -1.
         22    1    1    0    0    0  0.22187376284E+02  0.66431277108E+01  0.21998495816E+02  0.31942833786E+02  0.00000000000E+00 0. -1.
</event>
<event>
 5    1  0.1285375E-004  0.9118800E+02  0.7818608E-02  0.1130116E+00
         25   -1    0    0    0    0  0.00000000000E+00  0.00000000000E+00  0.99999998245E-14  0.12500000000E+03  0.12500000000E+03 0.  0.
        -13    1    3    3    0    0 -0.12427591145E+02 -0.32242038130E+02 -0.51550976590E+02  0.62060522040E+02  0.10566000000E+00 0. -1.
         23    2    1    0    0    0 -0.12628216105E+01 -0.13423429091E+02 -0.26088721051E+02  0.95633275071E+02  0.91012739590E+02 0.  0.
         13    1    3    3    0    0  0.11164769535E+02  0.18818609038E+02  0.25462255539E+02  0.33572753031E+02  0.10566000000E+00 0.  1.
         22    1    1    0    0    0  0.12628216105E+01  0.13423429091E+02  0.26088721051E+02  0.29366724929E+02  0.00000000000E+00 0. -1.
</event>
<event>
 5    1  0.1285375E-004  0.9118800E+02  0.7818608E-02  0.1130116E+00
         25   -1    0    0    0    0  0.00000000000E+00  0.00000000000E+00  0.99999998245E-14  0.12500000000E+03  0.12500000000E+03 0.  0.
        -13    1    3    3    0    0 -0.29511287046E+02  0.27385902509E+02  0.50724223163E+01  0.40578865824E+02  0.10566000000E+00 0.  1.
         23    2    1    0    0    0  0.17821255604E+02  0.31780569343E+01 -0.18839628615E+02  0.98872833994E+02  0.95358316357E+02 0.  0.
         13    1    3    3    0    0  0.47332542650E+02 -0.24207845575E+02 -0.23912050931E+02  0.58293968169E+02  0.10566000000E+00 0. -1.
         22    1    1    0    0    0 -0.17821255604E+02 -0.31780569343E+01  0.18839628615E+02  0.26127166006E+02  0.00000000000E+00 0. -1.
</event>
<event>
 5    1  0.1285375E-004  0.9118800E+02  0.7818608E-02  0.1130116E+00
         25   -1    0    0    0    0  0.00000000000E+00  0.00000000000E+00  0.99999998245E-14  0.12500000000E+03  0.12500000000E+03 0.  0.
        -13    1    3    3    0    0  0.14314724387E+02 -0.28252839955E+02 -0.45296818922E+02  0.55271577400E+02  0.10566000000E+00 0.  1.
         23    2    1    0    0    0  0.19880783739E+02 -0.19389682934E+02 -0.51555845610E+01  0.96754904523E+02  0.92540402694E+02 0.  0.
         13    1    3    3    0    0  0.55660593520E+01  0.88631570206E+01  0.40141234361E+02  0.41483327123E+02  0.10566000000E+00 0. -1.
         22    1    1    0    0    0 -0.19880783739E+02  0.19389682934E+02  0.51555845610E+01  0.28245095477E+02  0.00000000000E+00 0.  1.
</event>
<event>
 5    1  0.1285375E-004  0.9118800E+02  0.7818608E-02  0.1130116E+00
         25   -1    0    0    0    0  0.00000000000E+00  0.00000000000E+00  0.99999998245E-14  0.12500000000E+03  0.12500000000E+03 0.  0.
        -13    1    3    3    0    0 -0.22664713030E+02  0.24615958566E+02  0.98225574933E+01  0.34873033029E+02  0.10566000000E+00 0. -1.
         23    2    1    0    0    0  0.25690436201E+02 -0.10953432372E+02 -0.48139556021E+01  0.96660092423E+02  0.92412245431E+02 0.  0.
         13    1    3    3    0    0  0.48355149232E+02 -0.35569390938E+02 -0.14636513095E+02  0.61787059394E+02  0.10566000000E+00 0.  1.
         22    1    1    0    0    0 -0.25690436201E+02  0.10953432372E+02  0.48139556021E+01  0.28339907577E+02  0.00000000000E+00 0.  1.
</event>
<event>
 5    1  0.1285375E-004  0.9118800E+02  0.7818608E-02  0.1130116E+00
         25   -1    0    0    0    0  0.00000000000E+00  0.00000000000E+00  0.99999998245E-14  0.12500000000E+03  0.12500000000E+03 0.  0.
        -13    1    3    3    0    0  0.37051975813E+02 -0.10938036738E+02  0.49653899665E+01  0.38950684472E+02  0.10566000000E+00 0. -1.
         23    2    1    0    0    0 -0.12241420935E+02 -0.21038846875E+02 -0.18456762435E+02  0.94452699891E+02  0.89376590742E+02 0.  0.
         13    1    3    3    0    0 -0.49293396748E+02 -0.10100810137E+02 -0.23422152402E+02  0.55502015419E+02  0.10566000000E+00 0.  1.
         22    1    1    0    0    0  0.12241420935E+02  0.21038846875E+02  0.18456762435E+02  0.30547300109E+02  0.00000000000E+00 0.  1.
</event>
<event>
 5    1  0.1285375E-004  0.9118800E+02  0.7818608E-02  0.1130116E+00
         25   -1    0    0    0    0  0.00000000000E+00  0.00000000000E+00  0.99999998245E-14  0.12500000000E+03  0.12500000000E+03 0.  0.
        -13    1    3    3    0    0 -0.10730315510E+02 -0.30766815656E+02  0.13030887734E+01  0.32610517030E+02  0.10566000000E+00 0. -1.
         23    2    1    0    0    0  0.17384747203E+02  0.22538078280E+02 -0.11636955115E+02  0.94249176723E+02  0.89091493313E+02 0.  0.
         13    1    3    3    0    0  0.28115062713E+02  0.53304893936E+02 -0.12940043888E+02  0.61638659693E+02  0.10566000000E+00 0.  1.
         22    1    1    0    0    0 -0.17384747203E+02 -0.22538078280E+02  0.11636955115E+02  0.30750823277E+02  0.00000000000E+00 0.  1.
</event>
<event>
 5    1  0.1285375E-004  0.9118800E+02  0.7818608E-02  0.1130116E+00
         25   -1    0    0    0    0  0.00000000000E+00  0.00000000000E+00  0.99999998245E-14  0.12500000000E+03  0.12500000000E+03 0.  0.
        -13    1    3    3    0    0 -0.24924869356E+02 -0.32406375967E+02 -0.44979822222E+02  0.60783368506E+02  0.10566000000E+00 0. -1.
         23    2    1    0    0    0 -0.11452599998E+02 -0.21973826715E+02 -0.13004494821E+02  0.97015575890E+02  0.92891840183E+02 0.  0.
         13    1    3    3    0    0  0.13472269359E+02  0.10432549252E+02  0.31975327401E+02  0.36232207385E+02  0.10566000000E+00 0.  1.
         22    1    1    0    0    0  0.11452599998E+02  0.21973826715E+02  0.13004494821E+02  0.27984424110E+02  0.00000000000E+00 0. -1.
</event>
<event>
 5    1  0.1285375E-004  0.9118800E+02  0.7818608E-02  0.1130116E+00
         25   -1    0    0    0    0  0.00000000000E+00  0.00000000000E+00  0.99999998245E-14  0.12500000000E+03  0.12500000000E+03 0.  0.
        -13    1    3    3    0    0 -0.36346951158E+02  0.47213634249E+02  0.13665128309E+02  0.61130802491E+02  0.10566000000E+00 0.  1.
         23    2    1    0    0    0 -0.18259463460E+02  0.17974338538E+02  0.14571231154E+02  0.95524491030E+02  0.90863209042E+02 0.  0.
         13    1    3    3    0    0  0.18087487698E+02 -0.29239295711E+02  0.90610284490E+00  0.34393688539E+02  0.10566000000E+00 0. -1.
         22    1    1    0    0    0  0.18259463460E+02 -0.17974338538E+02 -0.14571231154E+02  0.29475508970E+02  0.00000000000E+00 0.  1.
</event>
<event>
 5    1  0.1285375E-004  0.9118800E+02  0.7818608E-02  0.1130116E+00
         25   -1    0    0    0    0  0.00000000000E+00  0.00000000000E+00  0.99999998245E-14  0.12500000000E+03  0.12500000000E+03 0.  0.
        -13    1    3    3    0    0  0.27755659373E+02 -0.36036393493E+01 -0.12291315711E+02  0.30568782274E+02  0.10566000000E+00 0. -1.
         23    2    1    0    0    0 -0.19672512174E+02 -0.55201053365E+01  0.26266077301E+02  0.91722588518E+02  0.85473078390E+02 0.  0.
         13    1    3    3    0    0 -0.47428171547E+02 -0.19164659872E+01  0.38557393012E+02  0.61153806244E+02  0.10566000000E+00 0.  1.
         22    1    1    0    0    0  0.19672512174E+02  0.55201053365E+01 -0.26266077301E+02  0.33277411482E+02  0.00000000000E+00 0.  1.
</event>
<event>
 5    1  0.1285375E-004  0.9118800E+02  0.7818608E-02  0.1130116E+00
         25   -1    0    0    0    0  0.00000000000E+00  0.00000000000E+00  0.99999998245E-14  0.12500000000E+03  0.12500000000E+03 0.  0.
        -13    1    3    3    0    0  0.39392422354E+01  0.33253710741E+02  0.36186175420E+02  0.49302914346E+02  0.10566000000E+00 0.  1.
         23    2    1    0    0    0 -0.21492417792E+02 -0.20798323430E+01  0.19435078192E+02  0.95948803993E+02  0.91445070934E+02 0.  0.
         13    1    3    3    0    0 -0.25431660028E+02 -0.35333543084E+02 -0.16751097228E+02  0.46645889647E+02  0.10566000000E+00 0. -1.
         22    1    1    0    0    0  0.21492417792E+02  0.20798323430E+01 -0.19435078192E+02  0.29051196007E+02  0.00000000000E+00 0. -1.
</event>
<event>
 5    1  0.1285375E-004  0.9118800E+02  0.7818608E-02  0.1130116E+00
         25   -1    0    0    0    0  0.00000000000E+00  0.00000000000E+00  0.99999998245E-14  0.12500000000E+03  0.12500000000E+03 0.  0.
        -13    1    3    3    0    0 -0.41165302019E+02  0.15590667643E+02 -0.13825731494E+02  0.46139061794E+02  0.10566000000E+00 0.  1.
         23    2    1    0    0    0 -0.16956856230E+02 -0.24202870041E+02  0.21212061873E+01  0.95372083990E+02  0.90653301084E+02 0.  0.
         13    1    3    3    0    0  0.24208445790E+02 -0.39793537685E+02  0.15946937681E+02  0.49233022195E+02  0.10566000000E+00 0. -1.
         22    1    1    0    0    0  0.16956856230E+02  0.24202870041E+02 -0.21212061873E+01  0.29627916010E+02  0.00000000000E+00 0. -1.
</event>
<event>
 5    1  0.1285375E-004  0.9118800E+02  0.7818608E-02  0.1130116E+00
         25   -1    0    0    0    0  0.00000000000E+00  0.00000000000E+00  0.99999998245E-14  0.12500000000E+03  0.12500000000E+03 0.  0.
        -13    1    3    3    0    0  0.52644317252E+02  0.54745156229E+01  0.12849280126E+02  0.54465673814E+02  0.10566000000E+00 0.  1.
         23    2    1    0    0    0  0.17253334933E+02  0.23279924828E+02  0.30489893363E+00  0.96021983683E+02  0.91545048587E+02 0.  0.
         13    1    3    3    0    0 -0.35390982319E+02  0.17805409205E+02 -0.12544381192E+02  0.41556309869E+02  0.10566000000E+00 0. -1.
         22    1    1    0    0    0 -0.17253334933E+02 -0.23279924828E+02 -0.30489893363E+00  0.28978016317E+02  0.00000000000E+00 0.  1.
</event>
<event>
 5    1  0.1285375E-004  0.9118800E+02  0.7818608E-02  0.1130116E+00
         25   -1    0    0    0    0  0.00000000000E+00  0.00000000000E+00  0.99999998245E-14  0.12500000000E+03  0.12500000000E+03 0.  0.
        -13    1    3    3    0    0 -0.25253759216E+02 -0.35129379060E+02  0.11517659907E+02  0.44771567780E+02  0.10566000000E+00 0. -1.
         23    2    1    0    0    0 -0.30525329459E+02 -0.85639628345E+00 -0.17338410458E+02  0.89883769701E+02  0.82740210450E+02 0.  0.
         13    1    3    3    0    0 -0.52715702425E+01  0.34272982776E+02 -0.28856070366E+02  0.45112201921E+02  0.10566000000E+00 0.  1.
         22    1    1    0    0    0  0.30525329459E+02  0.85639628345E+00  0.17338410458E+02  0.35116230299E+02  0.00000000000E+00 0.  1.
</event>
<event>
 5    1  0.1285375E-004  0.9118800E+02  0.7818608E-02  0.1130116E+00
         25   -1    0    0    0    0  0.00000000000E+00  0.00000000000E+00  0.99999998245E-14  0.12500000000E+03  0.12500000000E+03 0.  0.
        -13    1    3    3    0    0  0.13844512113E+02 -0.36211865200E+02  0.70525981268E+01  0.39404568279E+02  0.10566000000E+00 0. -1.
         23    2    1    0    0    0 -0.23208622085E+02  0.70151101709E+01  0.14383502402E+02  0.96808918943E+02  0.92613334547E+02 0.  0.
         13    1    3    3    0    0 -0.37053134198E+02  0.43226975371E+02  0.73309042748E+01  0.57404350664E+02  0.10566000000E+00 0.  1.
         22    1    1    0    0    0  0.23208622085E+02 -0.70151101709E+01 -0.14383502402E+02  0.28191081057E+02  0.00000000000E+00 0.  1.
</event>
<event>
 5    1  0.1285375E-004  0.9118800E+02  0.7818608E-02  0.1130116E+00
         25   -1    0    0    0    0  0.00000000000E+00  0.00000000000E+00  0.99999998245E-14  0.12500000000E+03  0.12500000000E+03 0.  0.
        -13    1    3    3    0    0  0.29939611746E+02  0.27910969681E+02 -0.21049866059E+02  0.46027281097E+02  0.10566000000E+00 0. -1.
         23    2    1    0    0    0 -0.16724249884E+00 -0.10410578890E+02 -0.27881811417E+02  0.95237548307E+02  0.90467602360E+02 0.  0.
         13    1    3    3    0    0 -0.30106854245E+02 -0.38321548571E+02 -0.68319453579E+01  0.49210267209E+02  0.10566000000E+00 0.  1.
         22    1    1    0    0    0  0.16724249884E+00  0.10410578890E+02  0.27881811417E+02  0.29762451693E+02  0.00000000000E+00 0.  1.
</event>
<event>
 5    1  0.1285375E-004  0.9118800E+02  0.7818608E-02  0.1130116E+00
         25   -1    0    0    0    0  0.00000000000E+00  0.00000000000E+00  0.99999998245E-14  0.12500000000E+03  0.12500000000E+03 0.  0.
        -13    1    3    3    0    0  0.20651295861E+02 -0.10968123707E+02  0.17116532245E+02  0.28978657638E+02  0.10566000000E+00 0. -1.
         23    2    1    0    0    0 -0.13296432636E+02 -0.82284185341E+01 -0.32369148424E+02  0.89051929647E+02  0.81473814270E+02 0.  0.
         13    1    3    3    0    0 -0.33947728496E+02  0.27397051727E+01 -0.49485680669E+02  0.60073272009E+02  0.10566000000E+00 0.  1.
         22    1    1    0    0    0  0.13296432636E+02  0.82284185341E+01  0.32369148424E+02  0.35948070353E+02  0.00000000000E+00 0.  1.
</event>
<event>
 5    1  0.1285375E-004  0.9118800E+02  0.7818608E-02  0.1130116E+00
         25   -1    0    0    0    0  0.00000000000E+00  0.00000000000E+00  0.99999998245E-14  0.12500000000E+03  0.12500000000E+03 0.  0.
        -13    1    3    3    0    0  0.26145477391E+02 -0.24482440844E+02  0.46727074074E+02  0.58876196491E+02  0.10566000000E+00 0. -1.
         23    2    1    0    0    0 -0.19446206420E+01 -0.12586121135E+02  0.26840488788E+02  0.95291350871E+02  0.90541911388E+02 0.  0.
         13    1    3    3    0    0 -0.28090098033E+02  0.11896319709E+02 -0.19886585286E+02  0.36415154380E+02  0.10566000000E+00 0.  1.
         22    1    1    0    0    0  0.19446206420E+01  0.12586121135E+02 -0.26840488788E+02  0.29708649129E+02  0.00000000000E+00 0. -1.
</event>
<event>
 5    1  0.1285375E-004  0.9118800E+02  0.7818608E-02  0.1130116E+00
         25   -1    0    0    0    0  0.00000000000E+00  0.00000000000E+00  0.99999998245E-14  0.12500000000E+03  0.12500000000E+03 0.  0.
        -13    1    3    3    0    0  0.42060215293E+02  0.12050800142E+02  0.33625426714E+02  0.55181192269E+02  0.10566000000E+00 0.  1.
         23    2    1    0    0    0  0.29188534588E+02 -0.13540446372E+02  0.21581694418E+02  0.86256177611E+02  0.77065195793E+02 0.  0.
         13    1    3    3    0    0 -0.12871680704E+02 -0.25591246515E+02 -0.12043732296E+02  0.31074985341E+02  0.10566000000E+00 0. -1.
         22    1    1    0    0    0 -0.29188534588E+02  0.13540446372E+02 -0.21581694418E+02  0.38743822389E+02  0.00000000000E+00 0.  1.
</event>
<event>
 5    1  0.1285375E-004  0.9118800E+02  0.7818608E-02  0.1130116E+00
         25   -1    0    0    0    0  0.00000000000E+00  0.00000000000E+00  0.99999998245E-14  0.12500000000E+03  0.12500000000E+03 0.  0.
        -13    1    3    3    0    0  0.56111552785E+02 -0.22480684583E+00  0.12395472977E+02  0.57464909366E+02  0.10566000000E+00 0.  1.
         23    2    1    0    0    0  0.21893075088E+02 -0.17097301314E+02  0.91443160320E+01  0.95755462651E+02  0.91180401748E+02 0.  0.
         13    1    3    3    0    0 -0.34218477696E+02 -0.16872494468E+02 -0.32511569446E+01  0.38290553286E+02  0.10566000000E+00 0. -1.
         22    1    1    0    0    0 -0.21893075088E+02  0.17097301314E+02 -0.91443160320E+01  0.29244537349E+02  0.00000000000E+00 0.  1.
</event>
<event>
 5    1  0.1285375E-004  0.9118800E+02  0.7818608E-02  0.1130116E+00
         25   -1    0    0    0    0  0.00000000000E+00  0.00000000000E+00  0.99999998245E-14  0.12500000000E+03  0.12500000000E+03 0.  0.
        -13    1    3    3    0    0 -0.50298781076E+02 -0.30678056596E+02 -0.50331705135E+01  0.59130825325E+02  0.10566000000E+00 0.  1.
         23    2    1    0    0    0 -0.28403304409E+02 -0.65617554671E+01  0.88434148325E+01  0.94536738158E+02  0.89494047508E+02 0.  0.
         13    1    3    3    0    0  0.21895476666E+02  0.24116301129E+02  0.13876585346E+02  0.35405912832E+02  0.10566000000E+00 0. -1.
         22    1    1    0    0    0  0.28403304409E+02  0.65617554671E+01 -0.88434148325E+01  0.30463261842E+02  0.00000000000E+00 0.  1.
</event>
<event>
 5    1  0.1285375E-004  0.9118800E+02  0.7818608E-02  0.1130116E+00
         25   -1    0    0    0    0  0.00000000000E+00  0.00000000000E+00  0.99999998245E-14  0.12500000000E+03  0.12500000000E+03 0.  0.
        -13    1    3    3    0    0 -0.43131305800E+02  0.34704982429E+02  0.26258408538E+02  0.61272020763E+02  0.10566000000E+00 0. -1.
         23    2    1    0    0    0 -0.17299099461E+02  0.22757742427E+02  0.72132750923E+01  0.95517716844E+02  0.90853889356E+02 0.  0.
         13    1    3    3    0    0  0.25832206340E+02 -0.11947240002E+02 -0.19045133446E+02  0.34245696081E+02  0.10566000000E+00 0.  1.
         22    1    1    0    0    0  0.17299099461E+02 -0.22757742427E+02 -0.72132750923E+01  0.29482283156E+02  0.00000000000E+00 0. -1.
</event>
<event>
 5    1  0.1285375E-004  0.9118800E+02  0.7818608E-02  0.1130116E+00
         25   -1    0    0    0    0  0.00000000000E+00  0.00000000000E+00  0.99999998245E-14  0.12500000000E+03  0.12500000000E+03 0.  0.
        -13    1    3    3    0    0  0.10934972341E+02  0.22807903783E+02 -0.39028678945E+02  0.46508311508E+02  0.10566000000E+00 0. -1.
         23    2    1    0    0    0 -0.14174789558E+02 -0.15878119227E+02 -0.17678715157E+02  0.97330950526E+02  0.93315259371E+02 0.  0.
         13    1    3    3    0    0 -0.25109761899E+02 -0.38686023011E+02  0.21349963788E+02  0.50822639018E+02  0.10566000000E+00 0.  1.
         22    1    1    0    0    0  0.14174789558E+02  0.15878119227E+02  0.17678715157E+02  0.27669049474E+02  0.00000000000E+00 0. -1.
</event>
<event>
 5    1  0.1285375E-004  0.9118800E+02  0.7818608E-02  0.1130116E+00
         25   -1    0    0    0    0  0.00000000000E+00  0.00000000000E+00  0.99999998245E-14  0.12500000000E+03  0.12500000000E+03 0.  0.
        -13    1    3    3    0    0  0.29470476584E+02 -0.59537345246E+01  0.23443554683E+02  0.38125678553E+02  0.10566000000E+00 0. -1.
         23    2    1    0    0    0 -0.17487004977E+02 -0.24076264091E+02 -0.31928262386E+01  0.95072487991E+02  0.90239248654E+02 0.  0.
         13    1    3    3    0    0 -0.46957481562E+02 -0.18122529567E+02 -0.26636380921E+02  0.56946809438E+02  0.10566000000E+00 0.  1.
         22    1    1    0    0    0  0.17487004977E+02  0.24076264091E+02  0.31928262386E+01  0.29927512009E+02  0.00000000000E+00 0.  1.
</event>
<event>
 5    1  0.1285375E-004  0.9118800E+02  0.7818608E-02  0.1130116E+00
         25   -1    0    0    0    0  0.00000000000E+00  0.00000000000E+00  0.99999998245E-14  0.12500000000E+03  0.12500000000E+03 0.  0.
        -13    1    3    3    0    0  0.45653109723E+02 -0.17272201065E+00 -0.12125850317E+02  0.47236465471E+02  0.10566000000E+00 0.  1.
         23    2    1    0    0    0  0.59656583873E+01  0.25208795443E+02 -0.16077010733E+02  0.94511596930E+02  0.89458924834E+02 0.  0.
         13    1    3    3    0    0 -0.39687451336E+02  0.25381517453E+02 -0.39511604163E+01  0.47275131459E+02  0.10566000000E+00 0. -1.
         22    1    1    0    0    0 -0.59656583873E+01 -0.25208795443E+02  0.16077010733E+02  0.30488403070E+02  0.00000000000E+00 0.  1.
</event>
<event>
 5    1  0.1285375E-004  0.9118800E+02  0.7818608E-02  0.1130116E+00
         25   -1    0    0    0    0  0.00000000000E+00  0.00000000000E+00  0.99999998245E-14  0.12500000000E+03  0.12500000000E+03 0.  0.
        -13    1    3    3    0    0 -0.15185811709E+02 -0.13353600592E+01  0.35549433435E+02  0.38680297896E+02  0.10566000000E+00 0.  1.
         23    2    1    0    0    0  0.29007038462E+02 -0.10646164245E+02  0.38407181394E+01  0.93863201685E+02  0.88548294288E+02 0.  0.
         13    1    3    3    0    0  0.44192850171E+02 -0.93108041854E+01 -0.31708715296E+02  0.55182903789E+02  0.10566000000E+00 0. -1.
         22    1    1    0    0    0 -0.29007038462E+02  0.10646164245E+02 -0.38407181394E+01  0.31136798315E+02  0.00000000000E+00 0. -1.
</event>
<event>
 5    1  0.1285375E-004  0.9118800E+02  0.7818608E-02  0.1130116E+00
         25   -1    0    0    0    0  0.00000000000E+00  0.00000000000E+00  0.99999998245E-14  0.12500000000E+03  0.12500000000E+03 0.  0.
        -13    1    3    3    0    0 -0.59015800336E+02 -0.87860957127E+01 -0.13145957914E+02  0.61097361160E+02  0.10566000000E+00 0.  1.
         23    2    1    0    0    0 -0.22455345686E+02 -0.10814507901E+02  0.21388356155E+00  0.10007527578E+03  0.96921715556E+02 0.  0.
         13    1    3    3    0    0  0.36560454650E+02 -0.20284121878E+01  0.13359841475E+02  0.38977914625E+02  0.10566000000E+00 0. -1.
         22    1    1    0    0    0  0.22455345686E+02  0.10814507901E+02 -0.21388356155E+00  0.24924724215E+02  0.00000000000E+00 0.  1.
</event>
<event>
 5    1  0.1285375E-004  0.9118800E+02  0.7818608E-02  0.1130116E+00
         25   -1    0    0    0    0  0.00000000000E+00  0.00000000000E+00  0.99999998245E-14  0.12500000000E+03  0.12500000000E+03 0.  0.
        -13    1    3    3    0    0  0.87630488412E+01 -0.20232000162E+02  0.15313863796E+02  0.26844933301E+02  0.10566000000E+00 0.  1.
         23    2    1    0    0    0 -0.25984764272E+02  0.25796821477E+02  0.17195921728E+02  0.84547760301E+02  0.74242441199E+02 0.  0.
         13    1    3    3    0    0 -0.34747813114E+02  0.46028821639E+02  0.18820579321E+01  0.57702827000E+02  0.10566000000E+00 0. -1.
         22    1    1    0    0    0  0.25984764272E+02 -0.25796821477E+02 -0.17195921728E+02  0.40452239699E+02  0.00000000000E+00 0. -1.
</event>
<event>
 5    1  0.1285375E-004  0.9118800E+02  0.7818608E-02  0.1130116E+00
         25   -1    0    0    0    0  0.00000000000E+00  0.00000000000E+00  0.99999998245E-14  0.12500000000E+03  0.12500000000E+03 0.  0.
        -13    1    3    3    0    0  0.32744897291E+02 -0.33889762906E+02  0.25906429271E+02  0.53776375576E+02  0.10566000000E+00 0.  1.
         23    2    1    0    0    0  0.20169567559E+01 -0.33423612391E+01  0.27587659996E+02  0.97137507698E+02  0.93055773193E+02 0.  0.
         13    1    3    3    0    0 -0.30727940535E+02  0.30547401667E+02  0.16812307254E+01  0.43361132122E+02  0.10566000000E+00 0. -1.
         22    1    1    0    0    0 -0.20169567559E+01  0.33423612391E+01 -0.27587659996E+02  0.27862492302E+02  0.00000000000E+00 0.  1.
</event>
<event>
 5    1  0.1285375E-004  0.9118800E+02  0.7818608E-02  0.1130116E+00
         25   -1    0    0    0    0  0.00000000000E+00  0.00000000000E+00  0.99999998245E-14  0.12500000000E+03  0.12500000000E+03 0.  0.
        -13    1    3    3    0    0 -0.74467060110E+01  0.15664518245E+02 -0.43965199668E+02  0.47262887217E+02  0.10566000000E+00 0.  1.
         23    2    1    0    0    0  0.15483945255E+02  0.25698633848E+02 -0.35683436348E+01  0.94785675275E+02  0.89841075342E+02 0.  0.
         13    1    3    3    0    0  0.22930651266E+02  0.10034115603E+02  0.40396856033E+02  0.47522788058E+02  0.10566000000E+00 0. -1.
         22    1    1    0    0    0 -0.15483945255E+02 -0.25698633848E+02  0.35683436348E+01  0.30214324725E+02  0.00000000000E+00 0.  1.
</event>
<event>
 5    1  0.1285375E-004  0.9118800E+02  0.7818608E-02  0.1130116E+00
         25   -1    0    0    0    0  0.00000000000E+00  0.00000000000E+00  0.99999998245E-14  0.12500000000E+03  0.12500000000E+03 0.  0.
        -13    1    3    3    0    0  0.31395144644E+02  0.83860025347E+01 -0.30236863242E+02  0.44387601968E+02  0.10566000000E+00 0. -1.
         23    2    1    0    0    0 -0.15078855256E+02 -0.12583095151E+02 -0.21079858992E+02  0.96189123329E+02  0.91772985307E+02 0.  0.
         13    1    3    3    0    0 -0.46473999900E+02 -0.20969097686E+02  0.91570042494E+01  0.51801521361E+02  0.10566000000E+00 0.  1.
         22    1    1    0    0    0  0.15078855256E+02  0.12583095151E+02  0.21079858992E+02  0.28810876671E+02  0.00000000000E+00 0.  1.
</event>
<event>
 5    1  0.1285375E-004  0.9118800E+02  0.7818608E-02  0.1130116E+00
         25   -1    0    0    0    0  0.00000000000E+00  0.00000000000E+00  0.99999998245E-14  0.12500000000E+03  0.12500000000E+03 0.  0.
        -13    1    3    3    0    0 -0.28412887817E+02  0.87240644522E+01 -0.19845094894E+02  0.35738500949E+02  0.10566000000E+00 0. -1.
         23    2    1    0    0    0  0.19331314737E+02  0.17894329260E+02  0.14184370929E+02  0.95081725856E+02  0.90252044099E+02 0.  0.
         13    1    3    3    0    0  0.47744202554E+02  0.91702648076E+01  0.34029465823E+02  0.59343224907E+02  0.10566000000E+00 0.  1.
         22    1    1    0    0    0 -0.19331314737E+02 -0.17894329260E+02 -0.14184370929E+02  0.29918274144E+02  0.00000000000E+00 0.  1.
</event>
<event>
 5    1  0.1285375E-004  0.9118800E+02  0.7818608E-02  0.1130116E+00
         25   -1    0    0    0    0  0.00000000000E+00  0.00000000000E+00  0.99999998245E-14  0.12500000000E+03  0.12500000000E+03 0.  0.
        -13    1    3    3    0    0 -0.49485721795E+02  0.13810016716E+02 -0.11841649083E+02  0.52723704729E+02  0.10566000000E+00 0.  1.
         23    2    1    0    0    0 -0.23884601386E+02 -0.16455334367E+02  0.45885995311E+01  0.95634927922E+02  0.91015009643E+02 0.  0.
         13    1    3    3    0    0  0.25601120409E+02 -0.30265351083E+02  0.16430248614E+02  0.42911223193E+02  0.10566000000E+00 0. -1.
         22    1    1    0    0    0  0.23884601386E+02  0.16455334367E+02 -0.45885995311E+01  0.29365072078E+02  0.00000000000E+00 0.  1.
</event>
<event>
 5    1  0.1285375E-004  0.9118800E+02  0.7818608E-02  0.1130116E+00
         25   -1    0    0    0    0  0.00000000000E+00  0.00000000000E+00  0.99999998245E-14  0.12500000000E+03  0.12500000000E+03 0.  0.
        -13    1    3    3    0    0  0.65507098601E+01  0.25677057641E+02  0.24439914203E+02  0.36049183889E+02  0.10566000000E+00 0. -1.
         23    2    1    0    0    0  0.18209893164E+02 -0.10081557620E+02 -0.21267406466E+02  0.95241965944E+02  0.90473706047E+02 0.  0.
         13    1    3    3    0    0  0.11659183304E+02 -0.35758615260E+02 -0.45707320669E+02  0.59192782055E+02  0.10566000000E+00 0.  1.
         22    1    1    0    0    0 -0.18209893164E+02  0.10081557620E+02  0.21267406466E+02  0.29758034056E+02  0.00000000000E+00 0.  1.
</event>
<event>
 5    1  0.1285375E-004  0.9118800E+02  0.7818608E-02  0.1130116E+00
         25   -1    0    0    0    0  0.00000000000E+00  0.00000000000E+00  0.99999998245E-14  0.12500000000E+03  0.12500000000E+03 0.  0.
        -13    1    3    3    0    0  0.12762347434E+01 -0.39890530859E+02 -0.39957408477E+01  0.40110601296E+02  0.10566000000E+00 0.  1.
         23    2    1    0    0    0  0.27784978219E+02  0.44074766492E+01  0.12372128113E+02  0.94267274460E+02  0.89116881762E+02 0.  0.
         13    1    3    3    0    0  0.26508743476E+02  0.44298007508E+02  0.16367868961E+02  0.54156673164E+02  0.10566000000E+00 0. -1.
         22    1    1    0    0    0 -0.27784978219E+02 -0.44074766492E+01 -0.12372128113E+02  0.30732725540E+02  0.00000000000E+00 0.  1.
</event>
<event>
 5    1  0.1285375E-004  0.9118800E+02  0.7818608E-02  0.1130116E+00
         25   -1    0    0    0    0  0.00000000000E+00  0.00000000000E+00  0.99999998245E-14  0.12500000000E+03  0.12500000000E+03 0.  0.
        -13    1    3    3    0    0 -0.40539398020E+01 -0.41047282710E+02  0.34991560665E+02  0.54090057567E+02  0.10566000000E+00 0. -1.
         23    2    1    0    0    0  0.19822201212E+02 -0.20173113651E+02  0.83461201038E+01  0.95512173765E+02  0.90846262671E+02 0.  0.
         13    1    3    3    0    0  0.23876141014E+02  0.20874169059E+02 -0.26645440561E+02  0.41422116198E+02  0.10566000000E+00 0.  1.
         22    1    1    0    0    0 -0.19822201212E+02  0.20173113651E+02 -0.83461201038E+01  0.29487826235E+02  0.00000000000E+00 0. -1.
</event>
<event>
 5    1  0.1285375E-004  0.9118800E+02  0.7818608E-02  0.1130116E+00
         25   -1    0    0    0    0  0.00000000000E+00  0.00000000000E+00  0.99999998245E-14  0.12500000000E+03  0.12500000000E+03 0.  0.
        -13    1    3    3    0    0  0.61903768191E+01  0.37199165825E+02  0.31004809804E+02  0.48820160777E+02  0.10566000000E+00 0.  1.
         23    2    1    0    0    0 -0.25552047796E+02  0.90195356807E+01  0.10801813267E+02  0.95829152561E+02  0.91281367980E+02 0.  0.
         13    1    3    3    0    0 -0.31742424615E+02 -0.28179630144E+02 -0.20202996537E+02  0.47008991784E+02  0.10566000000E+00 0. -1.
         22    1    1    0    0    0  0.25552047796E+02 -0.90195356807E+01 -0.10801813267E+02  0.29170847439E+02  0.00000000000E+00 0. -1.
</event>
<event>
 5    1  0.1285375E-004  0.9118800E+02  0.7818608E-02  0.1130116E+00
         25   -1    0    0    0    0  0.00000000000E+00  0.00000000000E+00  0.99999998245E-14  0.12500000000E+03  0.12500000000E+03 0.  0.
        -13    1    3    3    0    0 -0.13370907422E+02  0.10177616390E+02  0.59533273443E+02  0.61859411988E+02  0.10566000000E+00 0.  1.
         23    2    1    0    0    0 -0.10253290705E+02  0.12673279625E+02  0.39838177158E+02  0.81955577063E+02  0.69741625057E+02 0.  0.
         13    1    3    3    0    0  0.31176167170E+01  0.24956632352E+01 -0.19695096285E+02  0.20096165074E+02  0.10566000000E+00 0. -1.
         22    1    1    0    0    0  0.10253290705E+02 -0.12673279625E+02 -0.39838177158E+02  0.43044422937E+02  0.00000000000E+00 0.  1.
</event>
<event>
 5    1  0.1285375E-004  0.9118800E+02  0.7818608E-02  0.1130116E+00
         25   -1    0    0    0    0  0.00000000000E+00  0.00000000000E+00  0.99999998245E-14  0.12500000000E+03  0.12500000000E+03 0.  0.
        -13    1    3    3    0    0 -0.20106785339E+02 -0.46320534309E+02  0.29114906640E+02  0.58288623830E+02  0.10566000000E+00 0. -1.
         23    2    1    0    0    0  0.62837108445E+01 -0.22516803096E+02  0.17902468049E+02  0.95555309377E+02  0.90905595781E+02 0.  0.
         13    1    3    3    0    0  0.26390496184E+02  0.23803731213E+02 -0.11212438591E+02  0.37266685547E+02  0.10566000000E+00 0.  1.
         22    1    1    0    0    0 -0.62837108445E+01  0.22516803096E+02 -0.17902468049E+02  0.29444690623E+02  0.00000000000E+00 0. -1.
</event>
<event>
 5    1  0.1285375E-004  0.9118800E+02  0.7818608E-02  0.1130116E+00
         25   -1    0    0    0    0  0.00000000000E+00  0.00000000000E+00  0.99999998245E-14  0.12500000000E+03  0.12500000000E+03 0.  0.
        -13    1    3    3    0    0 -0.80387870189E+01  0.32500736697E+02 -0.98581361358E+01  0.34901489863E+02  0.10566000000E+00 0. -1.
         23    2    1    0    0    0  0.15696795126E+02 -0.16324362131E+02  0.18139142526E+02  0.95984440936E+02  0.91493771559E+02 0.  0.
         13    1    3    3    0    0  0.23735582145E+02 -0.48825098827E+02  0.27997278662E+02  0.61082951073E+02  0.10566000000E+00 0.  1.
         22    1    1    0    0    0 -0.15696795126E+02  0.16324362131E+02 -0.18139142526E+02  0.29015559064E+02  0.00000000000E+00 0.  1.
</event>
<event>
 5    1  0.1285375E-004  0.9118800E+02  0.7818608E-02  0.1130116E+00
         25   -1    0    0    0    0  0.00000000000E+00  0.00000000000E+00  0.99999998245E-14  0.12500000000E+03  0.12500000000E+03 0.  0.
        -13    1    3    3    0    0 -0.14135598651E+02 -0.11006444715E+02 -0.50113455949E+02  0.53219607342E+02  0.10566000000E+00 0.  1.
         23    2    1    0    0    0  0.17443875583E+02 -0.84713651588E+01 -0.22972708728E+02  0.94936763825E+02  0.90051046391E+02 0.  0.
         13    1    3    3    0    0  0.31579474234E+02  0.25350795565E+01  0.27140747220E+02  0.41717156482E+02  0.10566000000E+00 0. -1.
         22    1    1    0    0    0 -0.17443875583E+02  0.84713651588E+01  0.22972708728E+02  0.30063236175E+02  0.00000000000E+00 0.  1.
</event>
<event>
 5    1  0.1285375E-004  0.9118800E+02  0.7818608E-02  0.1130116E+00
         25   -1    0    0    0    0  0.00000000000E+00  0.00000000000E+00  0.99999998245E-14  0.12500000000E+03  0.12500000000E+03 0.  0.
        -13    1    3    3    0    0  0.10089985028E+02  0.22006279396E+01 -0.55417961992E+02  0.56372087389E+02  0.10566000000E+00 0.  1.
         23    2    1    0    0    0  0.15430374755E+02 -0.14707766297E+02 -0.21068459691E+02  0.95028432670E+02  0.90178202285E+02 0.  0.
         13    1    3    3    0    0  0.53403897265E+01 -0.16908394236E+02  0.34349502301E+02  0.38656345281E+02  0.10566000000E+00 0. -1.
         22    1    1    0    0    0 -0.15430374755E+02  0.14707766297E+02  0.21068459691E+02  0.29971567330E+02  0.00000000000E+00 0. -1.
</event>
<event>
 5    1  0.1285375E-004  0.9118800E+02  0.7818608E-02  0.1130116E+00
         25   -1    0    0    0    0  0.00000000000E+00  0.00000000000E+00  0.99999998245E-14  0.12500000000E+03  0.12500000000E+03 0.  0.
        -13    1    3    3    0    0  0.25638232735E+02 -0.45779108011E+02  0.23782484226E+01  0.52523451311E+02  0.10566000000E+00 0.  1.
         23    2    1    0    0    0 -0.38402233622E+01 -0.21322855111E+02 -0.18820531212E+02  0.96301152277E+02  0.91925448431E+02 0.  0.
         13    1    3    3    0    0 -0.29478456098E+02  0.24456252900E+02 -0.21198779634E+02  0.43777700965E+02  0.10566000000E+00 0. -1.
         22    1    1    0    0    0  0.38402233622E+01  0.21322855111E+02  0.18820531212E+02  0.28698847723E+02  0.00000000000E+00 0. -1.
</event>
<event>
 5    1  0.1285375E-004  0.9118800E+02  0.7818608E-02  0.1130116E+00
         25   -1    0    0    0    0  0.00000000000E+00  0.00000000000E+00  0.99999998245E-14  0.12500000000E+03  0.12500000000E+03 0.  0.
        -13    1    3    3    0    0 -0.28800794651E+02 -0.32473037247E+02  0.33693653292E+01  0.43535591271E+02  0.10566000000E+00 0.  1.
         23    2    1    0    0    0 -0.15297342472E+02 -0.37252994777E+02  0.30678856662E+02  0.74374052575E+02  0.54484063210E+02 0.  0.
         13    1    3    3    0    0  0.13503452178E+02 -0.47799575297E+01  0.27309491333E+02  0.30838461304E+02  0.10566000000E+00 0. -1.
         22    1    1    0    0    0  0.15297342472E+02  0.37252994777E+02 -0.30678856662E+02  0.50625947425E+02  0.00000000000E+00 0.  1.
</event>
<event>
 5    1  0.1285375E-004  0.9118800E+02  0.7818608E-02  0.1130116E+00
         25   -1    0    0    0    0  0.00000000000E+00  0.00000000000E+00  0.99999998245E-14  0.12500000000E+03  0.12500000000E+03 0.  0.
        -13    1    3    3    0    0  0.17791981463E+02  0.54713352533E+02  0.10026990495E+02  0.58400832633E+02  0.10566000000E+00 0. -1.
         23    2    1    0    0    0  0.79444322221E+01  0.20749136638E+02  0.19960412554E+02  0.95132647525E+02  0.90322543594E+02 0.  0.
         13    1    3    3    0    0 -0.98475492408E+01 -0.33964215895E+02  0.99334220584E+01  0.36731814892E+02  0.10566000000E+00 0.  1.
         22    1    1    0    0    0 -0.79444322221E+01 -0.20749136638E+02 -0.19960412554E+02  0.29867352475E+02  0.00000000000E+00 0. -1.
</event>
<event>
 5    1  0.1285375E-004  0.9118800E+02  0.7818608E-02  0.1130116E+00
         25   -1    0    0    0    0  0.00000000000E+00  0.00000000000E+00  0.99999998245E-14  0.12500000000E+03  0.12500000000E+03 0.  0.
        -13    1    3    3    0    0 -0.22716311336E+02  0.40746885521E+02  0.33520745357E+02  0.57445548250E+02  0.10566000000E+00 0. -1.
         23    2    1    0    0    0 -0.21592722644E+02  0.63650636885E+01  0.21459499072E+02  0.93899038482E+02  0.88598869182E+02 0.  0.
         13    1    3    3    0    0  0.11235886914E+01 -0.34381821833E+02 -0.12061246285E+02  0.36453490232E+02  0.10566000000E+00 0.  1.
         22    1    1    0    0    0  0.21592722644E+02 -0.63650636885E+01 -0.21459499072E+02  0.31100961518E+02  0.00000000000E+00 0. -1.
</event>
<event>
 5    1  0.1285375E-004  0.9118800E+02  0.7818608E-02  0.1130116E+00
         25   -1    0    0    0    0  0.00000000000E+00  0.00000000000E+00  0.99999998245E-14  0.12500000000E+03  0.12500000000E+03 0.  0.
        -13    1    3    3    0    0 -0.58850542999E+02  0.28496043779E+01  0.11756602357E+01  0.58931315932E+02  0.10566000000E+00 0.  1.
         23    2    1    0    0    0 -0.26232113274E+02 -0.10598918848E+02 -0.83946009730E+01  0.95488473895E+02  0.90813646958E+02 0.  0.
         13    1    3    3    0    0  0.32618429726E+02 -0.13448523226E+02 -0.95702612087E+01  0.36557157963E+02  0.10566000000E+00 0. -1.
         22    1    1    0    0    0  0.26232113274E+02  0.10598918848E+02  0.83946009730E+01  0.29511526105E+02  0.00000000000E+00 0.  1.
</event>
<event>
 5    1  0.1285375E-004  0.9118800E+02  0.7818608E-02  0.1130116E+00
         25   -1    0    0    0    0  0.00000000000E+00  0.00000000000E+00  0.99999998245E-14  0.12500000000E+03  0.12500000000E+03 0.  0.
        -13    1    3    3    0    0 -0.26630771657E+02  0.28409498482E+02 -0.73460411221E+01  0.39626671413E+02  0.10566000000E+00 0. -1.
         23    2    1    0    0    0  0.54397792758E+01 -0.61220427798E+00  0.28608892695E+02  0.95872096988E+02  0.91340156815E+02 0.  0.
         13    1    3    3    0    0  0.32070550933E+02 -0.29021702760E+02  0.35954933817E+02  0.56245425575E+02  0.10566000000E+00 0.  1.
         22    1    1    0    0    0 -0.54397792758E+01  0.61220427798E+00 -0.28608892695E+02  0.29127903012E+02  0.00000000000E+00 0.  1.
</event>
<event>
 5    1  0.1285375E-004  0.9118800E+02  0.7818608E-02  0.1130116E+00
         25   -1    0    0    0    0  0.00000000000E+00  0.00000000000E+00  0.99999998245E-14  0.12500000000E+03  0.12500000000E+03 0.  0.
        -13    1    3    3    0    0  0.43880124647E+02 -0.63580124534E+01  0.12000216203E+02  0.45933713265E+02  0.10566000000E+00 0. -1.
         23    2    1    0    0    0  0.33741774513E+01  0.18316099939E+02  0.23770939511E+02  0.94801951128E+02  0.89863717829E+02 0.  0.
         13    1    3    3    0    0 -0.40505947196E+02  0.24674112392E+02  0.11770723308E+02  0.48868237863E+02  0.10566000000E+00 0.  1.
         22    1    1    0    0    0 -0.33741774513E+01 -0.18316099939E+02 -0.23770939511E+02  0.30198048872E+02  0.00000000000E+00 0.  1.
</event>
<event>
 5    1  0.1285375E-004  0.9118800E+02  0.7818608E-02  0.1130116E+00
         25   -1    0    0    0    0  0.00000000000E+00  0.00000000000E+00  0.99999998245E-14  0.12500000000E+03  0.12500000000E+03 0.  0.
        -13    1    3    3    0    0 -0.89164115219E+01  0.47449684653E+02  0.56684821752E+01  0.48611910293E+02  0.10566000000E+00 0. -1.
         23    2    1    0    0    0  0.23826452873E+02  0.90505775051E+01 -0.87056100121E+00  0.99497633715E+02  0.96173844827E+02 0.  0.
         13    1    3    3    0    0  0.32742864395E+02 -0.38399107148E+02 -0.65390431764E+01  0.50885723422E+02  0.10566000000E+00 0.  1.
         22    1    1    0    0    0 -0.23826452873E+02 -0.90505775051E+01  0.87056100121E+00  0.25502366285E+02  0.00000000000E+00 0. -1.
</event>
<event>
 5    1  0.1285375E-004  0.9118800E+02  0.7818608E-02  0.1130116E+00
         25   -1    0    0    0    0  0.00000000000E+00  0.00000000000E+00  0.99999998245E-14  0.12500000000E+03  0.12500000000E+03 0.  0.
        -13    1    3    3    0    0 -0.34675049505E+02  0.12683608779E+02  0.20759810987E+02  0.42358162213E+02  0.10566000000E+00 0. -1.
         23    2    1    0    0    0 -0.11624119905E+02 -0.26284682351E+02 -0.69380701353E+01  0.95434115824E+02  0.90738795210E+02 0.  0.
         13    1    3    3    0    0  0.23050929600E+02 -0.38968291130E+02 -0.27697881122E+02  0.53075953611E+02  0.10566000000E+00 0.  1.
         22    1    1    0    0    0  0.11624119905E+02  0.26284682351E+02  0.69380701353E+01  0.29565884176E+02  0.00000000000E+00 0.  1.
</event>
<event>
 5    1  0.1285375E-004  0.9118800E+02  0.7818608E-02  0.1130116E+00
         25   -1    0    0    0    0  0.00000000000E+00  0.00000000000E+00  0.99999998245E-14  0.12500000000E+03  0.12500000000E+03 0.  0.
        -13    1    3    3    0    0 -0.14644088400E+02  0.37313068573E+02  0.13007364541E+02  0.42141631527E+02  0.10566000000E+00 0.  1.
         23    2    1    0    0    0 -0.35801137421E+01 -0.46626304436E+00 -0.26700811359E+02  0.98056207712E+02  0.94281768800E+02 0.  0.
         13    1    3    3    0    0  0.11063974658E+02 -0.37779331617E+02 -0.39708175900E+02  0.55914576185E+02  0.10566000000E+00 0. -1.
         22    1    1    0    0    0  0.35801137421E+01  0.46626304436E+00  0.26700811359E+02  0.26943792288E+02  0.00000000000E+00 0. -1.
</event>
<event>
 5    1  0.1285375E-004  0.9118800E+02  0.7818608E-02  0.1130116E+00
         25   -1    0    0    0    0  0.00000000000E+00  0.00000000000E+00  0.99999998245E-14  0.12500000000E+03  0.12500000000E+03 0.  0.
        -13    1    3    3    0    0  0.44812746454E+02 -0.14278049994E+01 -0.43181429328E+02  0.62248436725E+02  0.10566000000E+00 0.  1.
         23    2    1    0    0    0  0.17763047597E+02 -0.23839264377E+01 -0.22036532708E+02  0.96595462704E+02  0.92324783650E+02 0.  0.
         13    1    3    3    0    0 -0.27049698857E+02 -0.95612143822E+00  0.21144896620E+02  0.34347025979E+02  0.10566000000E+00 0. -1.
         22    1    1    0    0    0 -0.17763047597E+02  0.23839264377E+01  0.22036532708E+02  0.28404537296E+02  0.00000000000E+00 0.  1.
</event>
<event>
 5    1  0.1285375E-004  0.9118800E+02  0.7818608E-02  0.1130116E+00
         25   -1    0    0    0    0  0.00000000000E+00  0.00000000000E+00  0.99999998245E-14  0.12500000000E+03  0.12500000000E+03 0.  0.
        -13    1    3    3    0    0 -0.76946850805E+00  0.35532238292E+02 -0.93348767785E+01  0.36746198828E+02  0.10566000000E+00 0. -1.
         23    2    1    0    0    0 -0.21002726590E+02 -0.12122590954E+02  0.17533342251E+02  0.95075263975E+02  0.90243093884E+02 0.  0.
         13    1    3    3    0    0 -0.20233258082E+02 -0.47654829246E+02  0.26868219030E+02  0.58329065147E+02  0.10566000000E+00 0.  1.
         22    1    1    0    0    0  0.21002726590E+02  0.12122590954E+02 -0.17533342251E+02  0.29924736025E+02  0.00000000000E+00 0.  1.
</event>
<event>
 5    1  0.1285375E-004  0.9118800E+02  0.7818608E-02  0.1130116E+00
         25   -1    0    0    0    0  0.00000000000E+00  0.00000000000E+00  0.99999998245E-14  0.12500000000E+03  0.12500000000E+03 0.  0.
        -13    1    3    3    0    0  0.70129426528E+01  0.21500993657E+02 -0.55544851474E+00  0.22622859677E+02  0.10566000000E+00 0. -1.
         23    2    1    0    0    0  0.83474761269E+01 -0.34539524763E+02  0.22177201939E+02  0.83113398152E+02  0.71786834016E+02 0.  0.
         13    1    3    3    0    0  0.13345334741E+01 -0.56040518420E+02  0.22732650454E+02  0.60490538475E+02  0.10566000000E+00 0.  1.
         22    1    1    0    0    0 -0.83474761269E+01  0.34539524763E+02 -0.22177201939E+02  0.41886601848E+02  0.00000000000E+00 0.  1.
</event>
<event>
 5    1  0.1285375E-004  0.9118800E+02  0.7818608E-02  0.1130116E+00
         25   -1    0    0    0    0  0.00000000000E+00  0.00000000000E+00  0.99999998245E-14  0.12500000000E+03  0.12500000000E+03 0.  0.
        -13    1    3    3    0    0 -0.14734136681E+02 -0.62484661004E+01  0.53977969642E+02  0.56300714765E+02  0.10566000000E+00 0.  1.
         23    2    1    0    0    0 -0.17972320102E+02 -0.84988105712E+01  0.62948582159E+01  0.10414671942E+03  0.10203763940E+03 0.  0.
         13    1    3    3    0    0 -0.32381834210E+01 -0.22503444708E+01 -0.47683111426E+02  0.47846004655E+02  0.10566000000E+00 0. -1.
         22    1    1    0    0    0  0.17972320102E+02  0.84988105712E+01 -0.62948582159E+01  0.20853280580E+02  0.00000000000E+00 0. -1.
</event>
<event>
 5    1  0.1285375E-004  0.9118800E+02  0.7818608E-02  0.1130116E+00
         25   -1    0    0    0    0  0.00000000000E+00  0.00000000000E+00  0.99999998245E-14  0.12500000000E+03  0.12500000000E+03 0.  0.
        -13    1    3    3    0    0  0.12435849819E+02 -0.20001205817E+02 -0.20593559036E+02  0.31285850359E+02  0.10566000000E+00 0. -1.
         23    2    1    0    0    0 -0.13056872103E+02  0.22957395238E+02  0.16812474480E+02  0.93692122343E+02  0.88306458347E+02 0.  0.
         13    1    3    3    0    0 -0.25492721922E+02  0.42958601055E+02  0.37406033516E+02  0.62406271985E+02  0.10566000000E+00 0.  1.
         22    1    1    0    0    0  0.13056872103E+02 -0.22957395238E+02 -0.16812474480E+02  0.31307877657E+02  0.00000000000E+00 0.  1.
</event>
<event>
 5    1  0.1285375E-004  0.9118800E+02  0.7818608E-02  0.1130116E+00
         25   -1    0    0    0    0  0.00000000000E+00  0.00000000000E+00  0.99999998245E-14  0.12500000000E+03  0.12500000000E+03 0.  0.
        -13    1    3    3    0    0  0.68409907692E+00 -0.45669629429E+02 -0.47925463927E+01  0.45925621484E+02  0.10566000000E+00 0. -1.
         23    2    1    0    0    0 -0.15300283833E+02 -0.14971253517E+02  0.25349171430E+02  0.91821428460E+02  0.85617504723E+02 0.  0.
         13    1    3    3    0    0 -0.15984382910E+02  0.30698375912E+02  0.30141717822E+02  0.45895806976E+02  0.10566000000E+00 0.  1.
         22    1    1    0    0    0  0.15300283833E+02  0.14971253517E+02 -0.25349171430E+02  0.33178571540E+02  0.00000000000E+00 0.  1.
</event>
<event>
 5    1  0.1285375E-004  0.9118800E+02  0.7818608E-02  0.1130116E+00
         25   -1    0    0    0    0  0.00000000000E+00  0.00000000000E+00  0.99999998245E-14  0.12500000000E+03  0.12500000000E+03 0.  0.
        -13    1    3    3    0    0 -0.39468203242E+02  0.19847721380E+02  0.47402874888E+01  0.44431437076E+02  0.10566000000E+00 0. -1.
         23    2    1    0    0    0 -0.15821278686E+02 -0.24036654037E+02  0.99479314661E+01  0.94552751569E+02  0.89516411302E+02 0.  0.
         13    1    3    3    0    0  0.23646924556E+02 -0.43884375417E+02  0.52076439773E+01  0.50121314493E+02  0.10566000000E+00 0.  1.
         22    1    1    0    0    0  0.15821278686E+02  0.24036654037E+02 -0.99479314661E+01  0.30447248431E+02  0.00000000000E+00 0. -1.
</event>
<event>
 5    1  0.1285375E-004  0.9118800E+02  0.7818608E-02  0.1130116E+00
         25   -1    0    0    0    0  0.00000000000E+00  0.00000000000E+00  0.99999998245E-14  0.12500000000E+03  0.12500000000E+03 0.  0.
        -13    1    3    3    0    0 -0.35617453381E+02 -0.86851672393E+01  0.32132516934E+02  0.48749819731E+02  0.10566000000E+00 0. -1.
         23    2    1    0    0    0 -0.16147658661E+02 -0.20401309309E+02 -0.10406480705E+02  0.96977595707E+02  0.92840718043E+02 0.  0.
         13    1    3    3    0    0  0.19469794720E+02 -0.11716142069E+02 -0.42538997638E+02  0.48227775976E+02  0.10566000000E+00 0.  1.
         22    1    1    0    0    0  0.16147658661E+02  0.20401309309E+02  0.10406480705E+02  0.28022404293E+02  0.00000000000E+00 0. -1.
</event>
<event>
 5    1  0.1285375E-004  0.9118800E+02  0.7818608E-02  0.1130116E+00
         25   -1    0    0    0    0  0.00000000000E+00  0.00000000000E+00  0.99999998245E-14  0.12500000000E+03  0.12500000000E+03 0.  0.
        -13    1    3    3    0    0 -0.53123603266E+02 -0.11081668153E+02 -0.30353171314E+02  0.62179150572E+02  0.10566000000E+00 0. -1.
         23    2    1    0    0    0 -0.24564941501E+02 -0.92873100970E+01 -0.12421144591E+02  0.95948746796E+02  0.91444992750E+02 0.  0.
         13    1    3    3    0    0  0.28558661766E+02  0.17943580563E+01  0.17932026723E+02  0.33769596224E+02  0.10566000000E+00 0.  1.
         22    1    1    0    0    0  0.24564941501E+02  0.92873100970E+01  0.12421144591E+02  0.29051253204E+02  0.00000000000E+00 0. -1.
</event>
<event>
 5    1  0.1285375E-004  0.9118800E+02  0.7818608E-02  0.1130116E+00
         25   -1    0    0    0    0  0.00000000000E+00  0.00000000000E+00  0.99999998245E-14  0.12500000000E+03  0.12500000000E+03 0.  0.
        -13    1    3    3    0    0  0.23495812255E+02 -0.28049333111E+00  0.29125921909E+02  0.37422751918E+02  0.10566000000E+00 0. -1.
         23    2    1    0    0    0  0.90183309555E+01  0.54945756180E+01 -0.27176944595E+02  0.95843406030E+02  0.91300884483E+02 0.  0.
         13    1    3    3    0    0 -0.14477481300E+02  0.57750689491E+01 -0.56302866504E+02  0.58420654111E+02  0.10566000000E+00 0.  1.
         22    1    1    0    0    0 -0.90183309555E+01 -0.54945756180E+01  0.27176944595E+02  0.29156593970E+02  0.00000000000E+00 0.  1.
</event>
<event>
 5    1  0.1285375E-004  0.9118800E+02  0.7818608E-02  0.1130116E+00
         25   -1    0    0    0    0  0.00000000000E+00  0.00000000000E+00  0.99999998245E-14  0.12500000000E+03  0.12500000000E+03 0.  0.
        -13    1    3    3    0    0  0.45864424233E+01 -0.94766572653E+01  0.37933956332E+02  0.39367990729E+02  0.10566000000E+00 0.  1.
         23    2    1    0    0    0 -0.30518293682E+02 -0.10289801002E+02 -0.22290171983E+01  0.92716648693E+02  0.86914683301E+02 0.  0.
         13    1    3    3    0    0 -0.35104736106E+02 -0.81314373623E+00 -0.40162973530E+02  0.53348657964E+02  0.10566000000E+00 0. -1.
         22    1    1    0    0    0  0.30518293682E+02  0.10289801002E+02  0.22290171983E+01  0.32283351307E+02  0.00000000000E+00 0. -1.
</event>
<event>
 5    1  0.1285375E-004  0.9118800E+02  0.7818608E-02  0.1130116E+00
         25   -1    0    0    0    0  0.00000000000E+00  0.00000000000E+00  0.99999998245E-14  0.12500000000E+03  0.12500000000E+03 0.  0.
        -13    1    3    3    0    0 -0.52083231619E+02 -0.11859249457E+02 -0.21674820470E+01  0.53460396145E+02  0.10566000000E+00 0.  1.
         23    2    1    0    0    0 -0.13595580933E+02 -0.22126344596E+02  0.12842865095E+02  0.96028390968E+02  0.91553796983E+02 0.  0.
         13    1    3    3    0    0  0.38487650686E+02 -0.10267095138E+02  0.15010347142E+02  0.42567994823E+02  0.10566000000E+00 0. -1.
         22    1    1    0    0    0  0.13595580933E+02  0.22126344596E+02 -0.12842865095E+02  0.28971609032E+02  0.00000000000E+00 0.  1.
</event>
<event>
 5    1  0.1285375E-004  0.9118800E+02  0.7818608E-02  0.1130116E+00
         25   -1    0    0    0    0  0.00000000000E+00  0.00000000000E+00  0.99999998245E-14  0.12500000000E+03  0.12500000000E+03 0.  0.
        -13    1    3    3    0    0  0.19070003104E+01 -0.28844033759E+02  0.23921906944E+02  0.37521776738E+02  0.10566000000E+00 0.  1.
         23    2    1    0    0    0 -0.19997540849E+02  0.21420319707E+02  0.89665291180E+01  0.94354765774E+02  0.89239517275E+02 0.  0.
         13    1    3    3    0    0 -0.21904541159E+02  0.50264353466E+02 -0.14955377826E+02  0.56832989036E+02  0.10566000000E+00 0. -1.
         22    1    1    0    0    0  0.19997540849E+02 -0.21420319707E+02 -0.89665291180E+01  0.30645234226E+02  0.00000000000E+00 0. -1.
</event>
<event>
 5    1  0.1285375E-004  0.9118800E+02  0.7818608E-02  0.1130116E+00
         25   -1    0    0    0    0  0.00000000000E+00  0.00000000000E+00  0.99999998245E-14  0.12500000000E+03  0.12500000000E+03 0.  0.
        -13    1    3    3    0    0  0.13280617051E+02 -0.18970675665E+02 -0.34455470035E+02  0.41514478243E+02  0.10566000000E+00 0. -1.
         23    2    1    0    0    0 -0.52140599928E+01  0.26447815570E+02 -0.13632994633E+02  0.94791856847E+02  0.89849675636E+02 0.  0.
         13    1    3    3    0    0 -0.18494677044E+02  0.45418491235E+02  0.20822475401E+02  0.53277378604E+02  0.10566000000E+00 0.  1.
         22    1    1    0    0    0  0.52140599928E+01 -0.26447815570E+02  0.13632994633E+02  0.30208143153E+02  0.00000000000E+00 0.  1.
</event>
<event>
 5    1  0.1285375E-004  0.9118800E+02  0.7818608E-02  0.1130116E+00
         25   -1    0    0    0    0  0.00000000000E+00  0.00000000000E+00  0.99999998245E-14  0.12500000000E+03  0.12500000000E+03 0.  0.
        -13    1    3    3    0    0  0.17728158262E+02  0.39992743372E+02  0.31731233954E+02  0.54042478571E+02  0.10566000000E+00 0. -1.
         23    2    1    0    0    0  0.23449895629E+02  0.11161761410E+01  0.17026608289E+02  0.95999157874E+02  0.91513875825E+02 0.  0.
         13    1    3    3    0    0  0.57217373671E+01 -0.38876567231E+02 -0.14704625665E+02  0.41956679303E+02  0.10566000000E+00 0.  1.
         22    1    1    0    0    0 -0.23449895629E+02 -0.11161761410E+01 -0.17026608289E+02  0.29000842126E+02  0.00000000000E+00 0. -1.
</event>
<event>
 5    1  0.1285375E-004  0.9118800E+02  0.7818608E-02  0.1130116E+00
         25   -1    0    0    0    0  0.00000000000E+00  0.00000000000E+00  0.99999998245E-14  0.12500000000E+03  0.12500000000E+03 0.  0.
        -13    1    3    3    0    0  0.15202010823E+02 -0.47193080409E+01 -0.34981369059E+02  0.38432803004E+02  0.10566000000E+00 0.  1.
         23    2    1    0    0    0 -0.39534945049E+01 -0.25497144224E+02  0.14490504462E+02  0.95407615812E+02  0.90702281961E+02 0.  0.
         13    1    3    3    0    0 -0.19155505328E+02 -0.20777836183E+02  0.49471873521E+02  0.56974812808E+02  0.10566000000E+00 0. -1.
         22    1    1    0    0    0  0.39534945049E+01  0.25497144224E+02 -0.14490504462E+02  0.29592384188E+02  0.00000000000E+00 0. -1.
</event>
<event>
 5    1  0.1285375E-004  0.9118800E+02  0.7818608E-02  0.1130116E+00
         25   -1    0    0    0    0  0.00000000000E+00  0.00000000000E+00  0.99999998245E-14  0.12500000000E+03  0.12500000000E+03 0.  0.
        -13    1    3    3    0    0  0.18638166946E+02 -0.40352517395E+02  0.40279190056E+02  0.59984425002E+02  0.10566000000E+00 0. -1.
         23    2    1    0    0    0 -0.97051025282E+00 -0.24855989552E+02  0.13180881676E+02  0.96848663469E+02  0.92666962112E+02 0.  0.
         13    1    3    3    0    0 -0.19608677199E+02  0.15496527843E+02 -0.27098308380E+02  0.36864238467E+02  0.10566000000E+00 0.  1.
         22    1    1    0    0    0  0.97051025282E+00  0.24855989552E+02 -0.13180881676E+02  0.28151336531E+02  0.00000000000E+00 0. -1.
</event>
<event>
 5    1  0.1285375E-004  0.9118800E+02  0.7818608E-02  0.1130116E+00
         25   -1    0    0    0    0  0.00000000000E+00  0.00000000000E+00  0.99999998245E-14  0.12500000000E+03  0.12500000000E+03 0.  0.
        -13    1    3    3    0    0 -0.14930643433E+02 -0.10625326311E+02 -0.58255400188E+02  0.61069832877E+02  0.10566000000E+00 0. -1.
         23    2    1    0    0    0 -0.71159348023E+01  0.46539808667E+01 -0.26543913951E+02  0.97127514753E+02  0.93042348897E+02 0.  0.
         13    1    3    3    0    0  0.78147086302E+01  0.15279307178E+02  0.31711486237E+02  0.36057681875E+02  0.10566000000E+00 0.  1.
         22    1    1    0    0    0  0.71159348023E+01 -0.46539808667E+01  0.26543913951E+02  0.27872485247E+02  0.00000000000E+00 0. -1.
</event>
<event>
 5    1  0.1285375E-004  0.9118800E+02  0.7818608E-02  0.1130116E+00
         25   -1    0    0    0    0  0.00000000000E+00  0.00000000000E+00  0.99999998245E-14  0.12500000000E+03  0.12500000000E+03 0.  0.
        -13    1    3    3    0    0 -0.28796583713E+01 -0.58930451249E+02 -0.68423913646E+01  0.59396296184E+02  0.10566000000E+00 0.  1.
         23    2    1    0    0    0  0.40083818465E+01 -0.23913194856E+02 -0.15631706787E+02  0.96151113187E+02  0.91721198732E+02 0.  0.
         13    1    3    3    0    0  0.68880402178E+01  0.35017256393E+02 -0.87893154222E+01  0.36754817003E+02  0.10566000000E+00 0. -1.
         22    1    1    0    0    0 -0.40083818465E+01  0.23913194856E+02  0.15631706787E+02  0.28848886813E+02  0.00000000000E+00 0.  1.
</event>
<event>
 5    1  0.1285375E-004  0.9118800E+02  0.7818608E-02  0.1130116E+00
         25   -1    0    0    0    0  0.00000000000E+00  0.00000000000E+00  0.99999998245E-14  0.12500000000E+03  0.12500000000E+03 0.  0.
        -13    1    3    3    0    0 -0.50153863179E+01  0.28512801331E+02 -0.48479925852E+02  0.56466346742E+02  0.10566000000E+00 0.  1.
         23    2    1    0    0    0  0.16994773051E+02  0.13950560497E+02 -0.20307373914E+02  0.95069582621E+02  0.90235224027E+02 0.  0.
         13    1    3    3    0    0  0.22010159369E+02 -0.14562240834E+02  0.28172551939E+02  0.38603235879E+02  0.10566000000E+00 0. -1.
         22    1    1    0    0    0 -0.16994773051E+02 -0.13950560497E+02  0.20307373914E+02  0.29930417379E+02  0.00000000000E+00 0. -1.
</event>
<event>
 5    1  0.1285375E-004  0.9118800E+02  0.7818608E-02  0.1130116E+00
         25   -1    0    0    0    0  0.00000000000E+00  0.00000000000E+00  0.99999998245E-14  0.12500000000E+03  0.12500000000E+03 0.  0.
        -13    1    3    3    0    0  0.84307388983E+01  0.38399316241E+02  0.96051685978E+01  0.40470424683E+02  0.10566000000E+00 0. -1.
         23    2    1    0    0    0 -0.26766717161E+02  0.31917497425E+01 -0.12913118038E+02  0.95110318980E+02  0.90291637182E+02 0.  0.
         13    1    3    3    0    0 -0.35197456059E+02 -0.35207566499E+02 -0.22518286636E+02  0.54639894298E+02  0.10566000000E+00 0.  1.
         22    1    1    0    0    0  0.26766717161E+02 -0.31917497425E+01  0.12913118038E+02  0.29889681020E+02  0.00000000000E+00 0.  1.
</event>
<event>
 5    1  0.1285375E-004  0.9118800E+02  0.7818608E-02  0.1130116E+00
         25   -1    0    0    0    0  0.00000000000E+00  0.00000000000E+00  0.99999998245E-14  0.12500000000E+03  0.12500000000E+03 0.  0.
        -13    1    3    3    0    0 -0.29044233029E+01  0.73191300926E+01 -0.43815321740E+02  0.44517400230E+02  0.10566000000E+00 0. -1.
         23    2    1    0    0    0 -0.19459617796E+02  0.22167400300E+02  0.19901921233E+01  0.95435980897E+02  0.90741364461E+02 0.  0.
         13    1    3    3    0    0 -0.16555194493E+02  0.14848270207E+02  0.45805513863E+02  0.50918580667E+02  0.10566000000E+00 0.  1.
         22    1    1    0    0    0  0.19459617796E+02 -0.22167400300E+02 -0.19901921233E+01  0.29564019103E+02  0.00000000000E+00 0. -1.
</event>
<event>
 5    1  0.1285375E-004  0.9118800E+02  0.7818608E-02  0.1130116E+00
         25   -1    0    0    0    0  0.00000000000E+00  0.00000000000E+00  0.99999998245E-14  0.12500000000E+03  0.12500000000E+03 0.  0.
        -13    1    3    3    0    0 -0.30317429637E+02 -0.82307070166E+01 -0.13623229096E+02  0.34241708673E+02  0.10566000000E+00 0.  1.
         23    2    1    0    0    0  0.19223800558E+02 -0.11904927353E+02  0.20475129824E+02  0.94495693017E+02  0.89436699706E+02 0.  0.
         13    1    3    3    0    0  0.49541230195E+02 -0.36742203364E+01  0.34098358920E+02  0.60253984345E+02  0.10566000000E+00 0. -1.
         22    1    1    0    0    0 -0.19223800558E+02  0.11904927353E+02 -0.20475129824E+02  0.30504306983E+02  0.00000000000E+00 0. -1.
</event>
<event>
 5    1  0.1285375E-004  0.9118800E+02  0.7818608E-02  0.1130116E+00
         25   -1    0    0    0    0  0.00000000000E+00  0.00000000000E+00  0.99999998245E-14  0.12500000000E+03  0.12500000000E+03 0.  0.
        -13    1    3    3    0    0  0.92745738394E+01 -0.24846998673E+02 -0.46992009663E+02  0.53959718302E+02  0.10566000000E+00 0.  1.
         23    2    1    0    0    0  0.25692889097E+02 -0.48836117172E+01 -0.15898327804E+02  0.94393937847E+02  0.89294369709E+02 0.  0.
         13    1    3    3    0    0  0.16418315257E+02  0.19963386956E+02  0.31093681859E+02  0.40434219545E+02  0.10566000000E+00 0. -1.
         22    1    1    0    0    0 -0.25692889097E+02  0.48836117172E+01  0.15898327804E+02  0.30606062153E+02  0.00000000000E+00 0.  1.
</event>
<event>
 5    1  0.1285375E-004  0.9118800E+02  0.7818608E-02  0.1130116E+00
         25   -1    0    0    0    0  0.00000000000E+00  0.00000000000E+00  0.99999998245E-14  0.12500000000E+03  0.12500000000E+03 0.  0.
        -13    1    3    3    0    0  0.19143498465E+02 -0.14768035331E+02  0.26466200175E+02  0.35847445052E+02  0.10566000000E+00 0.  1.
         23    2    1    0    0    0  0.81638663882E+01  0.20209894082E+02 -0.20261842941E+02  0.95240450061E+02  0.90471611655E+02 0.  0.
         13    1    3    3    0    0 -0.10979632077E+02  0.34977929413E+02 -0.46728043116E+02  0.59393005009E+02  0.10566000000E+00 0. -1.
         22    1    1    0    0    0 -0.81638663882E+01 -0.20209894082E+02  0.20261842941E+02  0.29759549939E+02  0.00000000000E+00 0. -1.
</event>
<event>
 5    1  0.1285375E-004  0.9118800E+02  0.7818608E-02  0.1130116E+00
         25   -1    0    0    0    0  0.00000000000E+00  0.00000000000E+00  0.99999998245E-14  0.12500000000E+03  0.12500000000E+03 0.  0.
        -13    1    3    3    0    0 -0.37616386089E+02 -0.16705070110E+00 -0.34453282561E+00  0.37618483160E+02  0.10566000000E+00 0. -1.
         23    2    1    0    0    0  0.14210785646E+02 -0.69748856854E+01 -0.24996600509E+02  0.95412409764E+02  0.90708888434E+02 0.  0.
         13    1    3    3    0    0  0.51827171735E+02 -0.68078349843E+01 -0.24652067683E+02  0.57793926604E+02  0.10566000000E+00 0.  1.
         22    1    1    0    0    0 -0.14210785646E+02  0.69748856854E+01  0.24996600509E+02  0.29587590236E+02  0.00000000000E+00 0.  1.
</event>
<event>
 5    1  0.1285375E-004  0.9118800E+02  0.7818608E-02  0.1130116E+00
         25   -1    0    0    0    0  0.00000000000E+00  0.00000000000E+00  0.99999998245E-14  0.12500000000E+03  0.12500000000E+03 0.  0.
        -13    1    3    3    0    0 -0.42927079505E+02  0.11742458972E+02  0.16513121838E+02  0.47469083143E+02  0.10566000000E+00 0. -1.
         23    2    1    0    0    0 -0.88435185997E+01  0.21843486234E+02 -0.16698074633E+02  0.96117974300E+02  0.91676025083E+02 0.  0.
         13    1    3    3    0    0  0.34083560906E+02  0.10101027262E+02 -0.33211196471E+02  0.48648891157E+02  0.10566000000E+00 0.  1.
         22    1    1    0    0    0  0.88435185997E+01 -0.21843486234E+02  0.16698074633E+02  0.28882025700E+02  0.00000000000E+00 0.  1.
</event>
<event>
 5    1  0.1285375E-004  0.9118800E+02  0.7818608E-02  0.1130116E+00
         25   -1    0    0    0    0  0.00000000000E+00  0.00000000000E+00  0.99999998245E-14  0.12500000000E+03  0.12500000000E+03 0.  0.
        -13    1    3    3    0    0  0.25588192568E+02 -0.17611569130E+02 -0.15837318244E+02  0.34867675278E+02  0.10566000000E+00 0.  1.
         23    2    1    0    0    0 -0.22777066680E+02  0.17664357080E+02 -0.64612361200E+01  0.95460672828E+02  0.90775372249E+02 0.  0.
         13    1    3    3    0    0 -0.48365259248E+02  0.35275926210E+02  0.93760821236E+01  0.60592997550E+02  0.10566000000E+00 0. -1.
         22    1    1    0    0    0  0.22777066680E+02 -0.17664357080E+02  0.64612361200E+01  0.29539327172E+02  0.00000000000E+00 0. -1.
</event>
<event>
 5    1  0.1285375E-004  0.9118800E+02  0.7818608E-02  0.1130116E+00
         25   -1    0    0    0    0  0.00000000000E+00  0.00000000000E+00  0.99999998245E-14  0.12500000000E+03  0.12500000000E+03 0.  0.
        -13    1    3    3    0    0  0.32239033150E+02  0.30189929714E+02 -0.16934165546E+02  0.47302898868E+02  0.10566000000E+00 0.  1.
         23    2    1    0    0    0  0.15211362786E+02  0.82177732322E+01  0.23164606423E+02  0.96094700391E+02  0.91644285680E+02 0.  0.
         13    1    3    3    0    0 -0.17027670363E+02 -0.21972156482E+02  0.40098771969E+02  0.48791801523E+02  0.10566000000E+00 0. -1.
         22    1    1    0    0    0 -0.15211362786E+02 -0.82177732322E+01 -0.23164606423E+02  0.28905299609E+02  0.00000000000E+00 0.  1.
</event>
<event>
 5    1  0.1285375E-004  0.9118800E+02  0.7818608E-02  0.1130116E+00
         25   -1    0    0    0    0  0.00000000000E+00  0.00000000000E+00  0.99999998245E-14  0.12500000000E+03  0.12500000000E+03 0.  0.
        -13    1    3    3    0    0  0.22865777841E+02 -0.35811041200E+02 -0.38505429415E+02  0.57340681253E+02  0.10566000000E+00 0.  1.
         23    2    1    0    0    0  0.17602067899E+02  0.13384467544E+00 -0.20791803843E+02  0.97757573240E+02  0.93885000453E+02 0.  0.
         13    1    3    3    0    0 -0.52637099420E+01  0.35944885876E+02  0.17713625572E+02  0.40416891987E+02  0.10566000000E+00 0. -1.
         22    1    1    0    0    0 -0.17602067899E+02 -0.13384467544E+00  0.20791803843E+02  0.27242426760E+02  0.00000000000E+00 0.  1.
</event>
<event>
 5    1  0.1285375E-004  0.9118800E+02  0.7818608E-02  0.1130116E+00
         25   -1    0    0    0    0  0.00000000000E+00  0.00000000000E+00  0.99999998245E-14  0.12500000000E+03  0.12500000000E+03 0.  0.
        -13    1    3    3    0    0  0.16650694076E+02 -0.50217839346E+02  0.17038402630E+02  0.55582329297E+02  0.10566000000E+00 0.  1.
         23    2    1    0    0    0 -0.12550288938E+02 -0.21008221581E+02  0.13538765179E+02  0.97032996425E+02  0.92915279186E+02 0.  0.
         13    1    3    3    0    0 -0.29200983014E+02  0.29209617766E+02 -0.34996374514E+01  0.41450667128E+02  0.10566000000E+00 0. -1.
         22    1    1    0    0    0  0.12550288938E+02  0.21008221581E+02 -0.13538765179E+02  0.27967003575E+02  0.00000000000E+00 0.  1.
</event>
<event>
 5    1  0.1285375E-004  0.9118800E+02  0.7818608E-02  0.1130116E+00
         25   -1    0    0    0    0  0.00000000000E+00  0.00000000000E+00  0.99999998245E-14  0.12500000000E+03  0.12500000000E+03 0.  0.
        -13    1    3    3    0    0  0.26096535636E+02  0.23606442128E+02  0.70981227612E+01  0.35898297911E+02  0.10566000000E+00 0.  1.
         23    2    1    0    0    0 -0.26559700155E+02 -0.23793746188E+01  0.13757879113E+02  0.94994028368E+02  0.90130500343E+02 0.  0.
         13    1    3    3    0    0 -0.52656235790E+02 -0.25985816746E+02  0.66597563521E+01  0.59095730457E+02  0.10566000000E+00 0. -1.
         22    1    1    0    0    0  0.26559700155E+02  0.23793746188E+01 -0.13757879113E+02  0.30005971632E+02  0.00000000000E+00 0. -1.
</event>
<event>
 5    1  0.1285375E-004  0.9118800E+02  0.7818608E-02  0.1130116E+00
         25   -1    0    0    0    0  0.00000000000E+00  0.00000000000E+00  0.99999998245E-14  0.12500000000E+03  0.12500000000E+03 0.  0.
        -13    1    3    3    0    0  0.13796739857E+02  0.34558911169E+02  0.44490850762E+01  0.37476311104E+02  0.10566000000E+00 0.  1.
         23    2    1    0    0    0  0.18614096803E+02 -0.21156949656E+02  0.12851852581E+02  0.94027895885E+02  0.88780481927E+02 0.  0.
         13    1    3    3    0    0  0.48173569453E+01 -0.55715860826E+02  0.84027675050E+01  0.56551584781E+02  0.10566000000E+00 0. -1.
         22    1    1    0    0    0 -0.18614096803E+02  0.21156949656E+02 -0.12851852581E+02  0.30972104115E+02  0.00000000000E+00 0. -1.
</event>
<event>
 5    1  0.1285375E-004  0.9118800E+02  0.7818608E-02  0.1130116E+00
         25   -1    0    0    0    0  0.00000000000E+00  0.00000000000E+00  0.99999998245E-14  0.12500000000E+03  0.12500000000E+03 0.  0.
        -13    1    3    3    0    0 -0.16377806026E+02  0.32895483406E+02  0.73925028301E+01  0.37483404606E+02  0.10566000000E+00 0.  1.
         23    2    1    0    0    0 -0.14648127785E+02 -0.18064354716E+02 -0.19064222323E+02  0.94927867856E+02  0.90038697036E+02 0.  0.
         13    1    3    3    0    0  0.17296782409E+01 -0.50959838122E+02 -0.26456725153E+02  0.57444463250E+02  0.10566000000E+00 0. -1.
         22    1    1    0    0    0  0.14648127785E+02  0.18064354716E+02  0.19064222323E+02  0.30072132144E+02  0.00000000000E+00 0. -1.
</event>
<event>
 5    1  0.1285375E-004  0.9118800E+02  0.7818608E-02  0.1130116E+00
         25   -1    0    0    0    0  0.00000000000E+00  0.00000000000E+00  0.99999998245E-14  0.12500000000E+03  0.12500000000E+03 0.  0.
        -13    1    3    3    0    0 -0.25867171329E+01 -0.78298304164E+01 -0.32371080038E+02  0.33405019634E+02  0.10566000000E+00 0.  1.
         23    2    1    0    0    0  0.94613618385E+01  0.11179946094E+02  0.25552637901E+02  0.95547566040E+02  0.90894947659E+02 0.  0.
         13    1    3    3    0    0  0.12048078971E+02  0.19009776510E+02  0.57923717939E+02  0.62142546406E+02  0.10566000000E+00 0. -1.
         22    1    1    0    0    0 -0.94613618385E+01 -0.11179946094E+02 -0.25552637901E+02  0.29452433960E+02  0.00000000000E+00 0. -1.
</event>
<event>
 5    1  0.1285375E-004  0.9118800E+02  0.7818608E-02  0.1130116E+00
         25   -1    0    0    0    0  0.00000000000E+00  0.00000000000E+00  0.99999998245E-14  0.12500000000E+03  0.12500000000E+03 0.  0.
        -13    1    3    3    0    0  0.18532571985E+02 -0.15901082774E+02 -0.33143730987E+02  0.41168176126E+02  0.10566000000E+00 0. -1.
         23    2    1    0    0    0  0.47197502023E+01 -0.20251294325E+02  0.19939068658E+02  0.96191018367E+02  0.91775566420E+02 0.  0.
         13    1    3    3    0    0 -0.13812821782E+02 -0.43502115512E+01  0.53082799645E+02  0.55022842241E+02  0.10566000000E+00 0.  1.
         22    1    1    0    0    0 -0.47197502023E+01  0.20251294325E+02 -0.19939068658E+02  0.28808981633E+02  0.00000000000E+00 0.  1.
</event>
<event>
 5    1  0.1285375E-004  0.9118800E+02  0.7818608E-02  0.1130116E+00
         25   -1    0    0    0    0  0.00000000000E+00  0.00000000000E+00  0.99999998245E-14  0.12500000000E+03  0.12500000000E+03 0.  0.
        -13    1    3    3    0    0  0.25873014141E+02 -0.71859378232E+01  0.47932992239E+02  0.54942091989E+02  0.10566000000E+00 0. -1.
         23    2    1    0    0    0  0.14939453614E+02  0.17886168760E+02  0.17530376934E+02  0.95838099811E+02  0.91293619452E+02 0.  0.
         13    1    3    3    0    0 -0.10933560527E+02  0.25072106583E+02 -0.30402615305E+02  0.40896007821E+02  0.10566000000E+00 0.  1.
         22    1    1    0    0    0 -0.14939453614E+02 -0.17886168760E+02 -0.17530376934E+02  0.29161900189E+02  0.00000000000E+00 0. -1.
</event>
<event>
 5    1  0.1285375E-004  0.9118800E+02  0.7818608E-02  0.1130116E+00
         25   -1    0    0    0    0  0.00000000000E+00  0.00000000000E+00  0.99999998245E-14  0.12500000000E+03  0.12500000000E+03 0.  0.
        -13    1    3    3    0    0 -0.32663225242E+02  0.45111113623E+02  0.21019832842E+00  0.55695190124E+02  0.10566000000E+00 0.  1.
         23    2    1    0    0    0 -0.68153943143E+01  0.16562060054E+02  0.19292968583E+02  0.98675675324E+02  0.95099520667E+02 0.  0.
         13    1    3    3    0    0  0.25847830928E+02 -0.28549053570E+02  0.19082770255E+02  0.42980485200E+02  0.10566000000E+00 0. -1.
         22    1    1    0    0    0  0.68153943143E+01 -0.16562060054E+02 -0.19292968583E+02  0.26324324676E+02  0.00000000000E+00 0.  1.
</event>
<event>
 5    1  0.1285375E-004  0.9118800E+02  0.7818608E-02  0.1130116E+00
         25   -1    0    0    0    0  0.00000000000E+00  0.00000000000E+00  0.99999998245E-14  0.12500000000E+03  0.12500000000E+03 0.  0.
        -13    1    3    3    0    0 -0.26386577625E+02 -0.69141356367E+01 -0.35669527564E+02  0.44904154720E+02  0.10566000000E+00 0. -1.
         23    2    1    0    0    0  0.18725826873E+02  0.74774828717E+01 -0.23963222979E+02  0.93682187213E+02  0.88292393802E+02 0.  0.
         13    1    3    3    0    0  0.45112404498E+02  0.14391618508E+02  0.11706304585E+02  0.48778032494E+02  0.10566000000E+00 0.  1.
         22    1    1    0    0    0 -0.18725826873E+02 -0.74774828717E+01  0.23963222979E+02  0.31317812787E+02  0.00000000000E+00 0.  1.
</event>
<event>
 5    1  0.1285375E-004  0.9118800E+02  0.7818608E-02  0.1130116E+00
         25   -1    0    0    0    0  0.00000000000E+00  0.00000000000E+00  0.99999998245E-14  0.12500000000E+03  0.12500000000E+03 0.  0.
        -13    1    3    3    0    0  0.41750285771E+02  0.27341441692E+02 -0.10249816390E+02  0.50948117686E+02  0.10566000000E+00 0.  1.
         23    2    1    0    0    0  0.15805304824E+02  0.10610714181E+02  0.22212407477E+02  0.95746180387E+02  0.91167675724E+02 0.  0.
         13    1    3    3    0    0 -0.25944980947E+02 -0.16730727511E+02  0.32462223867E+02  0.44798062701E+02  0.10566000000E+00 0. -1.
         22    1    1    0    0    0 -0.15805304824E+02 -0.10610714181E+02 -0.22212407477E+02  0.29253819613E+02  0.00000000000E+00 0.  1.
</event>
<event>
 5    1  0.1285375E-004  0.9118800E+02  0.7818608E-02  0.1130116E+00
         25   -1    0    0    0    0  0.00000000000E+00  0.00000000000E+00  0.99999998245E-14  0.12500000000E+03  0.12500000000E+03 0.  0.
        -13    1    3    3    0    0 -0.17707125643E+02 -0.38184211704E+02  0.98346127013E+01  0.43223918067E+02  0.10566000000E+00 0.  1.
         23    2    1    0    0    0  0.10429542944E+01 -0.58265479010E+01 -0.27975747901E+02  0.96404915025E+02  0.92066436643E+02 0.  0.
         13    1    3    3    0    0  0.18750079938E+02  0.32357663803E+02 -0.37810360603E+02  0.53180996958E+02  0.10566000000E+00 0. -1.
         22    1    1    0    0    0 -0.10429542944E+01  0.58265479010E+01  0.27975747901E+02  0.28595084975E+02  0.00000000000E+00 0. -1.
</event>
<event>
 5    1  0.1285375E-004  0.9118800E+02  0.7818608E-02  0.1130116E+00
         25   -1    0    0    0    0  0.00000000000E+00  0.00000000000E+00  0.99999998245E-14  0.12500000000E+03  0.12500000000E+03 0.  0.
        -13    1    3    3    0    0  0.28426255579E+02 -0.29126054559E+02  0.44177287912E+02  0.60066821056E+02  0.10566000000E+00 0.  1.
         23    2    1    0    0    0  0.23508533707E+02 -0.10087813544E+02  0.14715090081E+02  0.95488154662E+02  0.90813207550E+02 0.  0.
         13    1    3    3    0    0 -0.49177218723E+01  0.19038241015E+02 -0.29462197831E+02  0.35421333606E+02  0.10566000000E+00 0. -1.
         22    1    1    0    0    0 -0.23508533707E+02  0.10087813544E+02 -0.14715090081E+02  0.29511845338E+02  0.00000000000E+00 0.  1.
</event>
<event>
 5    1  0.1285375E-004  0.9118800E+02  0.7818608E-02  0.1130116E+00
         25   -1    0    0    0    0  0.00000000000E+00  0.00000000000E+00  0.99999998245E-14  0.12500000000E+03  0.12500000000E+03 0.  0.
        -13    1    3    3    0    0  0.69694298179E+01  0.32928631225E+02  0.49127955223E+02  0.59551950890E+02  0.10566000000E+00 0.  1.
         23    2    1    0    0    0  0.15672561905E+02  0.99447429373E+01  0.23402259785E+02  0.95130402216E+02  0.90319436192E+02 0.  0.
         13    1    3    3    0    0  0.87031320872E+01 -0.22983888288E+02 -0.25725695438E+02  0.35578451326E+02  0.10566000000E+00 0. -1.
         22    1    1    0    0    0 -0.15672561905E+02 -0.99447429373E+01 -0.23402259785E+02  0.29869597784E+02  0.00000000000E+00 0.  1.
</event>
<event>
 5    1  0.1285375E-004  0.9118800E+02  0.7818608E-02  0.1130116E+00
         25   -1    0    0    0    0  0.00000000000E+00  0.00000000000E+00  0.99999998245E-14  0.12500000000E+03  0.12500000000E+03 0.  0.
        -13    1    3    3    0    0  0.19882046434E+02  0.19051803193E+02  0.52626134273E+02  0.59395186235E+02  0.10566000000E+00 0.  1.
         23    2    1    0    0    0  0.69284394997E+00  0.19502129399E+02  0.21495621019E+02  0.95967693739E+02  0.91470888455E+02 0.  0.
         13    1    3    3    0    0 -0.19189202484E+02  0.45032620592E+00 -0.31130513254E+02  0.36572507504E+02  0.10566000000E+00 0. -1.
         22    1    1    0    0    0 -0.69284394997E+00 -0.19502129399E+02 -0.21495621019E+02  0.29032306261E+02  0.00000000000E+00 0.  1.
</event>
<event>
 5    1  0.1285375E-004  0.9118800E+02  0.7818608E-02  0.1130116E+00
         25   -1    0    0    0    0  0.00000000000E+00  0.00000000000E+00  0.99999998245E-14  0.12500000000E+03  0.12500000000E+03 0.  0.
        -13    1    3    3    0    0 -0.80339926895E+01 -0.28927750477E+01 -0.36815733222E+02  0.37793154971E+02  0.10566000000E+00 0. -1.
         23    2    1    0    0    0  0.58312803104E+00  0.26616768503E+02  0.12249702262E+02  0.95693898087E+02  0.91095963257E+02 0.  0.
         13    1    3    3    0    0  0.86171207205E+01  0.29509543551E+02  0.49065435484E+02  0.57900743115E+02  0.10566000000E+00 0.  1.
         22    1    1    0    0    0 -0.58312803104E+00 -0.26616768503E+02 -0.12249702262E+02  0.29306101913E+02  0.00000000000E+00 0.  1.
</event>
<event>
 5    1  0.1285375E-004  0.9118800E+02  0.7818608E-02  0.1130116E+00
         25   -1    0    0    0    0  0.00000000000E+00  0.00000000000E+00  0.99999998245E-14  0.12500000000E+03  0.12500000000E+03 0.  0.
        -13    1    3    3    0    0 -0.22595256364E+02 -0.11966615646E+02  0.22584729494E+02  0.34114903936E+02  0.10566000000E+00 0. -1.
         23    2    1    0    0    0  0.24407854280E+02  0.86993321391E+01 -0.12427807040E+02  0.96262009151E+02  0.91872206285E+02 0.  0.
         13    1    3    3    0    0  0.47003110644E+02  0.20665947785E+02 -0.35012536534E+02  0.62147105215E+02  0.10566000000E+00 0.  1.
         22    1    1    0    0    0 -0.24407854280E+02 -0.86993321391E+01  0.12427807040E+02  0.28737990849E+02  0.00000000000E+00 0.  1.
</event>
<event>
 5    1  0.1285375E-004  0.9118800E+02  0.7818608E-02  0.1130116E+00
         25   -1    0    0    0    0  0.00000000000E+00  0.00000000000E+00  0.99999998245E-14  0.12500000000E+03  0.12500000000E+03 0.  0.
        -13    1    3    3    0    0  0.37265327208E+02 -0.14817766656E+02 -0.49830394925E+01  0.40411788716E+02  0.10566000000E+00 0. -1.
         23    2    1    0    0    0 -0.15029618427E+02  0.13842912770E+01 -0.22511667647E+02  0.97896847551E+02  0.94070249749E+02 0.  0.
         13    1    3    3    0    0 -0.52294945635E+02  0.16202057933E+02 -0.17528628155E+02  0.57485058835E+02  0.10566000000E+00 0.  1.
         22    1    1    0    0    0  0.15029618427E+02 -0.13842912770E+01  0.22511667647E+02  0.27103152449E+02  0.00000000000E+00 0.  1.
</event>
<event>
 5    1  0.1285375E-004  0.9118800E+02  0.7818608E-02  0.1130116E+00
         25   -1    0    0    0    0  0.00000000000E+00  0.00000000000E+00  0.99999998245E-14  0.12500000000E+03  0.12500000000E+03 0.  0.
        -13    1    3    3    0    0  0.26730657173E+02  0.44059643802E+02  0.64443029087E+00  0.51538400240E+02  0.10566000000E+00 0.  1.
         23    2    1    0    0    0 -0.11447416004E+02  0.26266478770E+02  0.99388216615E+01  0.94672596284E+02  0.89683605364E+02 0.  0.
         13    1    3    3    0    0 -0.38178073177E+02 -0.17793165033E+02  0.92943913706E+01  0.43134196044E+02  0.10566000000E+00 0. -1.
         22    1    1    0    0    0  0.11447416004E+02 -0.26266478770E+02 -0.99388216615E+01  0.30327403716E+02  0.00000000000E+00 0.  1.
</event>
<event>
 5    1  0.1285375E-004  0.9118800E+02  0.7818608E-02  0.1130116E+00
         25   -1    0    0    0    0  0.00000000000E+00  0.00000000000E+00  0.99999998245E-14  0.12500000000E+03  0.12500000000E+03 0.  0.
        -13    1    3    3    0    0  0.37954486384E+02 -0.44263158304E+02  0.96105385403E+01  0.59094363816E+02  0.10566000000E+00 0. -1.
         23    2    1    0    0    0  0.11726692509E+02 -0.27647156345E+02 -0.67936307192E+01  0.94209839404E+02  0.89036283901E+02 0.  0.
         13    1    3    3    0    0 -0.26227793875E+02  0.16616001959E+02 -0.16404169259E+02  0.35115475588E+02  0.10566000000E+00 0.  1.
         22    1    1    0    0    0 -0.11726692509E+02  0.27647156345E+02  0.67936307192E+01  0.30790160596E+02  0.00000000000E+00 0. -1.
</event>
<event>
 5    1  0.1285375E-004  0.9118800E+02  0.7818608E-02  0.1130116E+00
         25   -1    0    0    0    0  0.00000000000E+00  0.00000000000E+00  0.99999998245E-14  0.12500000000E+03  0.12500000000E+03 0.  0.
        -13    1    3    3    0    0 -0.38640939778E+02 -0.28035093302E+02  0.19543419127E+01  0.47779904769E+02  0.10566000000E+00 0. -1.
         23    2    1    0    0    0  0.14504000000E+02 -0.17598267198E+02 -0.21416098116E+01  0.10209472731E+03  0.99492119425E+02 0.  0.
         13    1    3    3    0    0  0.53144939778E+02  0.10436826104E+02 -0.40959517243E+01  0.54314822541E+02  0.10566000000E+00 0.  1.
         22    1    1    0    0    0 -0.14504000000E+02  0.17598267198E+02  0.21416098116E+01  0.22905272689E+02  0.00000000000E+00 0. -1.
</event>
<event>
 5    1  0.1285375E-004  0.9118800E+02  0.7818608E-02  0.1130116E+00
         25   -1    0    0    0    0  0.00000000000E+00  0.00000000000E+00  0.99999998245E-14  0.12500000000E+03  0.12500000000E+03 0.  0.
        -13    1    3    3    0    0  0.28816930570E+02  0.20854021961E+00  0.24620398366E+02  0.37902957091E+02  0.10566000000E+00 0.  1.
         23    2    1    0    0    0 -0.26851763556E+02 -0.53006771683E+01  0.11173459366E+02  0.95437175731E+02  0.90743010380E+02 0.  0.
         13    1    3    3    0    0 -0.55668694127E+02 -0.55092173879E+01 -0.13446939000E+02  0.57534218640E+02  0.10566000000E+00 0. -1.
         22    1    1    0    0    0  0.26851763556E+02  0.53006771683E+01 -0.11173459366E+02  0.29562824269E+02  0.00000000000E+00 0. -1.
</event>
<event>
 5    1  0.1285375E-004  0.9118800E+02  0.7818608E-02  0.1130116E+00
         25   -1    0    0    0    0  0.00000000000E+00  0.00000000000E+00  0.99999998245E-14  0.12500000000E+03  0.12500000000E+03 0.  0.
        -13    1    3    3    0    0  0.68616476294E+01  0.45201236422E+02 -0.35664330855E+02  0.57984391362E+02  0.10566000000E+00 0. -1.
         23    2    1    0    0    0  0.12508262400E+02  0.12700722677E+02 -0.27929449191E+02  0.91866646459E+02  0.85683496746E+02 0.  0.
         13    1    3    3    0    0  0.56466147703E+01 -0.32500513745E+02  0.77348816635E+01  0.33882255097E+02  0.10566000000E+00 0.  1.
         22    1    1    0    0    0 -0.12508262400E+02 -0.12700722677E+02  0.27929449191E+02  0.33133353541E+02  0.00000000000E+00 0. -1.
</event>
<event>
 5    1  0.1285375E-004  0.9118800E+02  0.7818608E-02  0.1130116E+00
         25   -1    0    0    0    0  0.00000000000E+00  0.00000000000E+00  0.99999998245E-14  0.12500000000E+03  0.12500000000E+03 0.  0.
        -13    1    3    3    0    0  0.21422085448E+02 -0.45131452880E+01  0.31897676596E+02  0.38687816708E+02  0.10566000000E+00 0.  1.
         23    2    1    0    0    0 -0.27215077554E+02 -0.76111236744E+01  0.35901914514E+00  0.96738390976E+02  0.92518094144E+02 0.  0.
         13    1    3    3    0    0 -0.48637163003E+02 -0.30979783863E+01 -0.31538657451E+02  0.58050574268E+02  0.10566000000E+00 0. -1.
         22    1    1    0    0    0  0.27215077554E+02  0.76111236744E+01 -0.35901914514E+00  0.28261609024E+02  0.00000000000E+00 0. -1.
</event>
<event>
 5    1  0.1285375E-004  0.9118800E+02  0.7818608E-02  0.1130116E+00
         25   -1    0    0    0    0  0.00000000000E+00  0.00000000000E+00  0.99999998245E-14  0.12500000000E+03  0.12500000000E+03 0.  0.
        -13    1    3    3    0    0 -0.16509788079E+01 -0.21360511685E+02 -0.18071274718E+02  0.28028188033E+02  0.10566000000E+00 0. -1.
         23    2    1    0    0    0 -0.35323059986E+02 -0.19572746802E+02  0.20872426365E+02  0.79541566608E+02  0.65271675725E+02 0.  0.
         13    1    3    3    0    0 -0.33672081178E+02  0.17877648831E+01  0.38943701082E+02  0.51513378574E+02  0.10566000000E+00 0.  1.
         22    1    1    0    0    0  0.35323059986E+02  0.19572746802E+02 -0.20872426365E+02  0.45458433392E+02  0.00000000000E+00 0.  1.
</event>
<event>
 5    1  0.1285375E-004  0.9118800E+02  0.7818608E-02  0.1130116E+00
         25   -1    0    0    0    0  0.00000000000E+00  0.00000000000E+00  0.99999998245E-14  0.12500000000E+03  0.12500000000E+03 0.  0.
        -13    1    3    3    0    0 -0.26934110376E+01  0.41155253399E+02  0.22094963358E+02  0.46788972153E+02  0.10566000000E+00 0.  1.
         23    2    1    0    0    0 -0.51995072340E+01 -0.81396795970E+01  0.26936146376E+02  0.96384527944E+02  0.92038752632E+02 0.  0.
         13    1    3    3    0    0 -0.25060961964E+01 -0.49294932996E+02  0.48411830180E+01  0.49595555791E+02  0.10566000000E+00 0. -1.
         22    1    1    0    0    0  0.51995072340E+01  0.81396795970E+01 -0.26936146376E+02  0.28615472056E+02  0.00000000000E+00 0.  1.
</event>
<event>
 5    1  0.1285375E-004  0.9118800E+02  0.7818608E-02  0.1130116E+00
         25   -1    0    0    0    0  0.00000000000E+00  0.00000000000E+00  0.99999998245E-14  0.12500000000E+03  0.12500000000E+03 0.  0.
        -13    1    3    3    0    0 -0.43375851828E+02 -0.15362430648E+02 -0.18744250487E+02  0.49687291007E+02  0.10566000000E+00 0. -1.
         23    2    1    0    0    0  0.82929276197E-01 -0.24431533898E+02 -0.18946318961E+02  0.94082857053E+02  0.88857831749E+02 0.  0.
         13    1    3    3    0    0  0.43458781104E+02 -0.90691032503E+01 -0.20206847404E+00  0.44395566046E+02  0.10566000000E+00 0.  1.
         22    1    1    0    0    0 -0.82929276197E-01  0.24431533898E+02  0.18946318961E+02  0.30917142947E+02  0.00000000000E+00 0.  1.
</event>
<event>
 5    1  0.1285375E-004  0.9118800E+02  0.7818608E-02  0.1130116E+00
         25   -1    0    0    0    0  0.00000000000E+00  0.00000000000E+00  0.99999998245E-14  0.12500000000E+03  0.12500000000E+03 0.  0.
        -13    1    3    3    0    0  0.48470587275E+02 -0.13052162850E+02 -0.21530638587E+02  0.54619926289E+02  0.10566000000E+00 0.  1.
         23    2    1    0    0    0  0.18106176395E+02 -0.25265458737E+02  0.21783913832E+00  0.93915848367E+02  0.88622582290E+02 0.  0.
         13    1    3    3    0    0 -0.30364410880E+02 -0.12213295887E+02  0.21748477726E+02  0.39295922077E+02  0.10566000000E+00 0. -1.
         22    1    1    0    0    0 -0.18106176395E+02  0.25265458737E+02 -0.21783913832E+00  0.31084151633E+02  0.00000000000E+00 0. -1.
</event>
<event>
 5    1  0.1285375E-004  0.9118800E+02  0.7818608E-02  0.1130116E+00
         25   -1    0    0    0    0  0.00000000000E+00  0.00000000000E+00  0.99999998245E-14  0.12500000000E+03  0.12500000000E+03 0.  0.
        -13    1    3    3    0    0 -0.31520351003E+02  0.22213096752E+01 -0.37980615879E+02  0.49406528825E+02  0.10566000000E+00 0.  1.
         23    2    1    0    0    0  0.90725987575E+01  0.17370438656E+02 -0.21874507510E+02  0.95630998210E+02  0.91009612418E+02 0.  0.
         13    1    3    3    0    0  0.40592949760E+02  0.15149128981E+02  0.16106108369E+02  0.46224469385E+02  0.10566000000E+00 0. -1.
         22    1    1    0    0    0 -0.90725987575E+01 -0.17370438656E+02  0.21874507510E+02  0.29369001790E+02  0.00000000000E+00 0.  1.
</event>
<event>
 5    1  0.1285375E-004  0.9118800E+02  0.7818608E-02  0.1130116E+00
         25   -1    0    0    0    0  0.00000000000E+00  0.00000000000E+00  0.99999998245E-14  0.12500000000E+03  0.12500000000E+03 0.  0.
        -13    1    3    3    0    0  0.28990130266E+02  0.21520947720E+02 -0.70804045215E+00  0.36112204709E+02  0.10566000000E+00 0.  1.
         23    2    1    0    0    0 -0.22673433348E+02 -0.55820719050E+01  0.15874606371E+02  0.96764433174E+02  0.92553272733E+02 0.  0.
         13    1    3    3    0    0 -0.51663563614E+02 -0.27103019625E+02  0.16582646823E+02  0.60652228465E+02  0.10566000000E+00 0. -1.
         22    1    1    0    0    0  0.22673433348E+02  0.55820719050E+01 -0.15874606371E+02  0.28235566826E+02  0.00000000000E+00 0. -1.
</event>
<event>
 5    1  0.1285375E-004  0.9118800E+02  0.7818608E-02  0.1130116E+00
         25   -1    0    0    0    0  0.00000000000E+00  0.00000000000E+00  0.99999998245E-14  0.12500000000E+03  0.12500000000E+03 0.  0.
        -13    1    3    3    0    0 -0.86619165479E+01  0.12622594752E+02  0.57533815801E+02  0.59535786056E+02  0.10566000000E+00 0.  1.
         23    2    1    0    0    0 -0.16566880968E+02  0.73967026229E+01  0.21146222343E+02  0.97137202688E+02  0.93055363478E+02 0.  0.
         13    1    3    3    0    0 -0.79049644196E+01 -0.52258921293E+01 -0.36387593459E+02  0.37601416632E+02  0.10566000000E+00 0. -1.
         22    1    1    0    0    0  0.16566880968E+02 -0.73967026229E+01 -0.21146222343E+02  0.27862797312E+02  0.00000000000E+00 0.  1.
</event>
<event>
 5    1  0.1285375E-004  0.9118800E+02  0.7818608E-02  0.1130116E+00
         25   -1    0    0    0    0  0.00000000000E+00  0.00000000000E+00  0.99999998245E-14  0.12500000000E+03  0.12500000000E+03 0.  0.
        -13    1    3    3    0    0  0.87134022810E+01  0.38579710987E+02  0.37425824613E+02  0.54452006310E+02  0.10566000000E+00 0.  1.
         23    2    1    0    0    0  0.24815788390E+02  0.12844889279E+02  0.10127244562E+02  0.95278364507E+02  0.90523980948E+02 0.  0.
         13    1    3    3    0    0  0.16102386109E+02 -0.25734821708E+02 -0.27298580051E+02  0.40826358197E+02  0.10566000000E+00 0. -1.
         22    1    1    0    0    0 -0.24815788390E+02 -0.12844889279E+02 -0.10127244562E+02  0.29721635493E+02  0.00000000000E+00 0.  1.
</event>
<event>
 5    1  0.1285375E-004  0.9118800E+02  0.7818608E-02  0.1130116E+00
         25   -1    0    0    0    0  0.00000000000E+00  0.00000000000E+00  0.99999998245E-14  0.12500000000E+03  0.12500000000E+03 0.  0.
        -13    1    3    3    0    0  0.29770280486E+02 -0.24198792623E+01  0.31578825552E+01  0.30035126138E+02  0.10566000000E+00 0.  1.
         23    2    1    0    0    0  0.35888725005E-01 -0.23110867769E+01 -0.41362904222E+02  0.83572566387E+02  0.72581964680E+02 0.  0.
         13    1    3    3    0    0 -0.29734391761E+02  0.10879248535E+00 -0.44520786777E+02  0.53537440249E+02  0.10566000000E+00 0. -1.
         22    1    1    0    0    0 -0.35888725005E-01  0.23110867769E+01  0.41362904222E+02  0.41427433613E+02  0.00000000000E+00 0. -1.
</event>
<event>
 5    1  0.1285375E-004  0.9118800E+02  0.7818608E-02  0.1130116E+00
         25   -1    0    0    0    0  0.00000000000E+00  0.00000000000E+00  0.99999998245E-14  0.12500000000E+03  0.12500000000E+03 0.  0.
        -13    1    3    3    0    0  0.21962813247E+02 -0.15241609667E+02 -0.29517479477E+02  0.39824170923E+02  0.10566000000E+00 0. -1.
         23    2    1    0    0    0 -0.20685606232E+02 -0.20448544429E+02  0.56776611766E+01  0.95364327056E+02  0.90642604574E+02 0.  0.
         13    1    3    3    0    0 -0.42648419478E+02 -0.52069347615E+01  0.35195140654E+02  0.55540156133E+02  0.10566000000E+00 0.  1.
         22    1    1    0    0    0  0.20685606232E+02  0.20448544429E+02 -0.56776611766E+01  0.29635672944E+02  0.00000000000E+00 0. -1.
</event>
<event>
 5    1  0.1285375E-004  0.9118800E+02  0.7818608E-02  0.1130116E+00
         25   -1    0    0    0    0  0.00000000000E+00  0.00000000000E+00  0.99999998245E-14  0.12500000000E+03  0.12500000000E+03 0.  0.
        -13    1    3    3    0    0 -0.20953195281E+02 -0.38687921239E+02 -0.23021334440E+02  0.49656667687E+02  0.10566000000E+00 0.  1.
         23    2    1    0    0    0 -0.32585472641E+01 -0.14743686909E+02 -0.38809309482E+02  0.83356790032E+02  0.72209400413E+02 0.  0.
         13    1    3    3    0    0  0.17694648017E+02  0.23944234331E+02 -0.15787975042E+02  0.33700122345E+02  0.10566000000E+00 0. -1.
         22    1    1    0    0    0  0.32585472641E+01  0.14743686909E+02  0.38809309482E+02  0.41643209968E+02  0.00000000000E+00 0. -1.
</event>
<event>
 5    1  0.1285375E-004  0.9118800E+02  0.7818608E-02  0.1130116E+00
         25   -1    0    0    0    0  0.00000000000E+00  0.00000000000E+00  0.99999998245E-14  0.12500000000E+03  0.12500000000E+03 0.  0.
        -13    1    3    3    0    0  0.22422788807E+02 -0.28836962746E+02 -0.33928459481E+01  0.36686161505E+02  0.10566000000E+00 0. -1.
         23    2    1    0    0    0 -0.28329055284E+02  0.78237325836E+00 -0.77774636176E+01  0.95612308333E+02  0.90983938601E+02 0.  0.
         13    1    3    3    0    0 -0.50751844090E+02  0.29619336004E+02 -0.43846176695E+01  0.58926146828E+02  0.10566000000E+00 0.  1.
         22    1    1    0    0    0  0.28329055284E+02 -0.78237325836E+00  0.77774636176E+01  0.29387691667E+02  0.00000000000E+00 0.  1.
</event>
<event>
 5    1  0.1285375E-004  0.9118800E+02  0.7818608E-02  0.1130116E+00
         25   -1    0    0    0    0  0.00000000000E+00  0.00000000000E+00  0.99999998245E-14  0.12500000000E+03  0.12500000000E+03 0.  0.
        -13    1    3    3    0    0 -0.23827578498E+01 -0.21706426189E+02 -0.48530470228E+02  0.53217141763E+02  0.10566000000E+00 0.  1.
         23    2    1    0    0    0  0.11035777217E+02  0.86604545591E+01 -0.13511967490E+01  0.11090682489E+03  0.11000775529E+03 0.  0.
         13    1    3    3    0    0  0.13418535066E+02  0.30366880748E+02  0.47179273478E+02  0.57689683130E+02  0.10566000000E+00 0. -1.
         22    1    1    0    0    0 -0.11035777217E+02 -0.86604545591E+01  0.13511967490E+01  0.14093175107E+02  0.00000000000E+00 0. -1.
</event>
<event>
 5    1  0.1285375E-004  0.9118800E+02  0.7818608E-02  0.1130116E+00
         25   -1    0    0    0    0  0.00000000000E+00  0.00000000000E+00  0.99999998245E-14  0.12500000000E+03  0.12500000000E+03 0.  0.
        -13    1    3    3    0    0  0.53548020819E+02  0.23920901247E+00  0.28233616452E+02  0.60535906838E+02  0.10566000000E+00 0.  1.
         23    2    1    0    0    0  0.27789917193E+02 -0.71101841588E+01  0.52344571027E+01  0.95841231893E+02  0.91297907825E+02 0.  0.
         13    1    3    3    0    0 -0.25758103626E+02 -0.73493931713E+01 -0.22999159350E+02  0.35305325055E+02  0.10566000000E+00 0. -1.
         22    1    1    0    0    0 -0.27789917193E+02  0.71101841588E+01 -0.52344571027E+01  0.29158768107E+02  0.00000000000E+00 0.  1.
</event>
<event>
 5    1  0.1285375E-004  0.9118800E+02  0.7818608E-02  0.1130116E+00
         25   -1    0    0    0    0  0.00000000000E+00  0.00000000000E+00  0.99999998245E-14  0.12500000000E+03  0.12500000000E+03 0.  0.
        -13    1    3    3    0    0  0.29743516397E+02 -0.19683639696E+02  0.35578753024E+02  0.50378380980E+02  0.10566000000E+00 0. -1.
         23    2    1    0    0    0 -0.71608478786E+01  0.56338056464E+01  0.27724989929E+02  0.95816227540E+02  0.91263666840E+02 0.  0.
         13    1    3    3    0    0 -0.36904364276E+02  0.25317445343E+02 -0.78537630949E+01  0.45437846560E+02  0.10566000000E+00 0.  1.
         22    1    1    0    0    0  0.71608478786E+01 -0.56338056464E+01 -0.27724989929E+02  0.29183772460E+02  0.00000000000E+00 0. -1.
</event>
<event>
 5    1  0.1285375E-004  0.9118800E+02  0.7818608E-02  0.1130116E+00
         25   -1    0    0    0    0  0.00000000000E+00  0.00000000000E+00  0.99999998245E-14  0.12500000000E+03  0.12500000000E+03 0.  0.
        -13    1    3    3    0    0 -0.18295906540E+02  0.56283921250E+02 -0.14867677171E+02  0.61021954868E+02  0.10566000000E+00 0. -1.
         23    2    1    0    0    0 -0.12038164334E+02  0.20716830231E+02 -0.14212476497E+02  0.97141447569E+02  0.93061065394E+02 0.  0.
         13    1    3    3    0    0  0.62577422063E+01 -0.35567091019E+02  0.65520067349E+00  0.36119492702E+02  0.10566000000E+00 0.  1.
         22    1    1    0    0    0  0.12038164334E+02 -0.20716830231E+02  0.14212476497E+02  0.27858552431E+02  0.00000000000E+00 0. -1.
</event>
<event>
 5    1  0.1285375E-004  0.9118800E+02  0.7818608E-02  0.1130116E+00
         25   -1    0    0    0    0  0.00000000000E+00  0.00000000000E+00  0.99999998245E-14  0.12500000000E+03  0.12500000000E+03 0.  0.
        -13    1    3    3    0    0 -0.17861550859E+02  0.18715914710E+02  0.20378849426E+02  0.32933708119E+02  0.10566000000E+00 0.  1.
         23    2    1    0    0    0  0.61485572389E+01 -0.20972915631E+02 -0.20702062343E+02  0.94896124312E+02  0.89994616939E+02 0.  0.
         13    1    3    3    0    0  0.24010108097E+02 -0.39688830341E+02 -0.41080911769E+02  0.61962416193E+02  0.10566000000E+00 0. -1.
         22    1    1    0    0    0 -0.61485572389E+01  0.20972915631E+02  0.20702062343E+02  0.30103875688E+02  0.00000000000E+00 0. -1.
</event>
<event>
 5    1  0.1285375E-004  0.9118800E+02  0.7818608E-02  0.1130116E+00
         25   -1    0    0    0    0  0.00000000000E+00  0.00000000000E+00  0.99999998245E-14  0.12500000000E+03  0.12500000000E+03 0.  0.
        -13    1    3    3    0    0 -0.52297816724E+01  0.40962995948E+01  0.32601480634E+02  0.33271579318E+02  0.10566000000E+00 0. -1.
         23    2    1    0    0    0  0.17437357873E+02 -0.41609710596E+01 -0.24141681110E+02  0.94930149708E+02  0.90041864858E+02 0.  0.
         13    1    3    3    0    0  0.22667139546E+02 -0.82572706544E+01 -0.56743161744E+02  0.61658570390E+02  0.10566000000E+00 0.  1.
         22    1    1    0    0    0 -0.17437357873E+02  0.41609710596E+01  0.24141681110E+02  0.30069850292E+02  0.00000000000E+00 0.  1.
</event>
<event>
 5    1  0.1285375E-004  0.9118800E+02  0.7818608E-02  0.1130116E+00
         25   -1    0    0    0    0  0.00000000000E+00  0.00000000000E+00  0.99999998245E-14  0.12500000000E+03  0.12500000000E+03 0.  0.
        -13    1    3    3    0    0  0.14245763565E+02  0.33571204070E+02 -0.35475494050E+02  0.50877198865E+02  0.10566000000E+00 0.  1.
         23    2    1    0    0    0 -0.41563714182E-01 -0.74578028805E+01 -0.29307548847E+02  0.94758423144E+02  0.89803150200E+02 0.  0.
         13    1    3    3    0    0 -0.14287327280E+02 -0.41029006950E+02  0.61679452029E+01  0.43881224278E+02  0.10566000000E+00 0. -1.
         22    1    1    0    0    0  0.41563714182E-01  0.74578028805E+01  0.29307548847E+02  0.30241576856E+02  0.00000000000E+00 0.  1.
</event>
<event>
 5    1  0.1285375E-004  0.9118800E+02  0.7818608E-02  0.1130116E+00
         25   -1    0    0    0    0  0.00000000000E+00  0.00000000000E+00  0.99999998245E-14  0.12500000000E+03  0.12500000000E+03 0.  0.
        -13    1    3    3    0    0 -0.28430666036E+02 -0.32821012110E+02 -0.14026523848E+02  0.45631964043E+02  0.10566000000E+00 0. -1.
         23    2    1    0    0    0 -0.14258505827E+02  0.15312610757E+02 -0.19866757726E+02  0.96147459399E+02  0.91716219121E+02 0.  0.
         13    1    3    3    0    0  0.14172160209E+02  0.48133622866E+02 -0.58402338774E+01  0.50515495356E+02  0.10566000000E+00 0.  1.
         22    1    1    0    0    0  0.14258505827E+02 -0.15312610757E+02  0.19866757726E+02  0.28852540601E+02  0.00000000000E+00 0.  1.
</event>
<event>
 5    1  0.1285375E-004  0.9118800E+02  0.7818608E-02  0.1130116E+00
         25   -1    0    0    0    0  0.00000000000E+00  0.00000000000E+00  0.99999998245E-14  0.12500000000E+03  0.12500000000E+03 0.  0.
        -13    1    3    3    0    0  0.15044148774E+02  0.49295250182E+01 -0.35809385950E+02  0.39152904304E+02  0.10566000000E+00 0.  1.
         23    2    1    0    0    0 -0.29089221295E+02 -0.28594268844E+01 -0.12538581100E+01  0.95743696785E+02  0.91164270393E+02 0.  0.
         13    1    3    3    0    0 -0.44133370068E+02 -0.77889519027E+01  0.34555527840E+02  0.56590792482E+02  0.10566000000E+00 0. -1.
         22    1    1    0    0    0  0.29089221295E+02  0.28594268844E+01  0.12538581100E+01  0.29256303215E+02  0.00000000000E+00 0. -1.
</event>
<event>
 5    1  0.1285375E-004  0.9118800E+02  0.7818608E-02  0.1130116E+00
         25   -1    0    0    0    0  0.00000000000E+00  0.00000000000E+00  0.99999998245E-14  0.12500000000E+03  0.12500000000E+03 0.  0.
        -13    1    3    3    0    0  0.12671747378E+01 -0.31466483156E+02 -0.63172441751E+00  0.31498500501E+02  0.10566000000E+00 0.  1.
         23    2    1    0    0    0 -0.24754528820E+01  0.27441930592E+02 -0.16836628103E+02  0.92709762041E+02  0.86904778408E+02 0.  0.
         13    1    3    3    0    0 -0.37426276198E+01  0.58908413748E+02 -0.16204903686E+02  0.61211261540E+02  0.10566000000E+00 0. -1.
         22    1    1    0    0    0  0.24754528820E+01 -0.27441930592E+02  0.16836628103E+02  0.32290237959E+02  0.00000000000E+00 0. -1.
</event>
<event>
 5    1  0.1285375E-004  0.9118800E+02  0.7818608E-02  0.1130116E+00
         25   -1    0    0    0    0  0.00000000000E+00  0.00000000000E+00  0.99999998245E-14  0.12500000000E+03  0.12500000000E+03 0.  0.
        -13    1    3    3    0    0 -0.54513577110E+00 -0.25965747570E+02  0.25201130097E+02  0.36188746070E+02  0.10566000000E+00 0.  1.
         23    2    1    0    0    0  0.19307971244E+02  0.19240518085E+02 -0.90493527330E+01  0.96279170022E+02  0.91895552153E+02 0.  0.
         13    1    3    3    0    0  0.19853107015E+02  0.45206265655E+02 -0.34250482830E+02  0.60090423952E+02  0.10566000000E+00 0. -1.
         22    1    1    0    0    0 -0.19307971244E+02 -0.19240518085E+02  0.90493527330E+01  0.28720829978E+02  0.00000000000E+00 0. -1.
</event>
<event>
 5    1  0.1285375E-004  0.9118800E+02  0.7818608E-02  0.1130116E+00
         25   -1    0    0    0    0  0.00000000000E+00  0.00000000000E+00  0.99999998245E-14  0.12500000000E+03  0.12500000000E+03 0.  0.
        -13    1    3    3    0    0 -0.19833472197E+02  0.13326694245E+01 -0.54284164688E+02  0.57809379231E+02  0.10566000000E+00 0.  1.
         23    2    1    0    0    0 -0.10584855077E+02  0.17360722406E+02 -0.21839393453E+02  0.95160547159E+02  0.90361146460E+02 0.  0.
         13    1    3    3    0    0  0.92486171201E+01  0.16028052982E+02  0.32444771235E+02  0.37351167927E+02  0.10566000000E+00 0. -1.
         22    1    1    0    0    0  0.10584855077E+02 -0.17360722406E+02  0.21839393453E+02  0.29839452841E+02  0.00000000000E+00 0.  1.
</event>
<event>
 5    1  0.1285375E-004  0.9118800E+02  0.7818608E-02  0.1130116E+00
         25   -1    0    0    0    0  0.00000000000E+00  0.00000000000E+00  0.99999998245E-14  0.12500000000E+03  0.12500000000E+03 0.  0.
        -13    1    3    3    0    0  0.54831038068E+02  0.44193076170E+01 -0.21225121403E+01  0.55049879539E+02  0.10566000000E+00 0.  1.
         23    2    1    0    0    0  0.18987410542E+02  0.21835736648E+02  0.52884694739E+01  0.95584203845E+02  0.90945318523E+02 0.  0.
         13    1    3    3    0    0 -0.35843627526E+02  0.17416429031E+02  0.74109816142E+01  0.40534324306E+02  0.10566000000E+00 0. -1.
         22    1    1    0    0    0 -0.18987410542E+02 -0.21835736648E+02 -0.52884694739E+01  0.29415796155E+02  0.00000000000E+00 0.  1.
</event>
<event>
 5    1  0.1285375E-004  0.9118800E+02  0.7818608E-02  0.1130116E+00
         25   -1    0    0    0    0  0.00000000000E+00  0.00000000000E+00  0.99999998245E-14  0.12500000000E+03  0.12500000000E+03 0.  0.
        -13    1    3    3    0    0 -0.67032044468E+00  0.72025075739E+01 -0.57250302371E+02  0.57705577984E+02  0.10566000000E+00 0. -1.
         23    2    1    0    0    0  0.53442490610E+01  0.19123207817E+02 -0.22185604870E+02  0.95226536334E+02  0.90452385726E+02 0.  0.
         13    1    3    3    0    0  0.60145695057E+01  0.11920700243E+02  0.35064697501E+02  0.37520958350E+02  0.10566000000E+00 0.  1.
         22    1    1    0    0    0 -0.53442490610E+01 -0.19123207817E+02  0.22185604870E+02  0.29773463666E+02  0.00000000000E+00 0. -1.
</event>
<event>
 5    1  0.1285375E-004  0.9118800E+02  0.7818608E-02  0.1130116E+00
         25   -1    0    0    0    0  0.00000000000E+00  0.00000000000E+00  0.99999998245E-14  0.12500000000E+03  0.12500000000E+03 0.  0.
        -13    1    3    3    0    0  0.17477694542E+02  0.26502475457E+02  0.86357393150E+01  0.32900428104E+02  0.10566000000E+00 0.  1.
         23    2    1    0    0    0 -0.19597849937E+02 -0.19160285988E+02 -0.11788076926E+02  0.95164600909E+02  0.90366753994E+02 0.  0.
         13    1    3    3    0    0 -0.37075544479E+02 -0.45662761445E+02 -0.20423816241E+02  0.62264172805E+02  0.10566000000E+00 0. -1.
         22    1    1    0    0    0  0.19597849937E+02  0.19160285988E+02  0.11788076926E+02  0.29835399091E+02  0.00000000000E+00 0. -1.
</event>
<event>
 5    1  0.1285375E-004  0.9118800E+02  0.7818608E-02  0.1130116E+00
         25   -1    0    0    0    0  0.00000000000E+00  0.00000000000E+00  0.99999998245E-14  0.12500000000E+03  0.12500000000E+03 0.  0.
        -13    1    3    3    0    0  0.12337056736E+02  0.40295560899E+02  0.27170032399E+02  0.50141370362E+02  0.10566000000E+00 0.  1.
         23    2    1    0    0    0  0.27469142016E+01  0.23019950723E+02 -0.15464541882E+02  0.97132174026E+02  0.93048608299E+02 0.  0.
         13    1    3    3    0    0 -0.95901425348E+01 -0.17275610177E+02 -0.42634574281E+02  0.46990803664E+02  0.10566000000E+00 0. -1.
         22    1    1    0    0    0 -0.27469142016E+01 -0.23019950723E+02  0.15464541882E+02  0.27867825974E+02  0.00000000000E+00 0.  1.
</event>
<event>
 5    1  0.1285375E-004  0.9118800E+02  0.7818608E-02  0.1130116E+00
         25   -1    0    0    0    0  0.00000000000E+00  0.00000000000E+00  0.99999998245E-14  0.12500000000E+03  0.12500000000E+03 0.  0.
        -13    1    3    3    0    0 -0.62107764355E+01 -0.24714299347E+02 -0.22530241466E+02  0.34014603933E+02  0.10566000000E+00 0.  1.
         23    2    1    0    0    0 -0.42667958363E+01  0.19568090529E+02  0.20887887737E+02  0.96061797434E+02  0.91599396059E+02 0.  0.
         13    1    3    3    0    0  0.19439805992E+01  0.44282389877E+02  0.43418129203E+02  0.62047193500E+02  0.10566000000E+00 0. -1.
         22    1    1    0    0    0  0.42667958363E+01 -0.19568090529E+02 -0.20887887737E+02  0.28938202566E+02  0.00000000000E+00 0. -1.
</event>
<event>
 5    1  0.1285375E-004  0.9118800E+02  0.7818608E-02  0.1130116E+00
         25   -1    0    0    0    0  0.00000000000E+00  0.00000000000E+00  0.99999998245E-14  0.12500000000E+03  0.12500000000E+03 0.  0.
        -13    1    3    3    0    0 -0.15987589245E+02 -0.25918427432E+02 -0.23765501328E+02  0.38628721281E+02  0.10566000000E+00 0.  1.
         23    2    1    0    0    0 -0.85990393281E+01 -0.26662423012E+01  0.27855867872E+02  0.95725408623E+02  0.91139191108E+02 0.  0.
         13    1    3    3    0    0  0.73885499170E+01  0.23252185131E+02  0.51621369201E+02  0.57096687342E+02  0.10566000000E+00 0. -1.
         22    1    1    0    0    0  0.85990393281E+01  0.26662423012E+01 -0.27855867872E+02  0.29274591377E+02  0.00000000000E+00 0. -1.
</event>
<event>
 5    1  0.1285375E-004  0.9118800E+02  0.7818608E-02  0.1130116E+00
         25   -1    0    0    0    0  0.00000000000E+00  0.00000000000E+00  0.99999998245E-14  0.12500000000E+03  0.12500000000E+03 0.  0.
        -13    1    3    3    0    0 -0.11714914335E+02  0.44696346106E+02 -0.20964257090E+01  0.46253742960E+02  0.10566000000E+00 0.  1.
         23    2    1    0    0    0 -0.28955557217E+02  0.47596580250E+01 -0.15555657478E+02  0.91787696289E+02  0.85568242194E+02 0.  0.
         13    1    3    3    0    0 -0.17240642882E+02 -0.39936688081E+02 -0.13459231769E+02  0.45533953328E+02  0.10566000000E+00 0. -1.
         22    1    1    0    0    0  0.28955557217E+02 -0.47596580250E+01  0.15555657478E+02  0.33212303711E+02  0.00000000000E+00 0. -1.
</event>
<event>
 5    1  0.1285375E-004  0.9118800E+02  0.7818608E-02  0.1130116E+00
         25   -1    0    0    0    0  0.00000000000E+00  0.00000000000E+00  0.99999998245E-14  0.12500000000E+03  0.12500000000E+03 0.  0.
        -13    1    3    3    0    0  0.18875383214E+02 -0.39441501722E+02 -0.39243987350E+02  0.58753841208E+02  0.10566000000E+00 0.  1.
         23    2    1    0    0    0 -0.54933955495E+01 -0.17638085262E+02 -0.23674937158E+02  0.94970313092E+02  0.90097604146E+02 0.  0.
         13    1    3    3    0    0 -0.24368778764E+02  0.21803416460E+02  0.15569050191E+02  0.36216471883E+02  0.10566000000E+00 0. -1.
         22    1    1    0    0    0  0.54933955495E+01  0.17638085262E+02  0.23674937158E+02  0.30029686908E+02  0.00000000000E+00 0.  1.
</event>
<event>
 5    1  0.1285375E-004  0.9118800E+02  0.7818608E-02  0.1130116E+00
         25   -1    0    0    0    0  0.00000000000E+00  0.00000000000E+00  0.99999998245E-14  0.12500000000E+03  0.12500000000E+03 0.  0.
        -13    1    3    3    0    0 -0.37387839345E+02  0.92830392569E+00  0.27701764683E+02  0.46541499864E+02  0.10566000000E+00 0.  1.
         23    2    1    0    0    0 -0.12063378361E+02  0.22607011292E+02 -0.10556913857E+02  0.97286276194E+02  0.93255396887E+02 0.  0.
         13    1    3    3    0    0  0.25324460983E+02  0.21678707366E+02 -0.38258678539E+02  0.50744776330E+02  0.10566000000E+00 0. -1.
         22    1    1    0    0    0  0.12063378361E+02 -0.22607011292E+02  0.10556913857E+02  0.27713723806E+02  0.00000000000E+00 0. -1.
</event>
<event>
 5    1  0.1285375E-004  0.9118800E+02  0.7818608E-02  0.1130116E+00
         25   -1    0    0    0    0  0.00000000000E+00  0.00000000000E+00  0.99999998245E-14  0.12500000000E+03  0.12500000000E+03 0.  0.
        -13    1    3    3    0    0  0.28800897485E+02 -0.24197599767E+02  0.28959741134E+02  0.47473079751E+02  0.10566000000E+00 0.  1.
         23    2    1    0    0    0  0.28658011050E+02  0.11765937845E+01 -0.10558131291E+02  0.94436294292E+02  0.89353643311E+02 0.  0.
         13    1    3    3    0    0 -0.14288643477E+00  0.25374193552E+02 -0.39517872425E+02  0.46963214540E+02  0.10566000000E+00 0. -1.
         22    1    1    0    0    0 -0.28658011050E+02 -0.11765937845E+01  0.10558131291E+02  0.30563705708E+02  0.00000000000E+00 0. -1.
</event>
<event>
 5    1  0.1285375E-004  0.9118800E+02  0.7818608E-02  0.1130116E+00
         25   -1    0    0    0    0  0.00000000000E+00  0.00000000000E+00  0.99999998245E-14  0.12500000000E+03  0.12500000000E+03 0.  0.
        -13    1    3    3    0    0  0.31748499984E+02 -0.20692369318E+02  0.41165848749E+02  0.55953370465E+02  0.10566000000E+00 0.  1.
         23    2    1    0    0    0  0.11812447817E+02 -0.26194927670E+02  0.77729784228E+01  0.95232108697E+02  0.90460086083E+02 0.  0.
         13    1    3    3    0    0 -0.19936052167E+02 -0.55025583525E+01 -0.33392870326E+02  0.39278738231E+02  0.10566000000E+00 0. -1.
         22    1    1    0    0    0 -0.11812447817E+02  0.26194927670E+02 -0.77729784228E+01  0.29767891303E+02  0.00000000000E+00 0.  1.
</event>
<event>
 5    1  0.1285375E-004  0.9118800E+02  0.7818608E-02  0.1130116E+00
         25   -1    0    0    0    0  0.00000000000E+00  0.00000000000E+00  0.99999998245E-14  0.12500000000E+03  0.12500000000E+03 0.  0.
        -13    1    3    3    0    0  0.25421444493E+02  0.40378483198E+02  0.25356800863E+02  0.54033788129E+02  0.10566000000E+00 0.  1.
         23    2    1    0    0    0 -0.39574610041E+01  0.29430660676E+02 -0.14284386322E+01  0.95270120714E+02  0.90512596794E+02 0.  0.
         13    1    3    3    0    0 -0.29378905497E+02 -0.10947822522E+02 -0.26785239496E+02  0.41236332585E+02  0.10566000000E+00 0. -1.
         22    1    1    0    0    0  0.39574610041E+01 -0.29430660676E+02  0.14284386322E+01  0.29729879286E+02  0.00000000000E+00 0.  1.
</event>
<event>
 5    1  0.1285375E-004  0.9118800E+02  0.7818608E-02  0.1130116E+00
         25   -1    0    0    0    0  0.00000000000E+00  0.00000000000E+00  0.99999998245E-14  0.12500000000E+03  0.12500000000E+03 0.  0.
        -13    1    3    3    0    0 -0.69867287739E+01  0.42127137866E+02  0.27689521210E+02  0.50894310808E+02  0.10566000000E+00 0.  1.
         23    2    1    0    0    0 -0.47585147664E+01  0.25149620900E+02 -0.13901752329E+02  0.95872596888E+02  0.91340840931E+02 0.  0.
         13    1    3    3    0    0  0.22282140076E+01 -0.16977516966E+02 -0.41591273540E+02  0.44978286080E+02  0.10566000000E+00 0. -1.
         22    1    1    0    0    0  0.47585147664E+01 -0.25149620900E+02  0.13901752329E+02  0.29127403112E+02  0.00000000000E+00 0.  1.
</event>
<event>
 5    1  0.1285375E-004  0.9118800E+02  0.7818608E-02  0.1130116E+00
         25   -1    0    0    0    0  0.00000000000E+00  0.00000000000E+00  0.99999998245E-14  0.12500000000E+03  0.12500000000E+03 0.  0.
        -13    1    3    3    0    0  0.50814540073E+02 -0.28288876032E+02 -0.17758934379E+02  0.60809283044E+02  0.10566000000E+00 0.  1.
         23    2    1    0    0    0  0.28248861053E+02 -0.53973554086E+01 -0.33141222759E+01  0.96049818607E+02  0.91583047841E+02 0.  0.
         13    1    3    3    0    0 -0.22565679020E+02  0.22891520624E+02  0.14444812103E+02  0.35240535564E+02  0.10566000000E+00 0. -1.
         22    1    1    0    0    0 -0.28248861053E+02  0.53973554086E+01  0.33141222759E+01  0.28950181393E+02  0.00000000000E+00 0.  1.
</event>
<event>
 5    1  0.1285375E-004  0.9118800E+02  0.7818608E-02  0.1130116E+00
         25   -1    0    0    0    0  0.00000000000E+00  0.00000000000E+00  0.99999998245E-14  0.12500000000E+03  0.12500000000E+03 0.  0.
        -13    1    3    3    0    0  0.32111176606E+02  0.23976091820E+02  0.10934100116E+02  0.41539696091E+02  0.10566000000E+00 0.  1.
         23    2    1    0    0    0  0.10513032686E+02 -0.11797127623E+02 -0.24175060721E+02  0.96118697445E+02  0.91677011084E+02 0.  0.
         13    1    3    3    0    0 -0.21598143920E+02 -0.35773219443E+02 -0.35109160837E+02  0.54579001354E+02  0.10566000000E+00 0. -1.
         22    1    1    0    0    0 -0.10513032686E+02  0.11797127623E+02  0.24175060721E+02  0.28881302555E+02  0.00000000000E+00 0. -1.
</event>
<event>
 5    1  0.1285375E-004  0.9118800E+02  0.7818608E-02  0.1130116E+00
         25   -1    0    0    0    0  0.00000000000E+00  0.00000000000E+00  0.99999998245E-14  0.12500000000E+03  0.12500000000E+03 0.  0.
        -13    1    3    3    0    0  0.39068898840E+02  0.17061681446E+02 -0.44540413882E+02  0.61655003553E+02  0.10566000000E+00 0.  1.
         23    2    1    0    0    0  0.20379720354E+02  0.22552472926E+01 -0.26166063248E+02  0.91757226229E+02  0.85523719268E+02 0.  0.
         13    1    3    3    0    0 -0.18689178486E+02 -0.14806434153E+02  0.18374350634E+02  0.30102222676E+02  0.10566000000E+00 0. -1.
         22    1    1    0    0    0 -0.20379720354E+02 -0.22552472926E+01  0.26166063248E+02  0.33242773771E+02  0.00000000000E+00 0.  1.
</event>
<event>
 5    1  0.1285375E-004  0.9118800E+02  0.7818608E-02  0.1130116E+00
         25   -1    0    0    0    0  0.00000000000E+00  0.00000000000E+00  0.99999998245E-14  0.12500000000E+03  0.12500000000E+03 0.  0.
        -13    1    3    3    0    0  0.39386149788E+02 -0.43673086121E+02 -0.57909259943E+01  0.59094443346E+02  0.10566000000E+00 0.  1.
         23    2    1    0    0    0  0.30259530580E+02 -0.12138962372E+02 -0.19862069170E+00  0.92395812408E+02  0.86452027749E+02 0.  0.
         13    1    3    3    0    0 -0.91266192081E+01  0.31534123749E+02  0.55923053025E+01  0.33301369062E+02  0.10566000000E+00 0. -1.
         22    1    1    0    0    0 -0.30259530580E+02  0.12138962372E+02  0.19862069170E+00  0.32604187592E+02  0.00000000000E+00 0.  1.
</event>
<event>
 5    1  0.1285375E-004  0.9118800E+02  0.7818608E-02  0.1130116E+00
         25   -1    0    0    0    0  0.00000000000E+00  0.00000000000E+00  0.99999998245E-14  0.12500000000E+03  0.12500000000E+03 0.  0.
        -13    1    3    3    0    0 -0.20513590738E+02 -0.25783239763E+02 -0.45535647175E+01  0.33261523917E+02  0.10566000000E+00 0. -1.
         23    2    1    0    0    0  0.20512107451E+02  0.16532822628E+02  0.14147905549E+02  0.95096087086E+02  0.90271932357E+02 0.  0.
         13    1    3    3    0    0  0.41025698189E+02  0.42316062391E+02  0.18701470266E+02  0.61834563169E+02  0.10566000000E+00 0.  1.
         22    1    1    0    0    0 -0.20512107451E+02 -0.16532822628E+02 -0.14147905549E+02  0.29903912914E+02  0.00000000000E+00 0.  1.
</event>
<event>
 5    1  0.1285375E-004  0.9118800E+02  0.7818608E-02  0.1130116E+00
         25   -1    0    0    0    0  0.00000000000E+00  0.00000000000E+00  0.99999998245E-14  0.12500000000E+03  0.12500000000E+03 0.  0.
        -13    1    3    3    0    0 -0.20618444165E+02 -0.24484310271E+02  0.22343308333E+02  0.39036345635E+02  0.10566000000E+00 0.  1.
         23    2    1    0    0    0  0.23738212423E+02  0.14933917654E+01 -0.93699201970E+01  0.99435799396E+02  0.96093443320E+02 0.  0.
         13    1    3    3    0    0  0.44356656588E+02  0.25977702037E+02 -0.31713228530E+02  0.60399453761E+02  0.10566000000E+00 0. -1.
         22    1    1    0    0    0 -0.23738212423E+02 -0.14933917654E+01  0.93699201970E+01  0.25564200604E+02  0.00000000000E+00 0. -1.
</event>
<event>
 5    1  0.1285375E-004  0.9118800E+02  0.7818608E-02  0.1130116E+00
         25   -1    0    0    0    0  0.00000000000E+00  0.00000000000E+00  0.99999998245E-14  0.12500000000E+03  0.12500000000E+03 0.  0.
        -13    1    3    3    0    0  0.69164407354E+01 -0.59852540985E+01 -0.58837633700E+02  0.59544426461E+02  0.10566000000E+00 0.  1.
         23    2    1    0    0    0 -0.51786919743E+01 -0.13407701734E+02 -0.26665093068E+02  0.94707880485E+02  0.89732770610E+02 0.  0.
         13    1    3    3    0    0 -0.12095132710E+02 -0.74224476356E+01  0.32172540632E+02  0.35163454024E+02  0.10566000000E+00 0. -1.
         22    1    1    0    0    0  0.51786919743E+01  0.13407701734E+02  0.26665093068E+02  0.30292119515E+02  0.00000000000E+00 0.  1.
</event>
<event>
 5    1  0.1285375E-004  0.9118800E+02  0.7818608E-02  0.1130116E+00
         25   -1    0    0    0    0  0.00000000000E+00  0.00000000000E+00  0.99999998245E-14  0.12500000000E+03  0.12500000000E+03 0.  0.
        -13    1    3    3    0    0  0.28898148453E+02  0.82307281709E+01  0.50130130285E+02  0.58445607163E+02  0.10566000000E+00 0.  1.
         23    2    1    0    0    0  0.10079227546E+02 -0.53127250262E+01  0.39384448408E+02  0.84000601815E+02  0.73315417572E+02 0.  0.
         13    1    3    3    0    0 -0.18818920907E+02 -0.13543453197E+02 -0.10745681877E+02  0.25554994652E+02  0.10566000000E+00 0. -1.
         22    1    1    0    0    0 -0.10079227546E+02  0.53127250262E+01 -0.39384448408E+02  0.40999398185E+02  0.00000000000E+00 0.  1.
</event>
<event>
 5    1  0.1285375E-004  0.9118800E+02  0.7818608E-02  0.1130116E+00
         25   -1    0    0    0    0  0.00000000000E+00  0.00000000000E+00  0.99999998245E-14  0.12500000000E+03  0.12500000000E+03 0.  0.
        -13    1    3    3    0    0  0.54208648035E+02  0.14457393097E+02 -0.33225486609E+01  0.56201816968E+02  0.10566000000E+00 0.  1.
         23    2    1    0    0    0  0.26371383948E+02 -0.16036454763E+01  0.16394565992E+02  0.93906538240E+02  0.88609449609E+02 0.  0.
         13    1    3    3    0    0 -0.27837264087E+02 -0.16061038573E+02  0.19717114653E+02  0.37704721271E+02  0.10566000000E+00 0. -1.
         22    1    1    0    0    0 -0.26371383948E+02  0.16036454763E+01 -0.16394565992E+02  0.31093461760E+02  0.00000000000E+00 0.  1.
</event>
<event>
 5    1  0.1285375E-004  0.9118800E+02  0.7818608E-02  0.1130116E+00
         25   -1    0    0    0    0  0.00000000000E+00  0.00000000000E+00  0.99999998245E-14  0.12500000000E+03  0.12500000000E+03 0.  0.
        -13    1    3    3    0    0  0.58216911804E+01  0.41606445214E+02  0.81755827943E+00  0.42019851703E+02  0.10566000000E+00 0. -1.
         23    2    1    0    0    0  0.13836428946E+02 -0.87268624903E+01  0.22311316037E+02  0.97334141651E+02  0.93319533929E+02 0.  0.
         13    1    3    3    0    0  0.80147377657E+01 -0.50333307704E+02  0.21493757758E+02  0.55314289948E+02  0.10566000000E+00 0.  1.
         22    1    1    0    0    0 -0.13836428946E+02  0.87268624903E+01 -0.22311316037E+02  0.27665858349E+02  0.00000000000E+00 0.  1.
</event>
<event>
 5    1  0.1285375E-004  0.9118800E+02  0.7818608E-02  0.1130116E+00
         25   -1    0    0    0    0  0.00000000000E+00  0.00000000000E+00  0.99999998245E-14  0.12500000000E+03  0.12500000000E+03 0.  0.
        -13    1    3    3    0    0 -0.17745127783E+02  0.33309956439E+02 -0.38013689404E+02  0.53567662858E+02  0.10566000000E+00 0. -1.
         23    2    1    0    0    0  0.12069622866E+02  0.23014228440E+02 -0.63776286588E+01  0.98241736713E+02  0.94527425535E+02 0.  0.
         13    1    3    3    0    0  0.29814750649E+02 -0.10295728000E+02  0.31636060745E+02  0.44674073855E+02  0.10566000000E+00 0.  1.
         22    1    1    0    0    0 -0.12069622866E+02 -0.23014228440E+02  0.63776286588E+01  0.26758263287E+02  0.00000000000E+00 0. -1.
</event>
<event>
 5    1  0.1285375E-004  0.9118800E+02  0.7818608E-02  0.1130116E+00
         25   -1    0    0    0    0  0.00000000000E+00  0.00000000000E+00  0.99999998245E-14  0.12500000000E+03  0.12500000000E+03 0.  0.
        -13    1    3    3    0    0 -0.20441352439E+02  0.25793300650E+02  0.22713438447E+02  0.39988181980E+02  0.10566000000E+00 0. -1.
         23    2    1    0    0    0  0.89612516703E+01  0.17746357335E+02 -0.22788934119E+02  0.94758096151E+02  0.89802695047E+02 0.  0.
         13    1    3    3    0    0  0.29402604110E+02 -0.80469433149E+01 -0.45502372566E+02  0.54769914171E+02  0.10566000000E+00 0.  1.
         22    1    1    0    0    0 -0.89612516703E+01 -0.17746357335E+02  0.22788934119E+02  0.30241903849E+02  0.00000000000E+00 0.  1.
</event>
<event>
 5    1  0.1285375E-004  0.9118800E+02  0.7818608E-02  0.1130116E+00
         25   -1    0    0    0    0  0.00000000000E+00  0.00000000000E+00  0.99999998245E-14  0.12500000000E+03  0.12500000000E+03 0.  0.
        -13    1    3    3    0    0  0.43386784517E+02 -0.32464254204E+02  0.27788749023E+02  0.60898001675E+02  0.10566000000E+00 0.  1.
         23    2    1    0    0    0  0.25491321277E+02 -0.66347835488E+01  0.12911845715E+02  0.95664977025E+02  0.91056269725E+02 0.  0.
         13    1    3    3    0    0 -0.17895463241E+02  0.25829470655E+02 -0.14876903308E+02  0.34766975350E+02  0.10566000000E+00 0. -1.
         22    1    1    0    0    0 -0.25491321277E+02  0.66347835488E+01 -0.12911845715E+02  0.29335022975E+02  0.00000000000E+00 0.  1.
</event>
<event>
 5    1  0.1285375E-004  0.9118800E+02  0.7818608E-02  0.1130116E+00
         25   -1    0    0    0    0  0.00000000000E+00  0.00000000000E+00  0.99999998245E-14  0.12500000000E+03  0.12500000000E+03 0.  0.
        -13    1    3    3    0    0  0.37134752928E+02 -0.36245866995E+02 -0.17960515565E+02  0.54912148316E+02  0.10566000000E+00 0.  1.
         23    2    1    0    0    0  0.26197134237E+02 -0.86765664676E+01  0.99744656485E+01  0.95656131597E+02  0.91044126111E+02 0.  0.
         13    1    3    3    0    0 -0.10937618692E+02  0.27569300527E+02  0.27934981213E+02  0.40743983281E+02  0.10566000000E+00 0. -1.
         22    1    1    0    0    0 -0.26197134237E+02  0.86765664676E+01 -0.99744656485E+01  0.29343868403E+02  0.00000000000E+00 0.  1.
</event>
<event>
 5    1  0.1285375E-004  0.9118800E+02  0.7818608E-02  0.1130116E+00
         25   -1    0    0    0    0  0.00000000000E+00  0.00000000000E+00  0.99999998245E-14  0.12500000000E+03  0.12500000000E+03 0.  0.
        -13    1    3    3    0    0  0.23291319176E+02 -0.30892803467E+02  0.19138875636E+02  0.43164320679E+02  0.10566000000E+00 0.  1.
         23    2    1    0    0    0  0.16071104076E+00 -0.17782551087E+02 -0.24777059563E+02  0.94501678213E+02  0.89445064444E+02 0.  0.
         13    1    3    3    0    0 -0.23130608136E+02  0.13110252380E+02 -0.43915935199E+02  0.51337357535E+02  0.10566000000E+00 0. -1.
         22    1    1    0    0    0 -0.16071104076E+00  0.17782551087E+02  0.24777059563E+02  0.30498321787E+02  0.00000000000E+00 0. -1.
</event>
<event>
 5    1  0.1285375E-004  0.9118800E+02  0.7818608E-02  0.1130116E+00
         25   -1    0    0    0    0  0.00000000000E+00  0.00000000000E+00  0.99999998245E-14  0.12500000000E+03  0.12500000000E+03 0.  0.
        -13    1    3    3    0    0  0.17523200153E+02 -0.43085888701E+02  0.39059016564E+02  0.60737750105E+02  0.10566000000E+00 0.  1.
         23    2    1    0    0    0 -0.28977297055E+01 -0.19725943864E+02  0.16866334633E+02  0.98885196866E+02  0.95374520793E+02 0.  0.
         13    1    3    3    0    0 -0.20420929859E+02  0.23359944837E+02 -0.22192681931E+02  0.38147446762E+02  0.10566000000E+00 0. -1.
         22    1    1    0    0    0  0.28977297055E+01  0.19725943864E+02 -0.16866334633E+02  0.26114803134E+02  0.00000000000E+00 0.  1.
</event>
<event>
 5    1  0.1285375E-004  0.9118800E+02  0.7818608E-02  0.1130116E+00
         25   -1    0    0    0    0  0.00000000000E+00  0.00000000000E+00  0.99999998245E-14  0.12500000000E+03  0.12500000000E+03 0.  0.
        -13    1    3    3    0    0  0.12068173135E+02 -0.50540306472E+02 -0.19257908337E+02  0.55415174624E+02  0.10566000000E+00 0. -1.
         23    2    1    0    0    0  0.20152337260E+02 -0.78171693652E+01 -0.14078806673E+02  0.99203922173E+02  0.95791338560E+02 0.  0.
         13    1    3    3    0    0  0.80841641244E+01  0.42723137106E+02  0.51791016633E+01  0.43788747549E+02  0.10566000000E+00 0.  1.
         22    1    1    0    0    0 -0.20152337260E+02  0.78171693652E+01  0.14078806673E+02  0.25796077827E+02  0.00000000000E+00 0. -1.
</event>
<event>
 5    1  0.1285375E-004  0.9118800E+02  0.7818608E-02  0.1130116E+00
         25   -1    0    0    0    0  0.00000000000E+00  0.00000000000E+00  0.99999998245E-14  0.12500000000E+03  0.12500000000E+03 0.  0.
        -13    1    3    3    0    0  0.47177255203E+02  0.39414875753E+02  0.41562202160E+01  0.61615835381E+02  0.10566000000E+00 0.  1.
         23    2    1    0    0    0  0.17461400487E+02  0.21557575791E+02  0.69606818415E+01  0.96397890416E+02  0.92056898731E+02 0.  0.
         13    1    3    3    0    0 -0.29715854716E+02 -0.17857299962E+02  0.28044616255E+01  0.34782055036E+02  0.10566000000E+00 0. -1.
         22    1    1    0    0    0 -0.17461400487E+02 -0.21557575791E+02 -0.69606818415E+01  0.28602109584E+02  0.00000000000E+00 0.  1.
</event>
<event>
 5    1  0.1285375E-004  0.9118800E+02  0.7818608E-02  0.1130116E+00
         25   -1    0    0    0    0  0.00000000000E+00  0.00000000000E+00  0.99999998245E-14  0.12500000000E+03  0.12500000000E+03 0.  0.
        -13    1    3    3    0    0  0.74229728672E+01 -0.13678970979E+02  0.32673221450E+02  0.36190680253E+02  0.10566000000E+00 0.  1.
         23    2    1    0    0    0 -0.29458087325E+02  0.80136156276E+01 -0.60250394743E+01  0.93882512233E+02  0.88575550002E+02 0.  0.
         13    1    3    3    0    0 -0.36881060192E+02  0.21692586607E+02 -0.38698260924E+02  0.57691831980E+02  0.10566000000E+00 0. -1.
         22    1    1    0    0    0  0.29458087325E+02 -0.80136156276E+01  0.60250394743E+01  0.31117487767E+02  0.00000000000E+00 0. -1.
</event>
<event>
 5    1  0.1285375E-004  0.9118800E+02  0.7818608E-02  0.1130116E+00
         25   -1    0    0    0    0  0.00000000000E+00  0.00000000000E+00  0.99999998245E-14  0.12500000000E+03  0.12500000000E+03 0.  0.
        -13    1    3    3    0    0 -0.18346183566E+02 -0.10244960022E+01 -0.55530448847E+02  0.58491657154E+02  0.10566000000E+00 0. -1.
         23    2    1    0    0    0 -0.17380523630E+02  0.11557950892E+02 -0.20425516641E+02  0.95796052313E+02  0.91236029496E+02 0.  0.
         13    1    3    3    0    0  0.96565993595E+00  0.12582446894E+02  0.35104932206E+02  0.37304395159E+02  0.10566000000E+00 0.  1.
         22    1    1    0    0    0  0.17380523630E+02 -0.11557950892E+02  0.20425516641E+02  0.29203947687E+02  0.00000000000E+00 0. -1.
</event>
<event>
 5    1  0.1285375E-004  0.9118800E+02  0.7818608E-02  0.1130116E+00
         25   -1    0    0    0    0  0.00000000000E+00  0.00000000000E+00  0.99999998245E-14  0.12500000000E+03  0.12500000000E+03 0.  0.
        -13    1    3    3    0    0 -0.37105445472E+02 -0.41969407729E+02 -0.38203220229E+01  0.56150256395E+02  0.10566000000E+00 0.  1.
         23    2    1    0    0    0 -0.68801775114E+01 -0.26203007903E+02  0.13877949983E+02  0.94561012476E+02  0.89527946023E+02 0.  0.
         13    1    3    3    0    0  0.30225267961E+02  0.15766399826E+02  0.17698272005E+02  0.38410756082E+02  0.10566000000E+00 0. -1.
         22    1    1    0    0    0  0.68801775114E+01  0.26203007903E+02 -0.13877949983E+02  0.30438987524E+02  0.00000000000E+00 0.  1.
</event>
<event>
 5    1  0.1285375E-004  0.9118800E+02  0.7818608E-02  0.1130116E+00
         25   -1    0    0    0    0  0.00000000000E+00  0.00000000000E+00  0.99999998245E-14  0.12500000000E+03  0.12500000000E+03 0.  0.
        -13    1    3    3    0    0  0.55627967770E+01  0.41454646515E+01  0.43098448351E+02  0.43653373288E+02  0.10566000000E+00 0. -1.
         23    2    1    0    0    0 -0.27582569788E+02 -0.57648812662E+01  0.29247453326E+01  0.96670048581E+02  0.92425711495E+02 0.  0.
         13    1    3    3    0    0 -0.33145366565E+02 -0.99103459177E+01 -0.40173703018E+02  0.53016675293E+02  0.10566000000E+00 0.  1.
         22    1    1    0    0    0  0.27582569788E+02  0.57648812662E+01 -0.29247453326E+01  0.28329951419E+02  0.00000000000E+00 0.  1.
</event>
<event>
 5    1  0.1285375E-004  0.9118800E+02  0.7818608E-02  0.1130116E+00
         25   -1    0    0    0    0  0.00000000000E+00  0.00000000000E+00  0.99999998245E-14  0.12500000000E+03  0.12500000000E+03 0.  0.
        -13    1    3    3    0    0 -0.36592530866E+01 -0.29910043931E+02 -0.40306489477E+02  0.50325193682E+02  0.10566000000E+00 0.  1.
         23    2    1    0    0    0 -0.25989062090E+02 -0.10436205113E+01 -0.12890705212E+02  0.95970863379E+02  0.91475219840E+02 0.  0.
         13    1    3    3    0    0 -0.22329809004E+02  0.28866423420E+02  0.27415784265E+02  0.45645669697E+02  0.10566000000E+00 0. -1.
         22    1    1    0    0    0  0.25989062090E+02  0.10436205113E+01  0.12890705212E+02  0.29029136621E+02  0.00000000000E+00 0.  1.
</event>
<event>
 5    1  0.1285375E-004  0.9118800E+02  0.7818608E-02  0.1130116E+00
         25   -1    0    0    0    0  0.00000000000E+00  0.00000000000E+00  0.99999998245E-14  0.12500000000E+03  0.12500000000E+03 0.  0.
        -13    1    3    3    0    0  0.26712146655E+02  0.65666124691E+01 -0.17397965467E+02  0.32547803991E+02  0.10566000000E+00 0.  1.
         23    2    1    0    0    0  0.77712740391E+01 -0.28768043449E+02  0.21379969781E+02  0.88324447763E+02  0.80349934292E+02 0.  0.
         13    1    3    3    0    0 -0.18940872616E+02 -0.35334655918E+02  0.38777935248E+02  0.55776643772E+02  0.10566000000E+00 0. -1.
         22    1    1    0    0    0 -0.77712740391E+01  0.28768043449E+02 -0.21379969781E+02  0.36675552237E+02  0.00000000000E+00 0. -1.
</event>
<event>
 5    1  0.1285375E-004  0.9118800E+02  0.7818608E-02  0.1130116E+00
         25   -1    0    0    0    0  0.00000000000E+00  0.00000000000E+00  0.99999998245E-14  0.12500000000E+03  0.12500000000E+03 0.  0.
        -13    1    3    3    0    0  0.10087783109E+02  0.43592591773E+02 -0.72063568974E+01  0.45321299290E+02  0.10566000000E+00 0.  1.
         23    2    1    0    0    0 -0.27628800056E+02  0.12888756802E+02 -0.57375249793E+01  0.93977591368E+02  0.88709626547E+02 0.  0.
         13    1    3    3    0    0 -0.37716583165E+02 -0.30703834972E+02  0.14688319182E+01  0.48656292079E+02  0.10566000000E+00 0. -1.
         22    1    1    0    0    0  0.27628800056E+02 -0.12888756802E+02  0.57375249793E+01  0.31022408632E+02  0.00000000000E+00 0. -1.
</event>
<event>
 5    1  0.1285375E-004  0.9118800E+02  0.7818608E-02  0.1130116E+00
         25   -1    0    0    0    0  0.00000000000E+00  0.00000000000E+00  0.99999998245E-14  0.12500000000E+03  0.12500000000E+03 0.  0.
        -13    1    3    3    0    0  0.65689057103E+00  0.56528302258E+02  0.21455573067E+01  0.56572917917E+02  0.10566000000E+00 0.  1.
         23    2    1    0    0    0  0.19095360031E+02  0.22032594909E+02 -0.11125673762E+01  0.95822854503E+02  0.91272743061E+02 0.  0.
         13    1    3    3    0    0  0.18438469460E+02 -0.34495707349E+02 -0.32581246829E+01  0.39249936586E+02  0.10566000000E+00 0. -1.
         22    1    1    0    0    0 -0.19095360031E+02 -0.22032594909E+02  0.11125673762E+01  0.29177145497E+02  0.00000000000E+00 0.  1.
</event>
<event>
 5    1  0.1285375E-004  0.9118800E+02  0.7818608E-02  0.1130116E+00
         25   -1    0    0    0    0  0.00000000000E+00  0.00000000000E+00  0.99999998245E-14  0.12500000000E+03  0.12500000000E+03 0.  0.
        -13    1    3    3    0    0  0.69238936617E+01 -0.22118327285E+02 -0.29651740107E+02  0.37635057603E+02  0.10566000000E+00 0.  1.
         23    2    1    0    0    0 -0.27878512060E+01  0.26338384775E+02 -0.27078096522E+02  0.87122487698E+02  0.78457771600E+02 0.  0.
         13    1    3    3    0    0 -0.97117448677E+01  0.48456712061E+02  0.25736435849E+01  0.49487430095E+02  0.10566000000E+00 0. -1.
         22    1    1    0    0    0  0.27878512060E+01 -0.26338384775E+02  0.27078096522E+02  0.37877512302E+02  0.00000000000E+00 0. -1.
</event>
<event>
 5    1  0.1285375E-004  0.9118800E+02  0.7818608E-02  0.1130116E+00
         25   -1    0    0    0    0  0.00000000000E+00  0.00000000000E+00  0.99999998245E-14  0.12500000000E+03  0.12500000000E+03 0.  0.
        -13    1    3    3    0    0  0.82619588559E+01  0.70442624346E+01 -0.58977109279E+02  0.59968259774E+02  0.10566000000E+00 0.  1.
         23    2    1    0    0    0  0.15881272919E+02  0.48850594384E+01 -0.24139483158E+02  0.95694824989E+02  0.91097235125E+02 0.  0.
         13    1    3    3    0    0  0.76193140632E+01 -0.21592029963E+01  0.34837626120E+02  0.35726565216E+02  0.10566000000E+00 0. -1.
         22    1    1    0    0    0 -0.15881272919E+02 -0.48850594384E+01  0.24139483158E+02  0.29305175011E+02  0.00000000000E+00 0.  1.
</event>
<event>
 5    1  0.1285375E-004  0.9118800E+02  0.7818608E-02  0.1130116E+00
         25   -1    0    0    0    0  0.00000000000E+00  0.00000000000E+00  0.99999998245E-14  0.12500000000E+03  0.12500000000E+03 0.  0.
        -13    1    3    3    0    0 -0.40210821438E+02  0.30357613426E+02  0.21039610480E+02  0.54600102810E+02  0.10566000000E+00 0.  1.
         23    2    1    0    0    0 -0.30013479977E+02  0.44965070728E+01 -0.67528812228E+01  0.93909342866E+02  0.88613405964E+02 0.  0.
         13    1    3    3    0    0  0.10197341461E+02 -0.25861106353E+02 -0.27792491703E+02  0.39309240056E+02  0.10566000000E+00 0. -1.
         22    1    1    0    0    0  0.30013479977E+02 -0.44965070728E+01  0.67528812228E+01  0.31090657134E+02  0.00000000000E+00 0.  1.
</event>
<event>
 5    1  0.1285375E-004  0.9118800E+02  0.7818608E-02  0.1130116E+00
         25   -1    0    0    0    0  0.00000000000E+00  0.00000000000E+00  0.99999998245E-14  0.12500000000E+03  0.12500000000E+03 0.  0.
        -13    1    3    3    0    0 -0.35540758393E+02  0.55845266498E+01 -0.14704314286E+02  0.38865929395E+02  0.10566000000E+00 0.  1.
         23    2    1    0    0    0  0.19607640226E+02 -0.67798046107E+01 -0.20690296000E+02  0.95699596345E+02  0.91103781953E+02 0.  0.
         13    1    3    3    0    0  0.55148398619E+02 -0.12364331261E+02 -0.59859817147E+01  0.56833666950E+02  0.10566000000E+00 0. -1.
         22    1    1    0    0    0 -0.19607640226E+02  0.67798046107E+01  0.20690296000E+02  0.29300403655E+02  0.00000000000E+00 0. -1.
</event>
<event>
 5    1  0.1285375E-004  0.9118800E+02  0.7818608E-02  0.1130116E+00
         25   -1    0    0    0    0  0.00000000000E+00  0.00000000000E+00  0.99999998245E-14  0.12500000000E+03  0.12500000000E+03 0.  0.
        -13    1    3    3    0    0  0.38937930216E+01 -0.41566291087E+02 -0.38799856384E+02  0.56994369882E+02  0.10566000000E+00 0. -1.
         23    2    1    0    0    0 -0.13944316154E+02 -0.99725296974E+01 -0.22352967783E+02  0.96829972128E+02  0.92641745623E+02 0.  0.
         13    1    3    3    0    0 -0.17838109176E+02  0.31593761389E+02  0.16446888600E+02  0.39835602247E+02  0.10566000000E+00 0.  1.
         22    1    1    0    0    0  0.13944316154E+02  0.99725296974E+01  0.22352967783E+02  0.28170027872E+02  0.00000000000E+00 0.  1.
</event>
<event>
 5    1  0.1285375E-004  0.9118800E+02  0.7818608E-02  0.1130116E+00
         25   -1    0    0    0    0  0.00000000000E+00  0.00000000000E+00  0.99999998245E-14  0.12500000000E+03  0.12500000000E+03 0.  0.
        -13    1    3    3    0    0  0.28950506959E+02 -0.17458005327E+02 -0.45360502215E+01  0.34110126338E+02  0.10566000000E+00 0.  1.
         23    2    1    0    0    0  0.62419253316E+01  0.33913325403E+02 -0.40594611456E+01  0.90278904157E+02  0.83335022885E+02 0.  0.
         13    1    3    3    0    0 -0.22708581627E+02  0.51371330730E+02  0.47658907596E+00  0.56168777819E+02  0.10566000000E+00 0. -1.
         22    1    1    0    0    0 -0.62419253316E+01 -0.33913325403E+02  0.40594611456E+01  0.34721095843E+02  0.00000000000E+00 0. -1.
</event>
<event>
 5    1  0.1285375E-004  0.9118800E+02  0.7818608E-02  0.1130116E+00
         25   -1    0    0    0    0  0.00000000000E+00  0.00000000000E+00  0.99999998245E-14  0.12500000000E+03  0.12500000000E+03 0.  0.
        -13    1    3    3    0    0  0.60442072596E+02  0.17876299439E+01 -0.24171700611E+01  0.60516887194E+02  0.10566000000E+00 0. -1.
         23    2    1    0    0    0  0.27044089226E+02 -0.10008392802E+02 -0.34882518651E+01  0.95953165584E+02  0.91451032777E+02 0.  0.
         13    1    3    3    0    0 -0.33397983370E+02 -0.11796022746E+02 -0.10710818040E+01  0.35436278389E+02  0.10566000000E+00 0.  1.
         22    1    1    0    0    0 -0.27044089226E+02  0.10008392802E+02  0.34882518651E+01  0.29046834416E+02  0.00000000000E+00 0. -1.
</event>
<event>
 5    1  0.1285375E-004  0.9118800E+02  0.7818608E-02  0.1130116E+00
         25   -1    0    0    0    0  0.00000000000E+00  0.00000000000E+00  0.99999998245E-14  0.12500000000E+03  0.12500000000E+03 0.  0.
        -13    1    3    3    0    0 -0.82713099144E+01 -0.33110906843E+02 -0.17492270368E+02  0.38350194345E+02  0.10566000000E+00 0. -1.
         23    2    1    0    0    0  0.28108180492E+02  0.20940098593E+00  0.10408015815E+02  0.95026003727E+02  0.90174835358E+02 0.  0.
         13    1    3    3    0    0  0.36379490406E+02  0.33320307828E+02  0.27900286183E+02  0.56675809382E+02  0.10566000000E+00 0.  1.
         22    1    1    0    0    0 -0.28108180492E+02 -0.20940098593E+00 -0.10408015815E+02  0.29973996273E+02  0.00000000000E+00 0.  1.
</event>
<event>
 4    1  0.1285375E-004  0.9118800E+02  0.7818608E-02  0.1130116E+00
         25   -1    0    0    0    0  0.00000000000E+00  0.00000000000E+00  0.99999998245E-14  0.12500000000E+03  0.12500000000E+03 0.  0.
        -13    1    1    0    0    0  0.26806916858E+02 -0.11963840203E+02  0.14554970708E+02  0.32765875544E+02  0.10566000000E+00 0.  1.
         13    1    1    0    0    0  0.10855276171E+02  0.36018531186E+02  0.12919321144E+02  0.39775515489E+02  0.10566000000E+00 0. -1.
         22    1    1    0    0    0 -0.37662193029E+02 -0.24054690983E+02 -0.27474291851E+02  0.52458608967E+02  0.00000000000E+00 0.  1.
</event>
<event>
 5    1  0.1285375E-004  0.9118800E+02  0.7818608E-02  0.1130116E+00
         25   -1    0    0    0    0  0.00000000000E+00  0.00000000000E+00  0.99999998245E-14  0.12500000000E+03  0.12500000000E+03 0.  0.
        -13    1    3    3    0    0  0.27734343448E+02  0.33711027457E+02  0.32923133113E+02  0.54676969893E+02  0.10566000000E+00 0.  1.
         23    2    1    0    0    0  0.31556241682E+01  0.27812727523E+02 -0.10110172978E+01  0.96990574227E+02  0.92858190575E+02 0.  0.
         13    1    3    3    0    0 -0.24578719280E+02 -0.58982999342E+01 -0.33934150411E+02  0.42313604334E+02  0.10566000000E+00 0. -1.
         22    1    1    0    0    0 -0.31556241682E+01 -0.27812727523E+02  0.10110172978E+01  0.28009425773E+02  0.00000000000E+00 0.  1.
</event>
<event>
 5    1  0.1285375E-004  0.9118800E+02  0.7818608E-02  0.1130116E+00
         25   -1    0    0    0    0  0.00000000000E+00  0.00000000000E+00  0.99999998245E-14  0.12500000000E+03  0.12500000000E+03 0.  0.
        -13    1    3    3    0    0  0.15309158520E+02 -0.28006913975E+02  0.14247188226E+02  0.34953556349E+02  0.10566000000E+00 0. -1.
         23    2    1    0    0    0  0.10603933116E+02  0.23753711390E+02 -0.15381361441E+02  0.94779667737E+02  0.89832716391E+02 0.  0.
         13    1    3    3    0    0 -0.47052254048E+01  0.51760625366E+02 -0.29628549667E+02  0.59826111388E+02  0.10566000000E+00 0.  1.
         22    1    1    0    0    0 -0.10603933116E+02 -0.23753711390E+02  0.15381361441E+02  0.30220332263E+02  0.00000000000E+00 0.  1.
</event>
<event>
 5    1  0.1285375E-004  0.9118800E+02  0.7818608E-02  0.1130116E+00
         25   -1    0    0    0    0  0.00000000000E+00  0.00000000000E+00  0.99999998245E-14  0.12500000000E+03  0.12500000000E+03 0.  0.
        -13    1    3    3    0    0 -0.77863563121E+01 -0.13216597843E+02 -0.52226715767E+02  0.54432956993E+02  0.10566000000E+00 0. -1.
         23    2    1    0    0    0 -0.12825752853E+02  0.14421286031E+02 -0.23062807072E+02  0.94927313105E+02  0.90037926877E+02 0.  0.
         13    1    3    3    0    0 -0.50393965414E+01  0.27637883873E+02  0.29163908695E+02  0.40494356112E+02  0.10566000000E+00 0.  1.
         22    1    1    0    0    0  0.12825752853E+02 -0.14421286031E+02  0.23062807072E+02  0.30072686895E+02  0.00000000000E+00 0. -1.
</event>
<event>
 5    1  0.1285375E-004  0.9118800E+02  0.7818608E-02  0.1130116E+00
         25   -1    0    0    0    0  0.00000000000E+00  0.00000000000E+00  0.99999998245E-14  0.12500000000E+03  0.12500000000E+03 0.  0.
        -13    1    3    3    0    0 -0.21391287288E+02 -0.35091231336E+02  0.13924503722E+02  0.43392218847E+02  0.10566000000E+00 0.  1.
         23    2    1    0    0    0 -0.23864120468E+02  0.14741576753E+02  0.14780818476E+02  0.93293803040E+02  0.87740815815E+02 0.  0.
         13    1    3    3    0    0 -0.24728331798E+01  0.49832808089E+02  0.85631475389E+00  0.49901584193E+02  0.10566000000E+00 0. -1.
         22    1    1    0    0    0  0.23864120468E+02 -0.14741576753E+02 -0.14780818476E+02  0.31706196960E+02  0.00000000000E+00 0. -1.
</event>
<event>
 5    1  0.1285375E-004  0.9118800E+02  0.7818608E-02  0.1130116E+00
         25   -1    0    0    0    0  0.00000000000E+00  0.00000000000E+00  0.99999998245E-14  0.12500000000E+03  0.12500000000E+03 0.  0.
        -13    1    3    3    0    0 -0.39796452429E+02 -0.52525147291E+01 -0.10908202867E+02  0.41597434906E+02  0.10566000000E+00 0. -1.
         23    2    1    0    0    0  0.91784172933E+01 -0.27424719136E+02 -0.42994360720E+01  0.95762289518E+02  0.91189760278E+02 0.  0.
         13    1    3    3    0    0  0.48974869723E+02 -0.22172204407E+02  0.66087667947E+01  0.54164854612E+02  0.10566000000E+00 0.  1.
         22    1    1    0    0    0 -0.91784172933E+01  0.27424719136E+02  0.42994360720E+01  0.29237710482E+02  0.00000000000E+00 0.  1.
</event>
<event>
 5    1  0.1285375E-004  0.9118800E+02  0.7818608E-02  0.1130116E+00
         25   -1    0    0    0    0  0.00000000000E+00  0.00000000000E+00  0.99999998245E-14  0.12500000000E+03  0.12500000000E+03 0.  0.
        -13    1    3    3    0    0  0.14864604731E+02 -0.66725904069E+01 -0.57272373810E+02  0.59545074543E+02  0.10566000000E+00 0.  1.
         23    2    1    0    0    0 -0.52527294232E+01 -0.88138360492E+01 -0.28427036324E+02  0.94777967202E+02  0.89830350107E+02 0.  0.
         13    1    3    3    0    0 -0.20117334154E+02 -0.21412456423E+01  0.28845337486E+02  0.35232892658E+02  0.10566000000E+00 0. -1.
         22    1    1    0    0    0  0.52527294232E+01  0.88138360492E+01  0.28427036324E+02  0.30222032798E+02  0.00000000000E+00 0.  1.
</event>
<event>
 5    1  0.1285375E-004  0.9118800E+02  0.7818608E-02  0.1130116E+00
         25   -1    0    0    0    0  0.00000000000E+00  0.00000000000E+00  0.99999998245E-14  0.12500000000E+03  0.12500000000E+03 0.  0.
        -13    1    3    3    0    0 -0.30499356649E+02 -0.16839972668E+02  0.16121600842E+02  0.38388964732E+02  0.10566000000E+00 0.  1.
         23    2    1    0    0    0  0.13612450204E+02 -0.84361432899E+01 -0.22339151182E+02  0.97513548980E+02  0.93559538503E+02 0.  0.
         13    1    3    3    0    0  0.44111806853E+02  0.84038293780E+01 -0.38460752024E+02  0.59124584247E+02  0.10566000000E+00 0. -1.
         22    1    1    0    0    0 -0.13612450204E+02  0.84361432899E+01  0.22339151182E+02  0.27486451020E+02  0.00000000000E+00 0. -1.
</event>
<event>
 5    1  0.1285375E-004  0.9118800E+02  0.7818608E-02  0.1130116E+00
         25   -1    0    0    0    0  0.00000000000E+00  0.00000000000E+00  0.99999998245E-14  0.12500000000E+03  0.12500000000E+03 0.  0.
        -13    1    3    3    0    0  0.51652493169E+02  0.17279787283E+02  0.13874211676E+02  0.56205658191E+02  0.10566000000E+00 0.  1.
         23    2    1    0    0    0  0.17646856610E+02 -0.67710016062E+01  0.19034191724E+02  0.98175413041E+02  0.94439680538E+02 0.  0.
         13    1    3    3    0    0 -0.34005636559E+02 -0.24050788889E+02  0.51599800482E+01  0.41969754849E+02  0.10566000000E+00 0. -1.
         22    1    1    0    0    0 -0.17646856610E+02  0.67710016062E+01 -0.19034191724E+02  0.26824586959E+02  0.00000000000E+00 0.  1.
</event>
<event>
 5    1  0.1285375E-004  0.9118800E+02  0.7818608E-02  0.1130116E+00
         25   -1    0    0    0    0  0.00000000000E+00  0.00000000000E+00  0.99999998245E-14  0.12500000000E+03  0.12500000000E+03 0.  0.
        -13    1    3    3    0    0 -0.12017871673E+02 -0.15718666206E+02  0.29764304364E+02  0.35741162336E+02  0.10566000000E+00 0. -1.
         23    2    1    0    0    0  0.25795177112E+02  0.16320586614E+02 -0.16682757658E+01  0.94429820843E+02  0.89344586914E+02 0.  0.
         13    1    3    3    0    0  0.37813048784E+02  0.32039252820E+02 -0.31432580130E+02  0.58688658507E+02  0.10566000000E+00 0.  1.
         22    1    1    0    0    0 -0.25795177112E+02 -0.16320586614E+02  0.16682757658E+01  0.30570179157E+02  0.00000000000E+00 0.  1.
</event>
<event>
 5    1  0.1285375E-004  0.9118800E+02  0.7818608E-02  0.1130116E+00
         25   -1    0    0    0    0  0.00000000000E+00  0.00000000000E+00  0.99999998245E-14  0.12500000000E+03  0.12500000000E+03 0.  0.
        -13    1    3    3    0    0 -0.43936437326E+02 -0.15672234009E+02 -0.49170871676E+00  0.46650641852E+02  0.10566000000E+00 0.  1.
         23    2    1    0    0    0 -0.52918604248E+01 -0.12466177316E+02  0.27412597608E+02  0.94424521733E+02  0.89337172741E+02 0.  0.
         13    1    3    3    0    0  0.38644576901E+02  0.32060566934E+01  0.27904306325E+02  0.47773879881E+02  0.10566000000E+00 0. -1.
         22    1    1    0    0    0  0.52918604248E+01  0.12466177316E+02 -0.27412597608E+02  0.30575478267E+02  0.00000000000E+00 0. -1.
</event>
<event>
 5    1  0.1285375E-004  0.9118800E+02  0.7818608E-02  0.1130116E+00
         25   -1    0    0    0    0  0.00000000000E+00  0.00000000000E+00  0.99999998245E-14  0.12500000000E+03  0.12500000000E+03 0.  0.
        -13    1    3    3    0    0 -0.11065200682E+02  0.16236773175E+02 -0.48897101170E+02  0.52697335190E+02  0.10566000000E+00 0. -1.
         23    2    1    0    0    0 -0.20275836895E+02  0.27986381775E+02 -0.20399054387E+02  0.84869356515E+02  0.74781943869E+02 0.  0.
         13    1    3    3    0    0 -0.92106362130E+01  0.11749608599E+02  0.28498046783E+02  0.32172021325E+02  0.10566000000E+00 0.  1.
         22    1    1    0    0    0  0.20275836895E+02 -0.27986381775E+02  0.20399054387E+02  0.40130643485E+02  0.00000000000E+00 0. -1.
</event>
<event>
 5    1  0.1285375E-004  0.9118800E+02  0.7818608E-02  0.1130116E+00
         25   -1    0    0    0    0  0.00000000000E+00  0.00000000000E+00  0.99999998245E-14  0.12500000000E+03  0.12500000000E+03 0.  0.
        -13    1    3    3    0    0  0.19407687313E+02 -0.58062472419E+01  0.36673172434E+02  0.41896343209E+02  0.10566000000E+00 0.  1.
         23    2    1    0    0    0  0.51426609799E+01  0.28795187605E+02 -0.19574588430E+01  0.95683768381E+02  0.91082062424E+02 0.  0.
         13    1    3    3    0    0 -0.14265026333E+02  0.34601434847E+02 -0.38630631277E+02  0.53787425172E+02  0.10566000000E+00 0. -1.
         22    1    1    0    0    0 -0.51426609799E+01 -0.28795187605E+02  0.19574588430E+01  0.29316231619E+02  0.00000000000E+00 0. -1.
</event>
<event>
 5    1  0.1285375E-004  0.9118800E+02  0.7818608E-02  0.1130116E+00
         25   -1    0    0    0    0  0.00000000000E+00  0.00000000000E+00  0.99999998245E-14  0.12500000000E+03  0.12500000000E+03 0.  0.
        -13    1    3    3    0    0 -0.29412918522E+02  0.38584379994E+02  0.29884289367E+02  0.56982067973E+02  0.10566000000E+00 0.  1.
         23    2    1    0    0    0 -0.24026402317E+02  0.10304559676E+02 -0.51822801215E+00  0.98851950002E+02  0.95330936744E+02 0.  0.
         13    1    3    3    0    0  0.53865162048E+01 -0.28279820319E+02 -0.30402517379E+02  0.41869882029E+02  0.10566000000E+00 0. -1.
         22    1    1    0    0    0  0.24026402317E+02 -0.10304559676E+02  0.51822801215E+00  0.26148049998E+02  0.00000000000E+00 0.  1.
</event>
<event>
 5    1  0.1285375E-004  0.9118800E+02  0.7818608E-02  0.1130116E+00
         25   -1    0    0    0    0  0.00000000000E+00  0.00000000000E+00  0.99999998245E-14  0.12500000000E+03  0.12500000000E+03 0.  0.
        -13    1    3    3    0    0  0.27471036261E+02  0.59587526854E+01  0.21695075318E+02  0.35508478197E+02  0.10566000000E+00 0. -1.
         23    2    1    0    0    0 -0.27801364178E+02  0.13723779057E+02  0.74195197853E+01  0.93120426044E+02  0.87493465533E+02 0.  0.
         13    1    3    3    0    0 -0.55272400439E+02  0.77650263720E+01 -0.14275555533E+02  0.57611947846E+02  0.10566000000E+00 0.  1.
         22    1    1    0    0    0  0.27801364178E+02 -0.13723779057E+02 -0.74195197853E+01  0.31879573956E+02  0.00000000000E+00 0.  1.
</event>
<event>
 5    1  0.1285375E-004  0.9118800E+02  0.7818608E-02  0.1130116E+00
         25   -1    0    0    0    0  0.00000000000E+00  0.00000000000E+00  0.99999998245E-14  0.12500000000E+03  0.12500000000E+03 0.  0.
        -13    1    3    3    0    0 -0.50280096529E+02  0.40956412849E+00  0.18528038146E+02  0.53586894025E+02  0.10566000000E+00 0.  1.
         23    2    1    0    0    0 -0.24250844486E+02  0.16274958513E+02 -0.87692017228E+01  0.94506121405E+02  0.89451273615E+02 0.  0.
         13    1    3    3    0    0  0.26029252042E+02  0.15865394385E+02 -0.27297239869E+02  0.40919227380E+02  0.10566000000E+00 0. -1.
         22    1    1    0    0    0  0.24250844486E+02 -0.16274958513E+02  0.87692017228E+01  0.30493878595E+02  0.00000000000E+00 0.  1.
</event>
<event>
 5    1  0.1285375E-004  0.9118800E+02  0.7818608E-02  0.1130116E+00
         25   -1    0    0    0    0  0.00000000000E+00  0.00000000000E+00  0.99999998245E-14  0.12500000000E+03  0.12500000000E+03 0.  0.
        -13    1    3    3    0    0  0.14807847732E+02 -0.17139670248E+02 -0.56781138786E+02  0.61132229933E+02  0.10566000000E+00 0.  1.
         23    2    1    0    0    0  0.10374392192E+02 -0.14969354526E+02 -0.21214419286E+02  0.97040007619E+02  0.92924710948E+02 0.  0.
         13    1    3    3    0    0 -0.44334555400E+01  0.21703157218E+01  0.35566719500E+02  0.35907777686E+02  0.10566000000E+00 0. -1.
         22    1    1    0    0    0 -0.10374392192E+02  0.14969354526E+02  0.21214419286E+02  0.27959992381E+02  0.00000000000E+00 0.  1.
</event>
<event>
 5    1  0.1285375E-004  0.9118800E+02  0.7818608E-02  0.1130116E+00
         25   -1    0    0    0    0  0.00000000000E+00  0.00000000000E+00  0.99999998245E-14  0.12500000000E+03  0.12500000000E+03 0.  0.
        -13    1    3    3    0    0  0.30283374865E+01  0.43764354952E+02 -0.32572237607E+02  0.54639284577E+02  0.10566000000E+00 0.  1.
         23    2    1    0    0    0  0.14326155951E+02  0.25167116386E+02  0.25210289484E+01  0.95931493357E+02  0.91421405257E+02 0.  0.
         13    1    3    3    0    0  0.11297818465E+02 -0.18597238567E+02  0.35093266555E+02  0.41292208780E+02  0.10566000000E+00 0. -1.
         22    1    1    0    0    0 -0.14326155951E+02 -0.25167116386E+02 -0.25210289484E+01  0.29068506643E+02  0.00000000000E+00 0.  1.
</event>
<event>
 5    1  0.1285375E-004  0.9118800E+02  0.7818608E-02  0.1130116E+00
         25   -1    0    0    0    0  0.00000000000E+00  0.00000000000E+00  0.99999998245E-14  0.12500000000E+03  0.12500000000E+03 0.  0.
        -13    1    3    3    0    0  0.13822107651E+02 -0.15427035479E+02 -0.38717021767E+02  0.43909714439E+02  0.10566000000E+00 0.  1.
         23    2    1    0    0    0  0.72394243638E+01  0.26296812179E+02 -0.66962416887E+01  0.96914928367E+02  0.92756304862E+02 0.  0.
         13    1    3    3    0    0 -0.65826832873E+01  0.41723847658E+02  0.32020780078E+02  0.53005213928E+02  0.10566000000E+00 0. -1.
         22    1    1    0    0    0 -0.72394243638E+01 -0.26296812179E+02  0.66962416887E+01  0.28085071633E+02  0.00000000000E+00 0.  1.
</event>
<event>
 5    1  0.1285375E-004  0.9118800E+02  0.7818608E-02  0.1130116E+00
         25   -1    0    0    0    0  0.00000000000E+00  0.00000000000E+00  0.99999998245E-14  0.12500000000E+03  0.12500000000E+03 0.  0.
        -13    1    3    3    0    0 -0.11543073713E+02  0.43273628411E+02 -0.16046764041E+02  0.47574775531E+02  0.10566000000E+00 0. -1.
         23    2    1    0    0    0  0.24444637296E+02  0.16550694135E+02  0.82090350753E+00  0.95467989377E+02  0.90785446765E+02 0.  0.
         13    1    3    3    0    0  0.35987711009E+02 -0.26722934276E+02  0.16867667548E+02  0.47893213847E+02  0.10566000000E+00 0.  1.
         22    1    1    0    0    0 -0.24444637296E+02 -0.16550694135E+02 -0.82090350753E+00  0.29532010623E+02  0.00000000000E+00 0. -1.
</event>
<event>
 5    1  0.1285375E-004  0.9118800E+02  0.7818608E-02  0.1130116E+00
         25   -1    0    0    0    0  0.00000000000E+00  0.00000000000E+00  0.99999998245E-14  0.12500000000E+03  0.12500000000E+03 0.  0.
        -13    1    3    3    0    0 -0.89485468222E+01  0.35589700383E+02 -0.41815656155E+02  0.55635092588E+02  0.10566000000E+00 0. -1.
         23    2    1    0    0    0 -0.19795747723E+02  0.38053121247E+02 -0.26443899121E+02  0.74609609396E+02  0.55021835202E+02 0.  0.
         13    1    3    3    0    0 -0.10847200901E+02  0.24634208633E+01  0.15371757034E+02  0.18974516807E+02  0.10566000000E+00 0.  1.
         22    1    1    0    0    0  0.19795747723E+02 -0.38053121247E+02  0.26443899121E+02  0.50390390604E+02  0.00000000000E+00 0. -1.
</event>
<event>
 5    1  0.1285375E-004  0.9118800E+02  0.7818608E-02  0.1130116E+00
         25   -1    0    0    0    0  0.00000000000E+00  0.00000000000E+00  0.99999998245E-14  0.12500000000E+03  0.12500000000E+03 0.  0.
        -13    1    3    3    0    0 -0.26752354682E+02 -0.19797152606E+02 -0.32193571071E+02  0.46303918999E+02  0.10566000000E+00 0. -1.
         23    2    1    0    0    0 -0.29367387684E+02  0.46106999659E+01  0.87231467767E+01  0.94019436686E+02  0.88768570855E+02 0.  0.
         13    1    3    3    0    0 -0.26150330016E+01  0.24407852571E+02  0.40916717847E+02  0.47715517687E+02  0.10566000000E+00 0.  1.
         22    1    1    0    0    0  0.29367387684E+02 -0.46106999659E+01 -0.87231467767E+01  0.30980563314E+02  0.00000000000E+00 0.  1.
</event>
<event>
 5    1  0.1285375E-004  0.9118800E+02  0.7818608E-02  0.1130116E+00
         25   -1    0    0    0    0  0.00000000000E+00  0.00000000000E+00  0.99999998245E-14  0.12500000000E+03  0.12500000000E+03 0.  0.
        -13    1    3    3    0    0 -0.12843495301E+02  0.54072669675E+02  0.20218038278E+02  0.59140419454E+02  0.10566000000E+00 0.  1.
         23    2    1    0    0    0  0.80676032794E+01  0.25569248568E+02  0.12920985686E+02  0.95237194922E+02  0.90467114083E+02 0.  0.
         13    1    3    3    0    0  0.20911098581E+02 -0.28503421107E+02 -0.72970525916E+01  0.36096775468E+02  0.10566000000E+00 0. -1.
         22    1    1    0    0    0 -0.80676032794E+01 -0.25569248568E+02 -0.12920985686E+02  0.29762805078E+02  0.00000000000E+00 0.  1.
</event>
<event>
 5    1  0.1285375E-004  0.9118800E+02  0.7818608E-02  0.1130116E+00
         25   -1    0    0    0    0  0.00000000000E+00  0.00000000000E+00  0.99999998245E-14  0.12500000000E+03  0.12500000000E+03 0.  0.
        -13    1    3    3    0    0 -0.21128415873E+02  0.26446714384E+00 -0.41073219325E+02  0.46189830157E+02  0.10566000000E+00 0.  1.
         23    2    1    0    0    0 -0.16751169386E+02 -0.23607978440E+02  0.23730630805E+01  0.95955727756E+02  0.91454534819E+02 0.  0.
         13    1    3    3    0    0  0.43772464877E+01 -0.23872445584E+02  0.43446282405E+02  0.49765897599E+02  0.10566000000E+00 0. -1.
         22    1    1    0    0    0  0.16751169386E+02  0.23607978440E+02 -0.23730630805E+01  0.29044272244E+02  0.00000000000E+00 0.  1.
</event>
<event>
 5    1  0.1285375E-004  0.9118800E+02  0.7818608E-02  0.1130116E+00
         25   -1    0    0    0    0  0.00000000000E+00  0.00000000000E+00  0.99999998245E-14  0.12500000000E+03  0.12500000000E+03 0.  0.
        -13    1    3    3    0    0  0.26808470372E+01 -0.45177309901E+02 -0.41452122866E+02  0.61371540024E+02  0.10566000000E+00 0.  1.
         23    2    1    0    0    0  0.53596558620E+01 -0.27033006422E+02 -0.34159477008E+02  0.81109463245E+02  0.68208253249E+02 0.  0.
         13    1    3    3    0    0  0.26788088248E+01  0.18144303479E+02  0.72926458583E+01  0.19737923221E+02  0.10566000000E+00 0. -1.
         22    1    1    0    0    0 -0.53596558620E+01  0.27033006422E+02  0.34159477008E+02  0.43890536755E+02  0.00000000000E+00 0.  1.
</event>
<event>
 5    1  0.1285375E-004  0.9118800E+02  0.7818608E-02  0.1130116E+00
         25   -1    0    0    0    0  0.00000000000E+00  0.00000000000E+00  0.99999998245E-14  0.12500000000E+03  0.12500000000E+03 0.  0.
        -13    1    3    3    0    0 -0.11746221695E+02  0.23113773232E+02  0.26295260679E+02  0.36927931642E+02  0.10566000000E+00 0. -1.
         23    2    1    0    0    0  0.23856700262E+02 -0.17025152786E+02  0.26149953342E+01  0.95574905687E+02  0.90932537750E+02 0.  0.
         13    1    3    3    0    0  0.35602921957E+02 -0.40138926018E+02 -0.23680265345E+02  0.58646974045E+02  0.10566000000E+00 0.  1.
         22    1    1    0    0    0 -0.23856700262E+02  0.17025152786E+02 -0.26149953342E+01  0.29425094313E+02  0.00000000000E+00 0.  1.
</event>
<event>
 5    1  0.1285375E-004  0.9118800E+02  0.7818608E-02  0.1130116E+00
         25   -1    0    0    0    0  0.00000000000E+00  0.00000000000E+00  0.99999998245E-14  0.12500000000E+03  0.12500000000E+03 0.  0.
        -13    1    3    3    0    0  0.14022630173E+01 -0.30649738746E+02 -0.20018661764E+02  0.36635103516E+02  0.10566000000E+00 0. -1.
         23    2    1    0    0    0  0.11406335384E+02  0.18306496926E+02 -0.30454208679E+02  0.87681222650E+02  0.79342962274E+02 0.  0.
         13    1    3    3    0    0  0.10004072367E+02  0.48956235673E+02 -0.10435546915E+02  0.51046119134E+02  0.10566000000E+00 0.  1.
         22    1    1    0    0    0 -0.11406335384E+02 -0.18306496926E+02  0.30454208679E+02  0.37318777350E+02  0.00000000000E+00 0.  1.
</event>
<event>
 5    1  0.1285375E-004  0.9118800E+02  0.7818608E-02  0.1130116E+00
         25   -1    0    0    0    0  0.00000000000E+00  0.00000000000E+00  0.99999998245E-14  0.12500000000E+03  0.12500000000E+03 0.  0.
        -13    1    3    3    0    0  0.32758988088E+02 -0.25465584209E+02  0.16902399635E+02  0.44803454745E+02  0.10566000000E+00 0. -1.
         23    2    1    0    0    0 -0.63026074580E+01  0.67449960870E+01  0.27031060222E+02  0.96436105838E+02  0.92108775149E+02 0.  0.
         13    1    3    3    0    0 -0.39061595546E+02  0.32210580296E+02  0.10128660587E+02  0.51632651093E+02  0.10566000000E+00 0.  1.
         22    1    1    0    0    0  0.63026074580E+01 -0.67449960870E+01 -0.27031060222E+02  0.28563894162E+02  0.00000000000E+00 0.  1.
</event>
<event>
 5    1  0.1285375E-004  0.9118800E+02  0.7818608E-02  0.1130116E+00
         25   -1    0    0    0    0  0.00000000000E+00  0.00000000000E+00  0.99999998245E-14  0.12500000000E+03  0.12500000000E+03 0.  0.
        -13    1    3    3    0    0 -0.34695653794E+02 -0.16622100602E+01 -0.18397359058E+02  0.39306810082E+02  0.10566000000E+00 0. -1.
         23    2    1    0    0    0  0.23845233798E+02  0.21584467274E+01  0.83019932123E+00  0.10104288627E+03  0.98161711316E+02 0.  0.
         13    1    3    3    0    0  0.58540887592E+02  0.38206567876E+01  0.19227558379E+02  0.61736076192E+02  0.10566000000E+00 0.  1.
         22    1    1    0    0    0 -0.23845233798E+02 -0.21584467274E+01 -0.83019932123E+00  0.23957113726E+02  0.00000000000E+00 0.  1.
</event>
<event>
 5    1  0.1285375E-004  0.9118800E+02  0.7818608E-02  0.1130116E+00
         25   -1    0    0    0    0  0.00000000000E+00  0.00000000000E+00  0.99999998245E-14  0.12500000000E+03  0.12500000000E+03 0.  0.
        -13    1    3    3    0    0  0.13034396668E+02  0.52618712739E+02 -0.27430562592E+02  0.60754187962E+02  0.10566000000E+00 0. -1.
         23    2    1    0    0    0  0.12958329465E+02  0.18696609501E+02 -0.18080892715E+02  0.95941435158E+02  0.91434997618E+02 0.  0.
         13    1    3    3    0    0 -0.76067202807E-01 -0.33922103238E+02  0.93496698774E+01  0.35187247195E+02  0.10566000000E+00 0.  1.
         22    1    1    0    0    0 -0.12958329465E+02 -0.18696609501E+02  0.18080892715E+02  0.29058564842E+02  0.00000000000E+00 0. -1.
</event>
<event>
 5    1  0.1285375E-004  0.9118800E+02  0.7818608E-02  0.1130116E+00
         25   -1    0    0    0    0  0.00000000000E+00  0.00000000000E+00  0.99999998245E-14  0.12500000000E+03  0.12500000000E+03 0.  0.
        -13    1    3    3    0    0  0.25226198828E+02  0.48957658810E+00  0.30427111774E+02  0.39527472566E+02  0.10566000000E+00 0. -1.
         23    2    1    0    0    0  0.15722444866E+02  0.57312016019E+00 -0.24835002191E+02  0.95601002175E+02  0.90968404096E+02 0.  0.
         13    1    3    3    0    0 -0.95037539622E+01  0.83543572092E-01 -0.55262113965E+02  0.56073529609E+02  0.10566000000E+00 0.  1.
         22    1    1    0    0    0 -0.15722444866E+02 -0.57312016019E+00  0.24835002191E+02  0.29398997825E+02  0.00000000000E+00 0.  1.
</event>
<event>
 5    1  0.1285375E-004  0.9118800E+02  0.7818608E-02  0.1130116E+00
         25   -1    0    0    0    0  0.00000000000E+00  0.00000000000E+00  0.99999998245E-14  0.12500000000E+03  0.12500000000E+03 0.  0.
        -13    1    3    3    0    0 -0.17526377867E+02 -0.38674010843E+02  0.30013477567E+02  0.51996856015E+02  0.10566000000E+00 0.  1.
         23    2    1    0    0    0 -0.25289634633E+02 -0.11003102754E+02  0.34227558225E+02  0.81043662207E+02  0.68087557981E+02 0.  0.
         13    1    3    3    0    0 -0.77632567666E+01  0.27670908089E+02  0.42140806583E+01  0.29046806192E+02  0.10566000000E+00 0. -1.
         22    1    1    0    0    0  0.25289634633E+02  0.11003102754E+02 -0.34227558225E+02  0.43956337793E+02  0.00000000000E+00 0.  1.
</event>
<event>
 5    1  0.1285375E-004  0.9118800E+02  0.7818608E-02  0.1130116E+00
         25   -1    0    0    0    0  0.00000000000E+00  0.00000000000E+00  0.99999998245E-14  0.12500000000E+03  0.12500000000E+03 0.  0.
        -13    1    3    3    0    0  0.27873128669E+02  0.25712487339E+01  0.17436750008E+02  0.32978387418E+02  0.10566000000E+00 0.  1.
         23    2    1    0    0    0 -0.28889116020E+02  0.23208463526E+01 -0.76308423843E+01  0.95030063268E+02  0.90180462502E+02 0.  0.
         13    1    3    3    0    0 -0.56762244689E+02 -0.25040238131E+00 -0.25067592392E+02  0.62051675850E+02  0.10566000000E+00 0. -1.
         22    1    1    0    0    0  0.28889116020E+02 -0.23208463526E+01  0.76308423843E+01  0.29969936732E+02  0.00000000000E+00 0. -1.
</event>
<event>
 5    1  0.1285375E-004  0.9118800E+02  0.7818608E-02  0.1130116E+00
         25   -1    0    0    0    0  0.00000000000E+00  0.00000000000E+00  0.99999998245E-14  0.12500000000E+03  0.12500000000E+03 0.  0.
        -13    1    3    3    0    0 -0.41784683081E+02  0.26578861694E+02 -0.22610276589E+02  0.54439245041E+02  0.10566000000E+00 0. -1.
         23    2    1    0    0    0 -0.34352615279E+02 -0.41111011199E+00  0.34662353931E+00  0.90643176283E+02  0.83879640383E+02 0.  0.
         13    1    3    3    0    0  0.74320678025E+01 -0.26989971806E+02  0.22956900128E+02  0.36203931243E+02  0.10566000000E+00 0.  1.
         22    1    1    0    0    0  0.34352615279E+02  0.41111011199E+00 -0.34662353931E+00  0.34356823717E+02  0.00000000000E+00 0. -1.
</event>
<event>
 5    1  0.1285375E-004  0.9118800E+02  0.7818608E-02  0.1130116E+00
         25   -1    0    0    0    0  0.00000000000E+00  0.00000000000E+00  0.99999998245E-14  0.12500000000E+03  0.12500000000E+03 0.  0.
        -13    1    3    3    0    0 -0.65073342662E+01  0.72795812442E+01  0.33237976114E+02  0.34642631577E+02  0.10566000000E+00 0. -1.
         23    2    1    0    0    0  0.69198038369E+01 -0.25898605426E+02 -0.14667537785E+02  0.94442544071E+02  0.89362385923E+02 0.  0.
         13    1    3    3    0    0  0.13427138103E+02 -0.33178186670E+02 -0.47905513899E+02  0.59799912495E+02  0.10566000000E+00 0.  1.
         22    1    1    0    0    0 -0.69198038369E+01  0.25898605426E+02  0.14667537785E+02  0.30557455929E+02  0.00000000000E+00 0.  1.
</event>
<event>
 5    1  0.1285375E-004  0.9118800E+02  0.7818608E-02  0.1130116E+00
         25   -1    0    0    0    0  0.00000000000E+00  0.00000000000E+00  0.99999998245E-14  0.12500000000E+03  0.12500000000E+03 0.  0.
        -13    1    3    3    0    0 -0.31393853530E+02 -0.18500946345E+02 -0.16219137121E+02  0.39886471743E+02  0.10566000000E+00 0. -1.
         23    2    1    0    0    0 -0.15549092882E+02  0.24890495220E+02 -0.24442191054E+02  0.86806653128E+02  0.77952955569E+02 0.  0.
         13    1    3    3    0    0  0.15844760648E+02  0.43391441565E+02 -0.82230539332E+01  0.46920181384E+02  0.10566000000E+00 0.  1.
         22    1    1    0    0    0  0.15549092882E+02 -0.24890495220E+02  0.24442191054E+02  0.38193346872E+02  0.00000000000E+00 0.  1.
</event>
<event>
 5    1  0.1285375E-004  0.9118800E+02  0.7818608E-02  0.1130116E+00
         25   -1    0    0    0    0  0.00000000000E+00  0.00000000000E+00  0.99999998245E-14  0.12500000000E+03  0.12500000000E+03 0.  0.
        -13    1    3    3    0    0  0.39942478529E+02 -0.72268983523E+01 -0.11715210292E+02  0.42247922636E+02  0.10566000000E+00 0. -1.
         23    2    1    0    0    0 -0.86197471706E+00 -0.23571623738E+02  0.18019772685E+02  0.95317064605E+02  0.90577404198E+02 0.  0.
         13    1    3    3    0    0 -0.40804453246E+02 -0.16344725386E+02  0.29734982978E+02  0.53069141969E+02  0.10566000000E+00 0.  1.
         22    1    1    0    0    0  0.86197471706E+00  0.23571623738E+02 -0.18019772685E+02  0.29682935395E+02  0.00000000000E+00 0.  1.
</event>
<event>
 5    1  0.1285375E-004  0.9118800E+02  0.7818608E-02  0.1130116E+00
         25   -1    0    0    0    0  0.00000000000E+00  0.00000000000E+00  0.99999998245E-14  0.12500000000E+03  0.12500000000E+03 0.  0.
        -13    1    3    3    0    0 -0.30645382461E+02  0.19193544352E+02  0.59294097740E+01  0.36642880281E+02  0.10566000000E+00 0.  1.
         23    2    1    0    0    0  0.25858568518E+02  0.14906955223E+02 -0.60096145200E+01  0.94553352458E+02  0.89517250375E+02 0.  0.
         13    1    3    3    0    0  0.56503950980E+02 -0.42865891287E+01 -0.11939024294E+02  0.57910472178E+02  0.10566000000E+00 0. -1.
         22    1    1    0    0    0 -0.25858568518E+02 -0.14906955223E+02  0.60096145200E+01  0.30446647542E+02  0.00000000000E+00 0. -1.
</event>
<event>
 5    1  0.1285375E-004  0.9118800E+02  0.7818608E-02  0.1130116E+00
         25   -1    0    0    0    0  0.00000000000E+00  0.00000000000E+00  0.99999998245E-14  0.12500000000E+03  0.12500000000E+03 0.  0.
        -13    1    3    3    0    0 -0.61674151083E+01 -0.17112447407E+02  0.39997564487E+02  0.43939608491E+02  0.10566000000E+00 0.  1.
         23    2    1    0    0    0  0.18210206560E+02  0.19319143262E+02  0.12803083515E+02  0.95525267315E+02  0.90864276967E+02 0.  0.
         13    1    3    3    0    0  0.24377621669E+02  0.36431590670E+02 -0.27194480972E+02  0.51585658824E+02  0.10566000000E+00 0. -1.
         22    1    1    0    0    0 -0.18210206560E+02 -0.19319143262E+02 -0.12803083515E+02  0.29474732685E+02  0.00000000000E+00 0. -1.
</event>
<event>
 5    1  0.1285375E-004  0.9118800E+02  0.7818608E-02  0.1130116E+00
         25   -1    0    0    0    0  0.00000000000E+00  0.00000000000E+00  0.99999998245E-14  0.12500000000E+03  0.12500000000E+03 0.  0.
        -13    1    3    3    0    0  0.40096864987E+02  0.10769135033E+02  0.20526222060E+02  0.46314898329E+02  0.10566000000E+00 0. -1.
         23    2    1    0    0    0 -0.10955922243E+02 -0.47608199701E+01  0.22294481568E+02  0.99706887354E+02  0.96445434513E+02 0.  0.
         13    1    3    3    0    0 -0.51052787229E+02 -0.15529955003E+02  0.17682595080E+01  0.53391989025E+02  0.10566000000E+00 0.  1.
         22    1    1    0    0    0  0.10955922243E+02  0.47608199701E+01 -0.22294481568E+02  0.25293112646E+02  0.00000000000E+00 0.  1.
</event>
<event>
 5    1  0.1285375E-004  0.9118800E+02  0.7818608E-02  0.1130116E+00
         25   -1    0    0    0    0  0.00000000000E+00  0.00000000000E+00  0.99999998245E-14  0.12500000000E+03  0.12500000000E+03 0.  0.
        -13    1    3    3    0    0  0.18818965045E+02  0.49811265133E+02 -0.55054400888E+01  0.53531641242E+02  0.10566000000E+00 0. -1.
         23    2    1    0    0    0  0.77914475132E+00  0.26047198254E+02  0.19493950058E+02  0.92456526118E+02  0.86539768485E+02 0.  0.
         13    1    3    3    0    0 -0.18039820293E+02 -0.23764066878E+02  0.24999390147E+02  0.38924884876E+02  0.10566000000E+00 0.  1.
         22    1    1    0    0    0 -0.77914475132E+00 -0.26047198254E+02 -0.19493950058E+02  0.32543473882E+02  0.00000000000E+00 0. -1.
</event>
<event>
 5    1  0.1285375E-004  0.9118800E+02  0.7818608E-02  0.1130116E+00
         25   -1    0    0    0    0  0.00000000000E+00  0.00000000000E+00  0.99999998245E-14  0.12500000000E+03  0.12500000000E+03 0.  0.
        -13    1    3    3    0    0  0.24159929326E+02 -0.48476661405E+02  0.19082673423E+02  0.57426896791E+02  0.10566000000E+00 0. -1.
         23    2    1    0    0    0  0.15659531436E+02 -0.10908503449E+02  0.21783006426E+02  0.96039410550E+02  0.91568840975E+02 0.  0.
         13    1    3    3    0    0 -0.85003978896E+01  0.37568157956E+02  0.27003330037E+01  0.38612513759E+02  0.10566000000E+00 0.  1.
         22    1    1    0    0    0 -0.15659531436E+02  0.10908503449E+02 -0.21783006426E+02  0.28960589450E+02  0.00000000000E+00 0. -1.
</event>
<event>
 5    1  0.1285375E-004  0.9118800E+02  0.7818608E-02  0.1130116E+00
         25   -1    0    0    0    0  0.00000000000E+00  0.00000000000E+00  0.99999998245E-14  0.12500000000E+03  0.12500000000E+03 0.  0.
        -13    1    3    3    0    0 -0.22505996482E+02 -0.14536009345E+02 -0.27638022105E+02  0.38492685996E+02  0.10566000000E+00 0.  1.
         23    2    1    0    0    0  0.17607366474E+02 -0.17049733414E+02  0.14335280310E+02  0.96606109368E+02  0.92339197213E+02 0.  0.
         13    1    3    3    0    0  0.40113362956E+02 -0.25137240690E+01  0.41973302415E+02  0.58113423372E+02  0.10566000000E+00 0. -1.
         22    1    1    0    0    0 -0.17607366474E+02  0.17049733414E+02 -0.14335280310E+02  0.28393890632E+02  0.00000000000E+00 0. -1.
</event>
<event>
 5    1  0.1285375E-004  0.9118800E+02  0.7818608E-02  0.1130116E+00
         25   -1    0    0    0    0  0.00000000000E+00  0.00000000000E+00  0.99999998245E-14  0.12500000000E+03  0.12500000000E+03 0.  0.
        -13    1    3    3    0    0 -0.25886498237E+02  0.18677610179E+02 -0.11904799985E+02  0.34069037846E+02  0.10566000000E+00 0.  1.
         23    2    1    0    0    0  0.21465249119E+02 -0.19535283223E+02 -0.71890524988E+01  0.95099052086E+02  0.90276037914E+02 0.  0.
         13    1    3    3    0    0  0.47351747356E+02 -0.38212893402E+02  0.47157474867E+01  0.61030014241E+02  0.10566000000E+00 0. -1.
         22    1    1    0    0    0 -0.21465249119E+02  0.19535283223E+02  0.71890524988E+01  0.29900947914E+02  0.00000000000E+00 0. -1.
</event>
<event>
 5    1  0.1285375E-004  0.9118800E+02  0.7818608E-02  0.1130116E+00
         25   -1    0    0    0    0  0.00000000000E+00  0.00000000000E+00  0.99999998245E-14  0.12500000000E+03  0.12500000000E+03 0.  0.
        -13    1    3    3    0    0 -0.24560618114E+02  0.25376660701E+01  0.23808945170E+02  0.34300739720E+02  0.10566000000E+00 0.  1.
         23    2    1    0    0    0  0.26417156613E+02  0.18270577943E+01 -0.11306764824E+02  0.96206819653E+02  0.91797085538E+02 0.  0.
         13    1    3    3    0    0  0.50977774727E+02 -0.71060827587E+00 -0.35115709994E+02  0.61906079933E+02  0.10566000000E+00 0. -1.
         22    1    1    0    0    0 -0.26417156613E+02 -0.18270577943E+01  0.11306764824E+02  0.28793180347E+02  0.00000000000E+00 0. -1.
</event>
<event>
 5    1  0.1285375E-004  0.9118800E+02  0.7818608E-02  0.1130116E+00
         25   -1    0    0    0    0  0.00000000000E+00  0.00000000000E+00  0.99999998245E-14  0.12500000000E+03  0.12500000000E+03 0.  0.
        -13    1    3    3    0    0  0.46645093031E+02 -0.34106364759E+02  0.14057877511E+02  0.59469688961E+02  0.10566000000E+00 0.  1.
         23    2    1    0    0    0  0.18122130549E+02 -0.22566798950E+02 -0.49511290298E+01  0.95637001019E+02  0.91017856790E+02 0.  0.
         13    1    3    3    0    0 -0.28522962482E+02  0.11539565809E+02 -0.19009006540E+02  0.36167312058E+02  0.10566000000E+00 0. -1.
         22    1    1    0    0    0 -0.18122130549E+02  0.22566798950E+02  0.49511290298E+01  0.29362998981E+02  0.00000000000E+00 0.  1.
</event>
<event>
 5    1  0.1285375E-004  0.9118800E+02  0.7818608E-02  0.1130116E+00
         25   -1    0    0    0    0  0.00000000000E+00  0.00000000000E+00  0.99999998245E-14  0.12500000000E+03  0.12500000000E+03 0.  0.
        -13    1    3    3    0    0 -0.55237389671E+02  0.51851085495E+01  0.22114956154E+00  0.55480759183E+02  0.10566000000E+00 0. -1.
         23    2    1    0    0    0 -0.20718989028E+02 -0.15861782703E+02 -0.97892587370E+01  0.97130621760E+02  0.93046522987E+02 0.  0.
         13    1    3    3    0    0  0.34518400643E+02 -0.21046891253E+02 -0.10010408299E+02  0.41649862577E+02  0.10566000000E+00 0.  1.
         22    1    1    0    0    0  0.20718989028E+02  0.15861782703E+02  0.97892587370E+01  0.27869378240E+02  0.00000000000E+00 0. -1.
</event>
<event>
 5    1  0.1285375E-004  0.9118800E+02  0.7818608E-02  0.1130116E+00
         25   -1    0    0    0    0  0.00000000000E+00  0.00000000000E+00  0.99999998245E-14  0.12500000000E+03  0.12500000000E+03 0.  0.
        -13    1    3    3    0    0  0.13059472962E+02 -0.27238987927E+02 -0.38334602129E+02  0.48806405131E+02  0.10566000000E+00 0.  1.
         23    2    1    0    0    0  0.26709146978E+02  0.65163727804E+01 -0.75432804087E+01  0.96491356997E+02  0.92183725512E+02 0.  0.
         13    1    3    3    0    0  0.13649674016E+02  0.33755360707E+02  0.30791321721E+02  0.47684951867E+02  0.10566000000E+00 0. -1.
         22    1    1    0    0    0 -0.26709146978E+02 -0.65163727804E+01  0.75432804087E+01  0.28508643003E+02  0.00000000000E+00 0. -1.
</event>
<event>
 5    1  0.1285375E-004  0.9118800E+02  0.7818608E-02  0.1130116E+00
         25   -1    0    0    0    0  0.00000000000E+00  0.00000000000E+00  0.99999998245E-14  0.12500000000E+03  0.12500000000E+03 0.  0.
        -13    1    3    3    0    0 -0.31280266058E+02 -0.26817407649E+02 -0.43491334789E+02  0.59909396287E+02  0.10566000000E+00 0. -1.
         23    2    1    0    0    0 -0.24439074409E+02 -0.10473461059E+02 -0.12474291868E+02  0.95630463025E+02  0.91008877349E+02 0.  0.
         13    1    3    3    0    0  0.68411916489E+01  0.16343946590E+02  0.31017042921E+02  0.35721066738E+02  0.10566000000E+00 0.  1.
         22    1    1    0    0    0  0.24439074409E+02  0.10473461059E+02  0.12474291868E+02  0.29369536975E+02  0.00000000000E+00 0. -1.
</event>
<event>
 5    1  0.1285375E-004  0.9118800E+02  0.7818608E-02  0.1130116E+00
         25   -1    0    0    0    0  0.00000000000E+00  0.00000000000E+00  0.99999998245E-14  0.12500000000E+03  0.12500000000E+03 0.  0.
        -13    1    3    3    0    0  0.42031449389E+02  0.12654077001E+02  0.14945284227E+02  0.46369613834E+02  0.10566000000E+00 0. -1.
         23    2    1    0    0    0  0.10531199285E+02  0.94992110457E+01 -0.24343842633E+02  0.96826185153E+02  0.92636635778E+02 0.  0.
         13    1    3    3    0    0 -0.31500250103E+02 -0.31548659552E+01 -0.39289126861E+02  0.50456571319E+02  0.10566000000E+00 0.  1.
         22    1    1    0    0    0 -0.10531199285E+02 -0.94992110457E+01  0.24343842633E+02  0.28173814847E+02  0.00000000000E+00 0.  1.
</event>
<event>
 5    1  0.1285375E-004  0.9118800E+02  0.7818608E-02  0.1130116E+00
         25   -1    0    0    0    0  0.00000000000E+00  0.00000000000E+00  0.99999998245E-14  0.12500000000E+03  0.12500000000E+03 0.  0.
        -13    1    3    3    0    0  0.28115407889E+02 -0.54418486639E+02  0.35185951437E+01  0.61353398640E+02  0.10566000000E+00 0.  1.
         23    2    1    0    0    0  0.19432675101E+02 -0.23923308039E+02 -0.39446901022E+01  0.93927277089E+02  0.88638700760E+02 0.  0.
         13    1    3    3    0    0 -0.86827327883E+01  0.30495178600E+02 -0.74632852458E+01  0.32573878449E+02  0.10566000000E+00 0. -1.
         22    1    1    0    0    0 -0.19432675101E+02  0.23923308039E+02  0.39446901022E+01  0.31072722911E+02  0.00000000000E+00 0.  1.
</event>
<event>
 5    1  0.1285375E-004  0.9118800E+02  0.7818608E-02  0.1130116E+00
         25   -1    0    0    0    0  0.00000000000E+00  0.00000000000E+00  0.99999998245E-14  0.12500000000E+03  0.12500000000E+03 0.  0.
        -13    1    3    3    0    0 -0.89976499147E+01 -0.39819608442E+02 -0.51735414829E+01  0.41150159368E+02  0.10566000000E+00 0.  1.
         23    2    1    0    0    0  0.11797173211E+01  0.94017021134E+01 -0.27325906987E+02  0.96077881678E+02  0.91621342598E+02 0.  0.
         13    1    3    3    0    0  0.10177367236E+02  0.49221310556E+02 -0.22152365504E+02  0.54927722310E+02  0.10566000000E+00 0. -1.
         22    1    1    0    0    0 -0.11797173211E+01 -0.94017021134E+01  0.27325906987E+02  0.28922118322E+02  0.00000000000E+00 0. -1.
</event>
<event>
 5    1  0.1285375E-004  0.9118800E+02  0.7818608E-02  0.1130116E+00
         25   -1    0    0    0    0  0.00000000000E+00  0.00000000000E+00  0.99999998245E-14  0.12500000000E+03  0.12500000000E+03 0.  0.
        -13    1    3    3    0    0  0.54440376917E+02  0.13082793861E+02  0.18664377746E+02  0.59019355255E+02  0.10566000000E+00 0.  1.
         23    2    1    0    0    0  0.29042995337E+02 -0.22546811393E+01 -0.29406281126E+01  0.95721570075E+02  0.91133926277E+02 0.  0.
         13    1    3    3    0    0 -0.25397381579E+02 -0.15337475000E+02 -0.21605005859E+02  0.36702214820E+02  0.10566000000E+00 0. -1.
         22    1    1    0    0    0 -0.29042995337E+02  0.22546811393E+01  0.29406281126E+01  0.29278429925E+02  0.00000000000E+00 0.  1.
</event>
<event>
 5    1  0.1285375E-004  0.9118800E+02  0.7818608E-02  0.1130116E+00
         25   -1    0    0    0    0  0.00000000000E+00  0.00000000000E+00  0.99999998245E-14  0.12500000000E+03  0.12500000000E+03 0.  0.
        -13    1    3    3    0    0 -0.26440385232E+02 -0.57985545690E+01 -0.27400945071E+02  0.38516751695E+02  0.10566000000E+00 0. -1.
         23    2    1    0    0    0 -0.12434428606E+02 -0.69605079763E+01  0.26873883807E+02  0.94581760128E+02  0.89556909459E+02 0.  0.
         13    1    3    3    0    0  0.14005956627E+02 -0.11619534074E+01  0.54274828878E+02  0.56065008433E+02  0.10566000000E+00 0.  1.
         22    1    1    0    0    0  0.12434428606E+02  0.69605079763E+01 -0.26873883807E+02  0.30418239872E+02  0.00000000000E+00 0.  1.
</event>
<event>
 5    1  0.1285375E-004  0.9118800E+02  0.7818608E-02  0.1130116E+00
         25   -1    0    0    0    0  0.00000000000E+00  0.00000000000E+00  0.99999998245E-14  0.12500000000E+03  0.12500000000E+03 0.  0.
        -13    1    3    3    0    0  0.22330272207E+02  0.14988525656E+02 -0.24439553374E+02  0.36340059045E+02  0.10566000000E+00 0.  1.
         23    2    1    0    0    0 -0.89796373274E+01  0.19642093530E+02  0.23050382388E+02  0.93412568116E+02  0.87909851718E+02 0.  0.
         13    1    3    3    0    0 -0.31309909534E+02  0.46535678734E+01  0.47489935762E+02  0.57072509072E+02  0.10566000000E+00 0. -1.
         22    1    1    0    0    0  0.89796373274E+01 -0.19642093530E+02 -0.23050382388E+02  0.31587431884E+02  0.00000000000E+00 0. -1.
</event>
<event>
 5    1  0.1285375E-004  0.9118800E+02  0.7818608E-02  0.1130116E+00
         25   -1    0    0    0    0  0.00000000000E+00  0.00000000000E+00  0.99999998245E-14  0.12500000000E+03  0.12500000000E+03 0.  0.
        -13    1    3    3    0    0  0.23740702339E+02  0.47164543226E+02 -0.24482510374E+02  0.58202401698E+02  0.10566000000E+00 0. -1.
         23    2    1    0    0    0  0.51678552614E+00  0.31121026459E+02 -0.22682517858E+02  0.86486600104E+02  0.77438039916E+02 0.  0.
         13    1    3    3    0    0 -0.23223916813E+02 -0.16043516766E+02  0.17999925155E+01  0.28284198406E+02  0.10566000000E+00 0.  1.
         22    1    1    0    0    0 -0.51678552614E+00 -0.31121026459E+02  0.22682517858E+02  0.38513399896E+02  0.00000000000E+00 0. -1.
</event>
<event>
 5    1  0.1285375E-004  0.9118800E+02  0.7818608E-02  0.1130116E+00
         25   -1    0    0    0    0  0.00000000000E+00  0.00000000000E+00  0.99999998245E-14  0.12500000000E+03  0.12500000000E+03 0.  0.
        -13    1    3    3    0    0  0.46251440238E+02  0.14901958435E+02 -0.34036947050E+02  0.59327809818E+02  0.10566000000E+00 0.  1.
         23    2    1    0    0    0  0.22752496942E+02  0.16855467636E+02 -0.58343344344E+01  0.96089407398E+02  0.91637065915E+02 0.  0.
         13    1    3    3    0    0 -0.23498943296E+02  0.19535092008E+01  0.28202612616E+02  0.36761597580E+02  0.10566000000E+00 0. -1.
         22    1    1    0    0    0 -0.22752496942E+02 -0.16855467636E+02  0.58343344344E+01  0.28910592602E+02  0.00000000000E+00 0.  1.
</event>
<event>
 5    1  0.1285375E-004  0.9118800E+02  0.7818608E-02  0.1130116E+00
         25   -1    0    0    0    0  0.00000000000E+00  0.00000000000E+00  0.99999998245E-14  0.12500000000E+03  0.12500000000E+03 0.  0.
        -13    1    3    3    0    0 -0.42204102894E+02  0.11890622715E+01 -0.38716478387E+02  0.57285050693E+02  0.10566000000E+00 0.  1.
         23    2    1    0    0    0 -0.19329734837E+02 -0.17449054874E+02 -0.17576858062E+02  0.93582582789E+02  0.88151265999E+02 0.  0.
         13    1    3    3    0    0  0.22874368057E+02 -0.18638117146E+02  0.21139620325E+02  0.36297532096E+02  0.10566000000E+00 0. -1.
         22    1    1    0    0    0  0.19329734837E+02  0.17449054874E+02  0.17576858062E+02  0.31417417211E+02  0.00000000000E+00 0.  1.
</event>
<event>
 5    1  0.1285375E-004  0.9118800E+02  0.7818608E-02  0.1130116E+00
         25   -1    0    0    0    0  0.00000000000E+00  0.00000000000E+00  0.99999998245E-14  0.12500000000E+03  0.12500000000E+03 0.  0.
        -13    1    3    3    0    0 -0.23046711668E+02  0.24748504834E+02 -0.42437869108E+01  0.34083138084E+02  0.10566000000E+00 0. -1.
         23    2    1    0    0    0  0.18224936644E+02 -0.21190826192E+02 -0.79239448460E+01  0.95948522718E+02  0.91444686447E+02 0.  0.
         13    1    3    3    0    0  0.41271648312E+02 -0.45939331026E+02 -0.36801579352E+01  0.61865384634E+02  0.10566000000E+00 0.  1.
         22    1    1    0    0    0 -0.18224936644E+02  0.21190826192E+02  0.79239448460E+01  0.29051477282E+02  0.00000000000E+00 0.  1.
</event>
<event>
 5    1  0.1285375E-004  0.9118800E+02  0.7818608E-02  0.1130116E+00
         25   -1    0    0    0    0  0.00000000000E+00  0.00000000000E+00  0.99999998245E-14  0.12500000000E+03  0.12500000000E+03 0.  0.
        -13    1    3    3    0    0  0.51296218095E+02  0.75531127013E+01  0.27099239683E+01  0.51920192163E+02  0.10566000000E+00 0. -1.
         23    2    1    0    0    0  0.22202442775E+02  0.96337819697E+01  0.26171348533E+02  0.89353152954E+02  0.81934658348E+02 0.  0.
         13    1    3    3    0    0 -0.29093775319E+02  0.20806692684E+01  0.23461424565E+02  0.37432960791E+02  0.10566000000E+00 0.  1.
         22    1    1    0    0    0 -0.22202442775E+02 -0.96337819697E+01 -0.26171348533E+02  0.35646847046E+02  0.00000000000E+00 0. -1.
</event>
<event>
 5    1  0.1285375E-004  0.9118800E+02  0.7818608E-02  0.1130116E+00
         25   -1    0    0    0    0  0.00000000000E+00  0.00000000000E+00  0.99999998245E-14  0.12500000000E+03  0.12500000000E+03 0.  0.
        -13    1    3    3    0    0  0.27327273196E+02  0.72734031879E+01  0.17791762600E+02  0.33410181602E+02  0.10566000000E+00 0.  1.
         23    2    1    0    0    0  0.52853251311E+01 -0.57578159977E+01 -0.33426141943E+02  0.90672255070E+02  0.83922963290E+02 0.  0.
         13    1    3    3    0    0 -0.22041948065E+02 -0.13031219186E+02 -0.51217904543E+02  0.57262073467E+02  0.10566000000E+00 0. -1.
         22    1    1    0    0    0 -0.52853251311E+01  0.57578159977E+01  0.33426141943E+02  0.34327744930E+02  0.00000000000E+00 0. -1.
</event>
<event>
 5    1  0.1285375E-004  0.9118800E+02  0.7818608E-02  0.1130116E+00
         25   -1    0    0    0    0  0.00000000000E+00  0.00000000000E+00  0.99999998245E-14  0.12500000000E+03  0.12500000000E+03 0.  0.
        -13    1    3    3    0    0  0.10390278629E+02 -0.91471103018E+01 -0.31752683433E+02  0.34639162607E+02  0.10566000000E+00 0.  1.
         23    2    1    0    0    0 -0.17163609723E+02 -0.31464634013E+01  0.22942162755E+02  0.96175833706E+02  0.91754882304E+02 0.  0.
         13    1    3    3    0    0 -0.27553888352E+02  0.60006469005E+01  0.54694846188E+02  0.61536671100E+02  0.10566000000E+00 0. -1.
         22    1    1    0    0    0  0.17163609723E+02  0.31464634013E+01 -0.22942162755E+02  0.28824166294E+02  0.00000000000E+00 0. -1.
</event>
<event>
 5    1  0.1285375E-004  0.9118800E+02  0.7818608E-02  0.1130116E+00
         25   -1    0    0    0    0  0.00000000000E+00  0.00000000000E+00  0.99999998245E-14  0.12500000000E+03  0.12500000000E+03 0.  0.
        -13    1    3    3    0    0  0.20077622652E+02 -0.28076253678E+02 -0.42946861507E+02  0.55098375923E+02  0.10566000000E+00 0.  1.
         23    2    1    0    0    0 -0.12398681712E+02 -0.13360009688E+02 -0.21920809546E+02  0.96491421323E+02  0.92183812737E+02 0.  0.
         13    1    3    3    0    0 -0.32476304365E+02  0.14716243990E+02  0.21026051961E+02  0.41393045400E+02  0.10566000000E+00 0. -1.
         22    1    1    0    0    0  0.12398681712E+02  0.13360009688E+02  0.21920809546E+02  0.28508578677E+02  0.00000000000E+00 0.  1.
</event>
<event>
 5    1  0.1285375E-004  0.9118800E+02  0.7818608E-02  0.1130116E+00
         25   -1    0    0    0    0  0.00000000000E+00  0.00000000000E+00  0.99999998245E-14  0.12500000000E+03  0.12500000000E+03 0.  0.
        -13    1    3    3    0    0  0.82930102138E+01 -0.27218273960E+02 -0.24424707071E+02  0.37499145795E+02  0.10566000000E+00 0.  1.
         23    2    1    0    0    0 -0.59226425352E+01 -0.75923086351E+01  0.28073650022E+02  0.95320871466E+02  0.90582657647E+02 0.  0.
         13    1    3    3    0    0 -0.14215652749E+02  0.19625965325E+02  0.52498357093E+02  0.57821725671E+02  0.10566000000E+00 0. -1.
         22    1    1    0    0    0  0.59226425352E+01  0.75923086351E+01 -0.28073650022E+02  0.29679128534E+02  0.00000000000E+00 0. -1.
</event>
<event>
 5    1  0.1285375E-004  0.9118800E+02  0.7818608E-02  0.1130116E+00
         25   -1    0    0    0    0  0.00000000000E+00  0.00000000000E+00  0.99999998245E-14  0.12500000000E+03  0.12500000000E+03 0.  0.
        -13    1    3    3    0    0  0.33086803914E+02 -0.57268017225E+00 -0.70420648955E+01  0.33832918849E+02  0.10566000000E+00 0.  1.
         23    2    1    0    0    0 -0.27747688758E+02  0.30124798683E+01  0.66847418315E+01  0.96299912200E+02  0.91923762162E+02 0.  0.
         13    1    3    3    0    0 -0.60834492673E+02  0.35851600406E+01  0.13726806727E+02  0.62466993350E+02  0.10566000000E+00 0. -1.
         22    1    1    0    0    0  0.27747688758E+02 -0.30124798683E+01 -0.66847418315E+01  0.28700087800E+02  0.00000000000E+00 0. -1.
</event>
<event>
 5    1  0.1285375E-004  0.9118800E+02  0.7818608E-02  0.1130116E+00
         25   -1    0    0    0    0  0.00000000000E+00  0.00000000000E+00  0.99999998245E-14  0.12500000000E+03  0.12500000000E+03 0.  0.
        -13    1    3    3    0    0 -0.30349111773E+02 -0.42338777123E+02  0.25015529456E+02  0.57787788604E+02  0.10566000000E+00 0. -1.
         23    2    1    0    0    0 -0.28374243749E+02 -0.10830689028E+02  0.82747776860E+01  0.93521857124E+02  0.88065113871E+02 0.  0.
         13    1    3    3    0    0  0.19748680239E+01  0.31508088096E+02 -0.16740751770E+02  0.35734068520E+02  0.10566000000E+00 0.  1.
         22    1    1    0    0    0  0.28374243749E+02  0.10830689028E+02 -0.82747776860E+01  0.31478142876E+02  0.00000000000E+00 0. -1.
</event>
<event>
 5    1  0.1285375E-004  0.9118800E+02  0.7818608E-02  0.1130116E+00
         25   -1    0    0    0    0  0.00000000000E+00  0.00000000000E+00  0.99999998245E-14  0.12500000000E+03  0.12500000000E+03 0.  0.
        -13    1    3    3    0    0  0.11309592121E+02  0.87118838630E+00 -0.20897886241E+02  0.23778112972E+02  0.10566000000E+00 0.  1.
         23    2    1    0    0    0 -0.11235815322E+02 -0.29261588984E+02  0.26258032769E+02  0.84110289549E+02  0.73502193079E+02 0.  0.
         13    1    3    3    0    0 -0.22545407443E+02 -0.30132777371E+02  0.47155919010E+02  0.60332176577E+02  0.10566000000E+00 0. -1.
         22    1    1    0    0    0  0.11235815322E+02  0.29261588984E+02 -0.26258032769E+02  0.40889710451E+02  0.00000000000E+00 0. -1.
</event>
<event>
 5    1  0.1285375E-004  0.9118800E+02  0.7818608E-02  0.1130116E+00
         25   -1    0    0    0    0  0.00000000000E+00  0.00000000000E+00  0.99999998245E-14  0.12500000000E+03  0.12500000000E+03 0.  0.
        -13    1    3    3    0    0  0.57536153425E+02  0.45116154552E+01  0.17481919341E+02  0.60302506522E+02  0.10566000000E+00 0.  1.
         23    2    1    0    0    0  0.33796613022E+02  0.23207970089E+01 -0.19623097850E+01  0.91067010002E+02  0.84508890068E+02 0.  0.
         13    1    3    3    0    0 -0.23739540403E+02 -0.21908184463E+01 -0.19444229126E+02  0.30764503480E+02  0.10566000000E+00 0. -1.
         22    1    1    0    0    0 -0.33796613022E+02 -0.23207970089E+01  0.19623097850E+01  0.33932989998E+02  0.00000000000E+00 0.  1.
</event>
<event>
 5    1  0.1285375E-004  0.9118800E+02  0.7818608E-02  0.1130116E+00
         25   -1    0    0    0    0  0.00000000000E+00  0.00000000000E+00  0.99999998245E-14  0.12500000000E+03  0.12500000000E+03 0.  0.
        -13    1    3    3    0    0 -0.10832330619E+02 -0.37393474424E+02  0.25469308682E+02  0.46522125542E+02  0.10566000000E+00 0. -1.
         23    2    1    0    0    0 -0.79171330451E+01 -0.21355786892E+02 -0.19915029907E+02  0.94745098817E+02  0.89784601710E+02 0.  0.
         13    1    3    3    0    0  0.29151975742E+01  0.16037687532E+02 -0.45384338589E+02  0.48222973275E+02  0.10566000000E+00 0.  1.
         22    1    1    0    0    0  0.79171330451E+01  0.21355786892E+02  0.19915029907E+02  0.30254901183E+02  0.00000000000E+00 0.  1.
</event>
<event>
 5    1  0.1285375E-004  0.9118800E+02  0.7818608E-02  0.1130116E+00
         25   -1    0    0    0    0  0.00000000000E+00  0.00000000000E+00  0.99999998245E-14  0.12500000000E+03  0.12500000000E+03 0.  0.
        -13    1    3    3    0    0  0.54256167893E+02  0.57784895256E+01 -0.44427124154E+01  0.54743689621E+02  0.10566000000E+00 0.  1.
         23    2    1    0    0    0  0.21706642249E+02 -0.19215504910E+02 -0.11660138537E+00  0.96009871636E+02  0.91528508723E+02 0.  0.
         13    1    3    3    0    0 -0.32549525644E+02 -0.24993994435E+02  0.43261110300E+01  0.41266182016E+02  0.10566000000E+00 0. -1.
         22    1    1    0    0    0 -0.21706642249E+02  0.19215504910E+02  0.11660138537E+00  0.28990128364E+02  0.00000000000E+00 0.  1.
</event>
<event>
 5    1  0.1285375E-004  0.9118800E+02  0.7818608E-02  0.1130116E+00
         25   -1    0    0    0    0  0.00000000000E+00  0.00000000000E+00  0.99999998245E-14  0.12500000000E+03  0.12500000000E+03 0.  0.
        -13    1    3    3    0    0  0.21829330972E+02  0.63472327483E+01  0.27079455505E+02  0.35356967188E+02  0.10566000000E+00 0.  1.
         23    2    1    0    0    0 -0.59031256939E+01  0.31396306712E+02  0.39003056989E+02  0.74583599666E+02  0.54962713876E+02 0.  0.
         13    1    3    3    0    0 -0.27732456666E+02  0.25049073964E+02  0.11923601484E+02  0.39226632478E+02  0.10566000000E+00 0. -1.
         22    1    1    0    0    0  0.59031256939E+01 -0.31396306712E+02 -0.39003056989E+02  0.50416400334E+02  0.00000000000E+00 0. -1.
</event>
<event>
 5    1  0.1285375E-004  0.9118800E+02  0.7818608E-02  0.1130116E+00
         25   -1    0    0    0    0  0.00000000000E+00  0.00000000000E+00  0.99999998245E-14  0.12500000000E+03  0.12500000000E+03 0.  0.
        -13    1    3    3    0    0 -0.93659830968E+01 -0.72392476672E+01  0.55370408288E+02  0.56621741621E+02  0.10566000000E+00 0. -1.
         23    2    1    0    0    0  0.13992699785E+01 -0.20621222701E+02  0.18647062812E+02  0.97162871311E+02  0.93089837403E+02 0.  0.
         13    1    3    3    0    0  0.10765253075E+02 -0.13381975034E+02 -0.36723345476E+02  0.40541129690E+02  0.10566000000E+00 0.  1.
         22    1    1    0    0    0 -0.13992699785E+01  0.20621222701E+02 -0.18647062812E+02  0.27837128689E+02  0.00000000000E+00 0. -1.
</event>
<event>
 5    1  0.1285375E-004  0.9118800E+02  0.7818608E-02  0.1130116E+00
         25   -1    0    0    0    0  0.00000000000E+00  0.00000000000E+00  0.99999998245E-14  0.12500000000E+03  0.12500000000E+03 0.  0.
        -13    1    3    3    0    0  0.31473759070E+02 -0.10522404522E+02  0.38690346305E+02  0.50973253459E+02  0.10566000000E+00 0. -1.
         23    2    1    0    0    0  0.31245272155E+02 -0.29601908372E+02  0.20536654492E+02  0.77310439413E+02  0.60849074382E+02 0.  0.
         13    1    3    3    0    0 -0.22848691526E+00 -0.19079503851E+02 -0.18153691814E+02  0.26337185954E+02  0.10566000000E+00 0.  1.
         22    1    1    0    0    0 -0.31245272155E+02  0.29601908372E+02 -0.20536654492E+02  0.47689560587E+02  0.00000000000E+00 0. -1.
</event>
<event>
 5    1  0.1285375E-004  0.9118800E+02  0.7818608E-02  0.1130116E+00
         25   -1    0    0    0    0  0.00000000000E+00  0.00000000000E+00  0.99999998245E-14  0.12500000000E+03  0.12500000000E+03 0.  0.
        -13    1    3    3    0    0 -0.17654030377E+02 -0.28982461768E+02  0.37217355141E+02  0.50366561987E+02  0.10566000000E+00 0.  1.
         23    2    1    0    0    0  0.18102196148E+02 -0.20065273198E+02  0.99775637930E+01  0.96192770471E+02  0.91777952787E+02 0.  0.
         13    1    3    3    0    0  0.35756226525E+02  0.89171885701E+01 -0.27239791348E+02  0.45826208484E+02  0.10566000000E+00 0. -1.
         22    1    1    0    0    0 -0.18102196148E+02  0.20065273198E+02 -0.99775637930E+01  0.28807229529E+02  0.00000000000E+00 0.  1.
</event>
<event>
 5    1  0.1285375E-004  0.9118800E+02  0.7818608E-02  0.1130116E+00
         25   -1    0    0    0    0  0.00000000000E+00  0.00000000000E+00  0.99999998245E-14  0.12500000000E+03  0.12500000000E+03 0.  0.
        -13    1    3    3    0    0  0.24682837190E+02 -0.35821456525E+01  0.38234632270E+02  0.45650547512E+02  0.10566000000E+00 0.  1.
         23    2    1    0    0    0 -0.59687042042E+00 -0.29376814740E+02  0.41242571693E+01  0.95329088390E+02  0.90593995924E+02 0.  0.
         13    1    3    3    0    0 -0.25279707611E+02 -0.25794669088E+02 -0.34110375101E+02  0.49678540878E+02  0.10566000000E+00 0. -1.
         22    1    1    0    0    0  0.59687042042E+00  0.29376814740E+02 -0.41242571693E+01  0.29670911610E+02  0.00000000000E+00 0. -1.
</event>
<event>
 5    1  0.1285375E-004  0.9118800E+02  0.7818608E-02  0.1130116E+00
         25   -1    0    0    0    0  0.00000000000E+00  0.00000000000E+00  0.99999998245E-14  0.12500000000E+03  0.12500000000E+03 0.  0.
        -13    1    3    3    0    0 -0.23331050301E+02  0.47740765423E+02 -0.23751671804E+02  0.58203708377E+02  0.10566000000E+00 0. -1.
         23    2    1    0    0    0 -0.74129026007E+01  0.28518959943E+02  0.36970582631E+01  0.95302349571E+02  0.90557094658E+02 0.  0.
         13    1    3    3    0    0  0.15918147701E+02 -0.19221805480E+02  0.27448730067E+02  0.37098641194E+02  0.10566000000E+00 0.  1.
         22    1    1    0    0    0  0.74129026007E+01 -0.28518959943E+02 -0.36970582631E+01  0.29697650429E+02  0.00000000000E+00 0. -1.
</event>
<event>
 5    1  0.1285375E-004  0.9118800E+02  0.7818608E-02  0.1130116E+00
         25   -1    0    0    0    0  0.00000000000E+00  0.00000000000E+00  0.99999998245E-14  0.12500000000E+03  0.12500000000E+03 0.  0.
        -13    1    3    3    0    0  0.49574279113E+02 -0.63329401306E+01 -0.17015763366E+02  0.52794532362E+02  0.10566000000E+00 0.  1.
         23    2    1    0    0    0  0.10833394676E+02  0.99352979074E+01 -0.25411544577E+02  0.95643242984E+02  0.91026428832E+02 0.  0.
         13    1    3    3    0    0 -0.38740884437E+02  0.16268238038E+02 -0.83957812108E+01  0.42848710622E+02  0.10566000000E+00 0. -1.
         22    1    1    0    0    0 -0.10833394676E+02 -0.99352979074E+01  0.25411544577E+02  0.29356757016E+02  0.00000000000E+00 0.  1.
</event>
<event>
 5    1  0.1285375E-004  0.9118800E+02  0.7818608E-02  0.1130116E+00
         25   -1    0    0    0    0  0.00000000000E+00  0.00000000000E+00  0.99999998245E-14  0.12500000000E+03  0.12500000000E+03 0.  0.
        -13    1    3    3    0    0 -0.10543169928E+02  0.11380236790E+02 -0.34419714518E+02  0.37754418723E+02  0.10566000000E+00 0.  1.
         23    2    1    0    0    0  0.15796715446E+01 -0.26965385022E+02  0.86074983533E+01  0.96650107946E+02  0.92398739096E+02 0.  0.
         13    1    3    3    0    0  0.12122841473E+02 -0.38345621812E+02  0.43027212872E+02  0.58895689223E+02  0.10566000000E+00 0. -1.
         22    1    1    0    0    0 -0.15796715446E+01  0.26965385022E+02 -0.86074983533E+01  0.28349892054E+02  0.00000000000E+00 0. -1.
</event>
<event>
 5    1  0.1285375E-004  0.9118800E+02  0.7818608E-02  0.1130116E+00
         25   -1    0    0    0    0  0.00000000000E+00  0.00000000000E+00  0.99999998245E-14  0.12500000000E+03  0.12500000000E+03 0.  0.
        -13    1    3    3    0    0 -0.20345794060E+02 -0.29396834426E+02 -0.32131738183E+02  0.48068544526E+02  0.10566000000E+00 0. -1.
         23    2    1    0    0    0 -0.84512710694E+01 -0.41589721520E+02 -0.22055681933E+01  0.82503018344E+02  0.70716013647E+02 0.  0.
         13    1    3    3    0    0  0.11894522991E+02 -0.12192887094E+02  0.29926169989E+02  0.34434473818E+02  0.10566000000E+00 0.  1.
         22    1    1    0    0    0  0.84512710694E+01  0.41589721520E+02  0.22055681933E+01  0.42496981656E+02  0.00000000000E+00 0. -1.
</event>
<event>
 5    1  0.1285375E-004  0.9118800E+02  0.7818608E-02  0.1130116E+00
         25   -1    0    0    0    0  0.00000000000E+00  0.00000000000E+00  0.99999998245E-14  0.12500000000E+03  0.12500000000E+03 0.  0.
        -13    1    3    3    0    0 -0.38294532626E+02 -0.83275894169E+00  0.47313924785E+02  0.60875145660E+02  0.10566000000E+00 0. -1.
         23    2    1    0    0    0 -0.15590620733E+02  0.95230080785E+01  0.18349870715E+02  0.99106508676E+02  0.95664137319E+02 0.  0.
         13    1    3    3    0    0  0.22703911893E+02  0.10355767020E+02 -0.28964054070E+02  0.38231363016E+02  0.10566000000E+00 0.  1.
         22    1    1    0    0    0  0.15590620733E+02 -0.95230080785E+01 -0.18349870715E+02  0.25893491324E+02  0.00000000000E+00 0. -1.
</event>
<event>
 5    1  0.1285375E-004  0.9118800E+02  0.7818608E-02  0.1130116E+00
         25   -1    0    0    0    0  0.00000000000E+00  0.00000000000E+00  0.99999998245E-14  0.12500000000E+03  0.12500000000E+03 0.  0.
        -13    1    3    3    0    0 -0.33003658524E+02  0.13892385398E+02 -0.20915119518E+02  0.41469184179E+02  0.10566000000E+00 0. -1.
         23    2    1    0    0    0  0.14282666123E+01 -0.26316154334E+02 -0.14842382248E+02  0.94753078913E+02  0.89795711079E+02 0.  0.
         13    1    3    3    0    0  0.34431925136E+02 -0.40208539733E+02  0.60727372699E+01  0.53283894734E+02  0.10566000000E+00 0.  1.
         22    1    1    0    0    0 -0.14282666123E+01  0.26316154334E+02  0.14842382248E+02  0.30246921087E+02  0.00000000000E+00 0. -1.
</event>
<event>
 5    1  0.1285375E-004  0.9118800E+02  0.7818608E-02  0.1130116E+00
         25   -1    0    0    0    0  0.00000000000E+00  0.00000000000E+00  0.99999998245E-14  0.12500000000E+03  0.12500000000E+03 0.  0.
        -13    1    3    3    0    0  0.26670097674E+02 -0.74310530641E+01  0.54180442584E+02  0.60844442492E+02  0.10566000000E+00 0.  1.
         23    2    1    0    0    0  0.52720048848E+01  0.30351175163E+01  0.28443570955E+02  0.95913186793E+02  0.91396371363E+02 0.  0.
         13    1    3    3    0    0 -0.21398092789E+02  0.10466170580E+02 -0.25736871628E+02  0.35068744301E+02  0.10566000000E+00 0. -1.
         22    1    1    0    0    0 -0.52720048848E+01 -0.30351175163E+01 -0.28443570955E+02  0.29086813207E+02  0.00000000000E+00 0.  1.
</event>
<event>
 5    1  0.1285375E-004  0.9118800E+02  0.7818608E-02  0.1130116E+00
         25   -1    0    0    0    0  0.00000000000E+00  0.00000000000E+00  0.99999998245E-14  0.12500000000E+03  0.12500000000E+03 0.  0.
        -13    1    3    3    0    0  0.18283820607E+02  0.29476697480E+02 -0.86166695243E+01  0.35741180003E+02  0.10566000000E+00 0.  1.
         23    2    1    0    0    0  0.43887325045E+01 -0.23404916923E+02  0.16619686710E+02  0.95960972890E+02  0.91461703584E+02 0.  0.
         13    1    3    3    0    0 -0.13895088103E+02 -0.52881614403E+02  0.25236356234E+02  0.60219792886E+02  0.10566000000E+00 0. -1.
         22    1    1    0    0    0 -0.43887325045E+01  0.23404916923E+02 -0.16619686710E+02  0.29039027110E+02  0.00000000000E+00 0. -1.
</event>
<event>
 5    1  0.1285375E-004  0.9118800E+02  0.7818608E-02  0.1130116E+00
         25   -1    0    0    0    0  0.00000000000E+00  0.00000000000E+00  0.99999998245E-14  0.12500000000E+03  0.12500000000E+03 0.  0.
        -13    1    3    3    0    0  0.30864630230E+02  0.19272482849E+02  0.94379486918E+01  0.37591754867E+02  0.10566000000E+00 0. -1.
         23    2    1    0    0    0 -0.34678987328E+01 -0.22835361044E+02 -0.15306069952E+02  0.97291593099E+02  0.93262523420E+02 0.  0.
         13    1    3    3    0    0 -0.34332528963E+02 -0.42107843892E+02 -0.24744018644E+02  0.59699838232E+02  0.10566000000E+00 0.  1.
         22    1    1    0    0    0  0.34678987328E+01  0.22835361044E+02  0.15306069952E+02  0.27708406901E+02  0.00000000000E+00 0.  1.
</event>
<event>
 5    1  0.1285375E-004  0.9118800E+02  0.7818608E-02  0.1130116E+00
         25   -1    0    0    0    0  0.00000000000E+00  0.00000000000E+00  0.99999998245E-14  0.12500000000E+03  0.12500000000E+03 0.  0.
        -13    1    3    3    0    0  0.70041287126E+01 -0.60639877481E+02  0.98651919192E-01  0.61043209747E+02  0.10566000000E+00 0.  1.
         23    2    1    0    0    0  0.34003403671E+01 -0.27810979735E+02  0.95563715551E+01  0.95397007824E+02  0.90687661543E+02 0.  0.
         13    1    3    3    0    0 -0.36037883455E+01  0.32828897746E+02  0.94577196359E+01  0.34353798078E+02  0.10566000000E+00 0. -1.
         22    1    1    0    0    0 -0.34003403671E+01  0.27810979735E+02 -0.95563715551E+01  0.29602992176E+02  0.00000000000E+00 0.  1.
</event>
<event>
 5    1  0.1285375E-004  0.9118800E+02  0.7818608E-02  0.1130116E+00
         25   -1    0    0    0    0  0.00000000000E+00  0.00000000000E+00  0.99999998245E-14  0.12500000000E+03  0.12500000000E+03 0.  0.
        -13    1    3    3    0    0  0.33684002533E+02  0.16678601322E+02  0.29287221677E+02  0.47650186635E+02  0.10566000000E+00 0.  1.
         23    2    1    0    0    0  0.51677520325E+01 -0.10236874597E+02  0.35807404802E+02  0.87401203460E+02  0.78900575821E+02 0.  0.
         13    1    3    3    0    0 -0.28516250501E+02 -0.26915475920E+02  0.65201831256E+01  0.39751016825E+02  0.10566000000E+00 0. -1.
         22    1    1    0    0    0 -0.51677520325E+01  0.10236874597E+02 -0.35807404802E+02  0.37598796540E+02  0.00000000000E+00 0.  1.
</event>
<event>
 5    1  0.1285375E-004  0.9118800E+02  0.7818608E-02  0.1130116E+00
         25   -1    0    0    0    0  0.00000000000E+00  0.00000000000E+00  0.99999998245E-14  0.12500000000E+03  0.12500000000E+03 0.  0.
        -13    1    3    3    0    0  0.22632788845E+02 -0.17227521344E+02  0.18658439041E+01  0.28504791879E+02  0.10566000000E+00 0.  1.
         23    2    1    0    0    0 -0.10673984386E+02 -0.49990036398E+01 -0.39951453712E+02  0.83346157035E+02  0.72190991535E+02 0.  0.
         13    1    3    3    0    0 -0.33306773231E+02  0.12228517704E+02 -0.41817297616E+02  0.54841365156E+02  0.10566000000E+00 0. -1.
         22    1    1    0    0    0  0.10673984386E+02  0.49990036398E+01  0.39951453712E+02  0.41653842965E+02  0.00000000000E+00 0. -1.
</event>
<event>
 5    1  0.1285375E-004  0.9118800E+02  0.7818608E-02  0.1130116E+00
         25   -1    0    0    0    0  0.00000000000E+00  0.00000000000E+00  0.99999998245E-14  0.12500000000E+03  0.12500000000E+03 0.  0.
        -13    1    3    3    0    0 -0.53515544923E+02  0.73657083556E+01 -0.14773954985E+01  0.54040365187E+02  0.10566000000E+00 0. -1.
         23    2    1    0    0    0 -0.23007278372E+02  0.26258300938E+02  0.15616488862E+01  0.90053298103E+02  0.82995930779E+02 0.  0.
         13    1    3    3    0    0  0.30508266552E+02  0.18892592582E+02  0.30390443847E+01  0.36012932917E+02  0.10566000000E+00 0.  1.
         22    1    1    0    0    0  0.23007278372E+02 -0.26258300938E+02 -0.15616488862E+01  0.34946701897E+02  0.00000000000E+00 0. -1.
</event>
<event>
 5    1  0.1285375E-004  0.9118800E+02  0.7818608E-02  0.1130116E+00
         25   -1    0    0    0    0  0.00000000000E+00  0.00000000000E+00  0.99999998245E-14  0.12500000000E+03  0.12500000000E+03 0.  0.
        -13    1    3    3    0    0  0.68504728332E+01 -0.22107984393E+02 -0.30347546711E+02  0.38166434302E+02  0.10566000000E+00 0. -1.
         23    2    1    0    0    0  0.27718045161E+02  0.10983239125E+02  0.92033295157E+01  0.93797069955E+02  0.88454889569E+02 0.  0.
         13    1    3    3    0    0  0.20867572328E+02  0.33091223519E+02  0.39550876226E+02  0.55630635653E+02  0.10566000000E+00 0.  1.
         22    1    1    0    0    0 -0.27718045161E+02 -0.10983239125E+02 -0.92033295157E+01  0.31202930045E+02  0.00000000000E+00 0.  1.
</event>
<event>
 5    1  0.1285375E-004  0.9118800E+02  0.7818608E-02  0.1130116E+00
         25   -1    0    0    0    0  0.00000000000E+00  0.00000000000E+00  0.99999998245E-14  0.12500000000E+03  0.12500000000E+03 0.  0.
        -13    1    3    3    0    0  0.14495386828E+02  0.51304198924E+02  0.29543430559E+02  0.60951312700E+02  0.10566000000E+00 0. -1.
         23    2    1    0    0    0 -0.21110913343E+01  0.26996534845E+02  0.10823351878E+02  0.95838131984E+02  0.91293663505E+02 0.  0.
         13    1    3    3    0    0 -0.16606478163E+02 -0.24307664079E+02 -0.18720078681E+02  0.34886819285E+02  0.10566000000E+00 0.  1.
         22    1    1    0    0    0  0.21110913343E+01 -0.26996534845E+02 -0.10823351878E+02  0.29161868016E+02  0.00000000000E+00 0. -1.
</event>
<event>
 5    1  0.1285375E-004  0.9118800E+02  0.7818608E-02  0.1130116E+00
         25   -1    0    0    0    0  0.00000000000E+00  0.00000000000E+00  0.99999998245E-14  0.12500000000E+03  0.12500000000E+03 0.  0.
        -13    1    3    3    0    0 -0.26636875487E+02  0.38359597985E+02 -0.21227800111E+02  0.51299245168E+02  0.10566000000E+00 0. -1.
         23    2    1    0    0    0 -0.21315979045E+02  0.14016276506E+02  0.15102244382E+02  0.95353672148E+02  0.90627909812E+02 0.  0.
         13    1    3    3    0    0  0.53208964422E+01 -0.24343321479E+02  0.36330044493E+02  0.44054426979E+02  0.10566000000E+00 0.  1.
         22    1    1    0    0    0  0.21315979045E+02 -0.14016276506E+02 -0.15102244382E+02  0.29646327852E+02  0.00000000000E+00 0.  1.
</event>
<event>
 5    1  0.1285375E-004  0.9118800E+02  0.7818608E-02  0.1130116E+00
         25   -1    0    0    0    0  0.00000000000E+00  0.00000000000E+00  0.99999998245E-14  0.12500000000E+03  0.12500000000E+03 0.  0.
        -13    1    3    3    0    0  0.29099548546E+02  0.38711133775E+02  0.12800909252E+02  0.50092015786E+02  0.10566000000E+00 0.  1.
         23    2    1    0    0    0 -0.95538823957E-01  0.82072793560E+01  0.28653871709E+02  0.95193743509E+02  0.90407056568E+02 0.  0.
         13    1    3    3    0    0 -0.29195087370E+02 -0.30503854419E+02  0.15852962457E+02  0.45101727724E+02  0.10566000000E+00 0. -1.
         22    1    1    0    0    0  0.95538823957E-01 -0.82072793560E+01 -0.28653871709E+02  0.29806256491E+02  0.00000000000E+00 0.  1.
</event>
<event>
 5    1  0.1285375E-004  0.9118800E+02  0.7818608E-02  0.1130116E+00
         25   -1    0    0    0    0  0.00000000000E+00  0.00000000000E+00  0.99999998245E-14  0.12500000000E+03  0.12500000000E+03 0.  0.
        -13    1    3    3    0    0  0.11855967233E+02 -0.25220619767E+02 -0.15113505612E+02  0.31702883723E+02  0.10566000000E+00 0.  1.
         23    2    1    0    0    0 -0.47154249059E+01  0.22612460346E+02  0.20916557237E+02  0.93838148939E+02  0.88512921287E+02 0.  0.
         13    1    3    3    0    0 -0.16571392138E+02  0.47833080113E+02  0.36030062849E+02  0.62135265215E+02  0.10566000000E+00 0. -1.
         22    1    1    0    0    0  0.47154249059E+01 -0.22612460346E+02 -0.20916557237E+02  0.31161851061E+02  0.00000000000E+00 0. -1.
</event>
<event>
 5    1  0.1285375E-004  0.9118800E+02  0.7818608E-02  0.1130116E+00
         25   -1    0    0    0    0  0.00000000000E+00  0.00000000000E+00  0.99999998245E-14  0.12500000000E+03  0.12500000000E+03 0.  0.
        -13    1    3    3    0    0  0.13420015924E+02 -0.31219761548E+02 -0.45737045103E+02  0.56979459433E+02  0.10566000000E+00 0. -1.
         23    2    1    0    0    0 -0.95484508021E+01 -0.22724629265E+02 -0.15529731321E+02  0.95866612918E+02  0.91332651497E+02 0.  0.
         13    1    3    3    0    0 -0.22968466726E+02  0.84951322823E+01  0.30207313782E+02  0.38887153485E+02  0.10566000000E+00 0.  1.
         22    1    1    0    0    0  0.95484508021E+01  0.22724629265E+02  0.15529731321E+02  0.29133387082E+02  0.00000000000E+00 0. -1.
</event>
<event>
 5    1  0.1285375E-004  0.9118800E+02  0.7818608E-02  0.1130116E+00
         25   -1    0    0    0    0  0.00000000000E+00  0.00000000000E+00  0.99999998245E-14  0.12500000000E+03  0.12500000000E+03 0.  0.
        -13    1    3    3    0    0  0.32821862687E+02  0.49435658258E+01  0.41191870413E+02  0.52900802125E+02  0.10566000000E+00 0. -1.
         23    2    1    0    0    0  0.81039876781E+01 -0.21397629528E+02  0.18663372766E+02  0.95472815091E+02  0.90792090915E+02 0.  0.
         13    1    3    3    0    0 -0.24717875009E+02 -0.26341195354E+02 -0.22528497648E+02  0.42572012965E+02  0.10566000000E+00 0.  1.
         22    1    1    0    0    0 -0.81039876781E+01  0.21397629528E+02 -0.18663372766E+02  0.29527184909E+02  0.00000000000E+00 0. -1.
</event>
<event>
 5    1  0.1285375E-004  0.9118800E+02  0.7818608E-02  0.1130116E+00
         25   -1    0    0    0    0  0.00000000000E+00  0.00000000000E+00  0.99999998245E-14  0.12500000000E+03  0.12500000000E+03 0.  0.
        -13    1    3    3    0    0  0.26655653820E+02 -0.44079328879E+01  0.19544332856E+02  0.33345852272E+02  0.10566000000E+00 0.  1.
         23    2    1    0    0    0 -0.21589567896E+02 -0.10867852663E+02 -0.18036855057E+02  0.94841289753E+02  0.89918421017E+02 0.  0.
         13    1    3    3    0    0 -0.48245221716E+02 -0.64599197750E+01 -0.37581187913E+02  0.61495437481E+02  0.10566000000E+00 0. -1.
         22    1    1    0    0    0  0.21589567896E+02  0.10867852663E+02  0.18036855057E+02  0.30158710247E+02  0.00000000000E+00 0. -1.
</event>
<event>
 5    1  0.1285375E-004  0.9118800E+02  0.7818608E-02  0.1130116E+00
         25   -1    0    0    0    0  0.00000000000E+00  0.00000000000E+00  0.99999998245E-14  0.12500000000E+03  0.12500000000E+03 0.  0.
        -13    1    3    3    0    0  0.19497984904E+02  0.32181758048E+02  0.21446947440E+02  0.43310734061E+02  0.10566000000E+00 0.  1.
         23    2    1    0    0    0  0.20319189444E+02  0.39836870479E+00 -0.20624597738E+02  0.96044824484E+02  0.91576231202E+02 0.  0.
         13    1    3    3    0    0  0.82120453956E+00 -0.31783389344E+02 -0.42071545178E+02  0.52734090423E+02  0.10566000000E+00 0. -1.
         22    1    1    0    0    0 -0.20319189444E+02 -0.39836870479E+00  0.20624597738E+02  0.28955175516E+02  0.00000000000E+00 0. -1.
</event>
<event>
 5    1  0.1285375E-004  0.9118800E+02  0.7818608E-02  0.1130116E+00
         25   -1    0    0    0    0  0.00000000000E+00  0.00000000000E+00  0.99999998245E-14  0.12500000000E+03  0.12500000000E+03 0.  0.
        -13    1    3    3    0    0  0.17538563244E+02 -0.71162529684E+01 -0.24585363604E+02  0.31027302889E+02  0.10566000000E+00 0. -1.
         23    2    1    0    0    0  0.94551956718E+00  0.10877019670E+02  0.31199300357E+02  0.91945500958E+02  0.85798457093E+02 0.  0.
         13    1    3    3    0    0 -0.16593043677E+02  0.17993272638E+02  0.55784663961E+02  0.60918198069E+02  0.10566000000E+00 0.  1.
         22    1    1    0    0    0 -0.94551956718E+00 -0.10877019670E+02 -0.31199300357E+02  0.33054499042E+02  0.00000000000E+00 0.  1.
</event>
<event>
 5    1  0.1285375E-004  0.9118800E+02  0.7818608E-02  0.1130116E+00
         25   -1    0    0    0    0  0.00000000000E+00  0.00000000000E+00  0.99999998245E-14  0.12500000000E+03  0.12500000000E+03 0.  0.
        -13    1    3    3    0    0  0.23007058624E+02  0.47191529836E+02  0.14787619482E+02  0.54544019735E+02  0.10566000000E+00 0.  1.
         23    2    1    0    0    0 -0.95715583155E+01  0.23190233876E+02  0.16375951447E+02  0.95040469603E+02  0.90194885669E+02 0.  0.
         13    1    3    3    0    0 -0.32578616940E+02 -0.24001295960E+02  0.15883319647E+01  0.40496449869E+02  0.10566000000E+00 0. -1.
         22    1    1    0    0    0  0.95715583155E+01 -0.23190233876E+02 -0.16375951447E+02  0.29959530397E+02  0.00000000000E+00 0.  1.
</event>
<event>
 5    1  0.1285375E-004  0.9118800E+02  0.7818608E-02  0.1130116E+00
         25   -1    0    0    0    0  0.00000000000E+00  0.00000000000E+00  0.99999998245E-14  0.12500000000E+03  0.12500000000E+03 0.  0.
        -13    1    3    3    0    0  0.17725260344E+02 -0.52188585156E+02 -0.17288921917E+02  0.57764619447E+02  0.10566000000E+00 0.  1.
         23    2    1    0    0    0 -0.42019760046E+01 -0.22036802219E+02 -0.19727254357E+02  0.95126235275E+02  0.90313669058E+02 0.  0.
         13    1    3    3    0    0 -0.21927236348E+02  0.30151782936E+02 -0.24383324393E+01  0.37361615827E+02  0.10566000000E+00 0. -1.
         22    1    1    0    0    0  0.42019760046E+01  0.22036802219E+02  0.19727254357E+02  0.29873764725E+02  0.00000000000E+00 0.  1.
</event>
<event>
 5    1  0.1285375E-004  0.9118800E+02  0.7818608E-02  0.1130116E+00
         25   -1    0    0    0    0  0.00000000000E+00  0.00000000000E+00  0.99999998245E-14  0.12500000000E+03  0.12500000000E+03 0.  0.
        -13    1    3    3    0    0 -0.23758676835E+02 -0.14325731660E+02 -0.18399049360E+02  0.33290201170E+02  0.10566000000E+00 0. -1.
         23    2    1    0    0    0  0.28334554387E+02  0.89759737925E+00  0.10490483392E+02  0.94772481161E+02  0.89822715892E+02 0.  0.
         13    1    3    3    0    0  0.52093231222E+02  0.15223329039E+02  0.28889532753E+02  0.61482279991E+02  0.10566000000E+00 0.  1.
         22    1    1    0    0    0 -0.28334554387E+02 -0.89759737925E+00 -0.10490483392E+02  0.30227518839E+02  0.00000000000E+00 0.  1.
</event>
<event>
 5    1  0.1285375E-004  0.9118800E+02  0.7818608E-02  0.1130116E+00
         25   -1    0    0    0    0  0.00000000000E+00  0.00000000000E+00  0.99999998245E-14  0.12500000000E+03  0.12500000000E+03 0.  0.
        -13    1    3    3    0    0 -0.71261242720E+00 -0.39041224154E+02 -0.48397685318E+02  0.62185787026E+02  0.10566000000E+00 0. -1.
         23    2    1    0    0    0  0.16053642993E+01 -0.20453701116E+02 -0.19043858202E+02  0.97007150572E+02  0.92880501953E+02 0.  0.
         13    1    3    3    0    0  0.23179767265E+01  0.18587523038E+02  0.29353827116E+02  0.34821363546E+02  0.10566000000E+00 0.  1.
         22    1    1    0    0    0 -0.16053642993E+01  0.20453701116E+02  0.19043858202E+02  0.27992849428E+02  0.00000000000E+00 0. -1.
</event>
<event>
 5    1  0.1285375E-004  0.9118800E+02  0.7818608E-02  0.1130116E+00
         25   -1    0    0    0    0  0.00000000000E+00  0.00000000000E+00  0.99999998245E-14  0.12500000000E+03  0.12500000000E+03 0.  0.
        -13    1    3    3    0    0 -0.31846645851E+02 -0.29709528343E+02 -0.27940857981E+02  0.51745218476E+02  0.10566000000E+00 0.  1.
         23    2    1    0    0    0  0.90449977017E+01 -0.15320527144E+02 -0.23790245086E+02  0.95292992465E+02  0.90544177706E+02 0.  0.
         13    1    3    3    0    0  0.40891643553E+02  0.14389001199E+02  0.41506128951E+01  0.43547773989E+02  0.10566000000E+00 0. -1.
         22    1    1    0    0    0 -0.90449977017E+01  0.15320527144E+02  0.23790245086E+02  0.29707007535E+02  0.00000000000E+00 0.  1.
</event>
<event>
 5    1  0.1285375E-004  0.9118800E+02  0.7818608E-02  0.1130116E+00
         25   -1    0    0    0    0  0.00000000000E+00  0.00000000000E+00  0.99999998245E-14  0.12500000000E+03  0.12500000000E+03 0.  0.
        -13    1    3    3    0    0 -0.37468397910E+01 -0.13241985579E+02 -0.39294664564E+02  0.41634971090E+02  0.10566000000E+00 0.  1.
         23    2    1    0    0    0 -0.20940536362E+02  0.78315577238E+01  0.11949713934E+02  0.99649753007E+02  0.96371355971E+02 0.  0.
         13    1    3    3    0    0 -0.17193696571E+02  0.21073543303E+02  0.51244378498E+02  0.58014781916E+02  0.10566000000E+00 0. -1.
         22    1    1    0    0    0  0.20940536362E+02 -0.78315577238E+01 -0.11949713934E+02  0.25350246993E+02  0.00000000000E+00 0. -1.
</event>
<event>
 5    1  0.1285375E-004  0.9118800E+02  0.7818608E-02  0.1130116E+00
         25   -1    0    0    0    0  0.00000000000E+00  0.00000000000E+00  0.99999998245E-14  0.12500000000E+03  0.12500000000E+03 0.  0.
        -13    1    3    3    0    0 -0.21321337345E+02 -0.28356598142E+01 -0.54785795136E+02  0.58856901935E+02  0.10566000000E+00 0. -1.
         23    2    1    0    0    0 -0.18308612105E+02 -0.11045485879E+02 -0.16882371707E+02  0.97756239063E+02  0.93883224092E+02 0.  0.
         13    1    3    3    0    0  0.30127252400E+01 -0.82098260647E+01  0.37903423428E+02  0.38899337128E+02  0.10566000000E+00 0.  1.
         22    1    1    0    0    0  0.18308612105E+02  0.11045485879E+02  0.16882371707E+02  0.27243760937E+02  0.00000000000E+00 0. -1.
</event>
<event>
 5    1  0.1285375E-004  0.9118800E+02  0.7818608E-02  0.1130116E+00
         25   -1    0    0    0    0  0.00000000000E+00  0.00000000000E+00  0.99999998245E-14  0.12500000000E+03  0.12500000000E+03 0.  0.
        -13    1    3    3    0    0  0.20362248634E+02  0.25494527948E+02  0.26699795360E+02  0.42160198778E+02  0.10566000000E+00 0.  1.
         23    2    1    0    0    0 -0.12033758570E+02 -0.36694336811E+01 -0.16978802880E+02  0.10386813221E+03  0.10169578680E+03 0.  0.
         13    1    3    3    0    0 -0.32396007204E+02 -0.29163961629E+02 -0.43678598240E+02  0.61707933436E+02  0.10566000000E+00 0. -1.
         22    1    1    0    0    0  0.12033758570E+02  0.36694336811E+01  0.16978802880E+02  0.21131867786E+02  0.00000000000E+00 0. -1.
</event>
<event>
 5    1  0.1285375E-004  0.9118800E+02  0.7818608E-02  0.1130116E+00
         25   -1    0    0    0    0  0.00000000000E+00  0.00000000000E+00  0.99999998245E-14  0.12500000000E+03  0.12500000000E+03 0.  0.
        -13    1    3    3    0    0  0.28754232558E+02  0.32540842411E+02 -0.40459508524E+02  0.59352298261E+02  0.10566000000E+00 0. -1.
         23    2    1    0    0    0  0.21005578096E+02  0.34576656008E+01 -0.20348500150E+02  0.95550870626E+02  0.90899492058E+02 0.  0.
         13    1    3    3    0    0 -0.77486544626E+01 -0.29083176810E+02  0.20111008374E+02  0.36198572364E+02  0.10566000000E+00 0.  1.
         22    1    1    0    0    0 -0.21005578096E+02 -0.34576656008E+01  0.20348500150E+02  0.29449129374E+02  0.00000000000E+00 0. -1.
</event>
<event>
 5    1  0.1285375E-004  0.9118800E+02  0.7818608E-02  0.1130116E+00
         25   -1    0    0    0    0  0.00000000000E+00  0.00000000000E+00  0.99999998245E-14  0.12500000000E+03  0.12500000000E+03 0.  0.
        -13    1    3    3    0    0  0.26653258831E+02  0.59442027961E+01 -0.31406783685E+02  0.41618829617E+02  0.10566000000E+00 0.  1.
         23    2    1    0    0    0  0.12946357958E+02  0.10138298731E+02  0.22349232681E+02  0.97253261688E+02  0.93211133573E+02 0.  0.
         13    1    3    3    0    0 -0.13706900873E+02  0.41940959348E+01  0.53756016367E+02  0.55634432071E+02  0.10566000000E+00 0. -1.
         22    1    1    0    0    0 -0.12946357958E+02 -0.10138298731E+02 -0.22349232681E+02  0.27746738312E+02  0.00000000000E+00 0. -1.
</event>
<event>
 5    1  0.1285375E-004  0.9118800E+02  0.7818608E-02  0.1130116E+00
         25   -1    0    0    0    0  0.00000000000E+00  0.00000000000E+00  0.99999998245E-14  0.12500000000E+03  0.12500000000E+03 0.  0.
        -13    1    3    3    0    0 -0.17600174214E+02 -0.18825782351E+02 -0.30343734318E+02  0.39811174184E+02  0.10566000000E+00 0. -1.
         23    2    1    0    0    0 -0.14119894248E+02  0.18561290045E+02  0.13907587658E+02  0.97846475438E+02  0.94003291748E+02 0.  0.
         13    1    3    3    0    0  0.34802799666E+01  0.37387072396E+02  0.44251321976E+02  0.58035301254E+02  0.10566000000E+00 0.  1.
         22    1    1    0    0    0  0.14119894248E+02 -0.18561290045E+02 -0.13907587658E+02  0.27153524562E+02  0.00000000000E+00 0.  1.
</event>
<event>
 5    1  0.1285375E-004  0.9118800E+02  0.7818608E-02  0.1130116E+00
         25   -1    0    0    0    0  0.00000000000E+00  0.00000000000E+00  0.99999998245E-14  0.12500000000E+03  0.12500000000E+03 0.  0.
        -13    1    3    3    0    0  0.13019971904E+02  0.10645221016E+02  0.58075628719E+02  0.60461807895E+02  0.10566000000E+00 0.  1.
         23    2    1    0    0    0  0.11683682317E+01 -0.20191493080E+01  0.37731479818E+02  0.87196473477E+02  0.78575558346E+02 0.  0.
         13    1    3    3    0    0 -0.11851603672E+02 -0.12664370324E+02 -0.20344148900E+02  0.26734665582E+02  0.10566000000E+00 0. -1.
         22    1    1    0    0    0 -0.11683682317E+01  0.20191493080E+01 -0.37731479818E+02  0.37803526523E+02  0.00000000000E+00 0.  1.
</event>
<event>
 5    1  0.1285375E-004  0.9118800E+02  0.7818608E-02  0.1130116E+00
         25   -1    0    0    0    0  0.00000000000E+00  0.00000000000E+00  0.99999998245E-14  0.12500000000E+03  0.12500000000E+03 0.  0.
        -13    1    3    3    0    0 -0.45680429766E+02  0.10084917101E+00  0.76467376090E+01  0.46316256264E+02  0.10566000000E+00 0. -1.
         23    2    1    0    0    0 -0.33200780072E+01 -0.15275073668E+02  0.25746300033E+02  0.94879861240E+02  0.89972025152E+02 0.  0.
         13    1    3    3    0    0  0.42360351759E+02 -0.15375922839E+02  0.18099562424E+02  0.48563604976E+02  0.10566000000E+00 0.  1.
         22    1    1    0    0    0  0.33200780072E+01  0.15275073668E+02 -0.25746300033E+02  0.30120138760E+02  0.00000000000E+00 0. -1.
</event>
<event>
 5    1  0.1285375E-004  0.9118800E+02  0.7818608E-02  0.1130116E+00
         25   -1    0    0    0    0  0.00000000000E+00  0.00000000000E+00  0.99999998245E-14  0.12500000000E+03  0.12500000000E+03 0.  0.
        -13    1    3    3    0    0  0.33041070242E+02 -0.14257111284E+02 -0.72518369256E+01  0.36709370026E+02  0.10566000000E+00 0. -1.
         23    2    1    0    0    0 -0.12895425640E+02  0.10165332577E+02  0.22885372450E+02  0.96833241915E+02  0.92646157388E+02 0.  0.
         13    1    3    3    0    0 -0.45936495882E+02  0.24422443860E+02  0.30137209375E+02  0.60123871889E+02  0.10566000000E+00 0.  1.
         22    1    1    0    0    0  0.12895425640E+02 -0.10165332577E+02 -0.22885372450E+02  0.28166758085E+02  0.00000000000E+00 0.  1.
</event>
<event>
 5    1  0.1285375E-004  0.9118800E+02  0.7818608E-02  0.1130116E+00
         25   -1    0    0    0    0  0.00000000000E+00  0.00000000000E+00  0.99999998245E-14  0.12500000000E+03  0.12500000000E+03 0.  0.
        -13    1    3    3    0    0  0.17422699470E+02  0.23196237511E+02 -0.16192982547E+02  0.33224083724E+02  0.10566000000E+00 0. -1.
         23    2    1    0    0    0 -0.18194583814E+02 -0.11977863630E+02  0.20340923722E+02  0.95196220455E+02  0.90410481216E+02 0.  0.
         13    1    3    3    0    0 -0.35617283284E+02 -0.35174101141E+02  0.36533906270E+02  0.61972136731E+02  0.10566000000E+00 0.  1.
         22    1    1    0    0    0  0.18194583814E+02  0.11977863630E+02 -0.20340923722E+02  0.29803779545E+02  0.00000000000E+00 0.  1.
</event>
<event>
 5    1  0.1285375E-004  0.9118800E+02  0.7818608E-02  0.1130116E+00
         25   -1    0    0    0    0  0.00000000000E+00  0.00000000000E+00  0.99999998245E-14  0.12500000000E+03  0.12500000000E+03 0.  0.
        -13    1    3    3    0    0 -0.22541941920E+02 -0.17460340047E+02 -0.25221159658E+02  0.38067317723E+02  0.10566000000E+00 0. -1.
         23    2    1    0    0    0  0.18129763040E+01  0.29715549963E+02 -0.53710607851E+01  0.94748568849E+02  0.89789432632E+02 0.  0.
         13    1    3    3    0    0  0.24354918224E+02  0.47175890010E+02  0.19850098873E+02  0.56681251126E+02  0.10566000000E+00 0.  1.
         22    1    1    0    0    0 -0.18129763040E+01 -0.29715549963E+02  0.53710607851E+01  0.30251431151E+02  0.00000000000E+00 0.  1.
</event>
<event>
 5    1  0.1285375E-004  0.9118800E+02  0.7818608E-02  0.1130116E+00
         25   -1    0    0    0    0  0.00000000000E+00  0.00000000000E+00  0.99999998245E-14  0.12500000000E+03  0.12500000000E+03 0.  0.
        -13    1    3    3    0    0  0.16514008638E+01  0.19920354346E+02 -0.32021549914E+02  0.37748357117E+02  0.10566000000E+00 0.  1.
         23    2    1    0    0    0 -0.22095204711E+02 -0.18992118712E+02  0.36555132063E+01  0.95635711805E+02  0.91016086222E+02 0.  0.
         13    1    3    3    0    0 -0.23746605575E+02 -0.38912473058E+02  0.35677063120E+02  0.57887354688E+02  0.10566000000E+00 0. -1.
         22    1    1    0    0    0  0.22095204711E+02  0.18992118712E+02 -0.36555132063E+01  0.29364288195E+02  0.00000000000E+00 0. -1.
</event>
<event>
 5    1  0.1285375E-004  0.9118800E+02  0.7818608E-02  0.1130116E+00
         25   -1    0    0    0    0  0.00000000000E+00  0.00000000000E+00  0.99999998245E-14  0.12500000000E+03  0.12500000000E+03 0.  0.
        -13    1    3    3    0    0 -0.15775822384E+01 -0.40636372555E+01  0.50473037339E+02  0.50661036071E+02  0.10566000000E+00 0. -1.
         23    2    1    0    0    0  0.24615698035E+02 -0.78636876963E+01  0.14353644103E+02  0.95439937873E+02  0.90746815196E+02 0.  0.
         13    1    3    3    0    0  0.26193280273E+02 -0.38000504408E+01 -0.36119393236E+02  0.44778901802E+02  0.10566000000E+00 0.  1.
         22    1    1    0    0    0 -0.24615698035E+02  0.78636876963E+01 -0.14353644103E+02  0.29560062127E+02  0.00000000000E+00 0. -1.
</event>
<event>
 5    1  0.1285375E-004  0.9118800E+02  0.7818608E-02  0.1130116E+00
         25   -1    0    0    0    0  0.00000000000E+00  0.00000000000E+00  0.99999998245E-14  0.12500000000E+03  0.12500000000E+03 0.  0.
        -13    1    3    3    0    0 -0.13449322526E+02  0.31307299996E+02  0.12474788468E+02  0.36285848768E+02  0.10566000000E+00 0. -1.
         23    2    1    0    0    0  0.30810432712E+02  0.22232888749E+01 -0.80390826053E+01  0.93080529039E+02  0.87436446976E+02 0.  0.
         13    1    3    3    0    0  0.44259755238E+02 -0.29084011121E+02 -0.20513871073E+02  0.56794680271E+02  0.10566000000E+00 0.  1.
         22    1    1    0    0    0 -0.30810432712E+02 -0.22232888749E+01  0.80390826053E+01  0.31919470961E+02  0.00000000000E+00 0.  1.
</event>
<event>
 5    1  0.1285375E-004  0.9118800E+02  0.7818608E-02  0.1130116E+00
         25   -1    0    0    0    0  0.00000000000E+00  0.00000000000E+00  0.99999998245E-14  0.12500000000E+03  0.12500000000E+03 0.  0.
        -13    1    3    3    0    0 -0.28860627483E+02 -0.45704828313E+02 -0.27609881093E+02  0.60697478101E+02  0.10566000000E+00 0.  1.
         23    2    1    0    0    0 -0.18566029236E+02 -0.24537525789E+02 -0.41127742005E+01  0.93956441488E+02  0.88679819418E+02 0.  0.
         13    1    3    3    0    0  0.10294598247E+02  0.21167302524E+02  0.23497106893E+02  0.33258963387E+02  0.10566000000E+00 0. -1.
         22    1    1    0    0    0  0.18566029236E+02  0.24537525789E+02  0.41127742005E+01  0.31043558512E+02  0.00000000000E+00 0.  1.
</event>
<event>
 5    1  0.1285375E-004  0.9118800E+02  0.7818608E-02  0.1130116E+00
         25   -1    0    0    0    0  0.00000000000E+00  0.00000000000E+00  0.99999998245E-14  0.12500000000E+03  0.12500000000E+03 0.  0.
        -13    1    3    3    0    0 -0.91551453367E+01 -0.49606605433E+02  0.87599693800E+01  0.51199416172E+02  0.10566000000E+00 0. -1.
         23    2    1    0    0    0 -0.15500759716E+02 -0.16571160896E+02 -0.19459333980E+02  0.95107817006E+02  0.90288173375E+02 0.  0.
         13    1    3    3    0    0 -0.63456143792E+01  0.33035444538E+02 -0.28219303360E+02  0.43908400834E+02  0.10566000000E+00 0.  1.
         22    1    1    0    0    0  0.15500759716E+02  0.16571160896E+02  0.19459333980E+02  0.29892182994E+02  0.00000000000E+00 0. -1.
</event>
<event>
 5    1  0.1285375E-004  0.9118800E+02  0.7818608E-02  0.1130116E+00
         25   -1    0    0    0    0  0.00000000000E+00  0.00000000000E+00  0.99999998245E-14  0.12500000000E+03  0.12500000000E+03 0.  0.
        -13    1    3    3    0    0 -0.35574185867E+01 -0.32232747340E+02 -0.38569367981E+02  0.50390599704E+02  0.10566000000E+00 0. -1.
         23    2    1    0    0    0 -0.24528066877E+02  0.10247766771E+01 -0.14896668958E+02  0.96284377458E+02  0.91902635242E+02 0.  0.
         13    1    3    3    0    0 -0.20970648290E+02  0.33257524017E+02  0.23672699023E+02  0.45893777754E+02  0.10566000000E+00 0.  1.
         22    1    1    0    0    0  0.24528066877E+02 -0.10247766771E+01  0.14896668958E+02  0.28715622542E+02  0.00000000000E+00 0.  1.
</event>
<event>
 5    1  0.1285375E-004  0.9118800E+02  0.7818608E-02  0.1130116E+00
         25   -1    0    0    0    0  0.00000000000E+00  0.00000000000E+00  0.99999998245E-14  0.12500000000E+03  0.12500000000E+03 0.  0.
        -13    1    3    3    0    0 -0.20456268419E+02 -0.39181180582E+01  0.34309107876E+02  0.40136474858E+02  0.10566000000E+00 0.  1.
         23    2    1    0    0    0 -0.12785529435E+02 -0.15398506260E+02 -0.20316905650E+02  0.96480525720E+02  0.92169037264E+02 0.  0.
         13    1    3    3    0    0  0.76707389834E+01 -0.11480388202E+02 -0.54626013526E+02  0.56344050862E+02  0.10566000000E+00 0. -1.
         22    1    1    0    0    0  0.12785529435E+02  0.15398506260E+02  0.20316905650E+02  0.28519474280E+02  0.00000000000E+00 0. -1.
</event>
<event>
 5    1  0.1285375E-004  0.9118800E+02  0.7818608E-02  0.1130116E+00
         25   -1    0    0    0    0  0.00000000000E+00  0.00000000000E+00  0.99999998245E-14  0.12500000000E+03  0.12500000000E+03 0.  0.
        -13    1    3    3    0    0 -0.32750302837E+02 -0.84913077756E+01 -0.47742589147E+02  0.58515387943E+02  0.10566000000E+00 0. -1.
         23    2    1    0    0    0 -0.24740178375E+01  0.12768727419E+01 -0.29860635622E+02  0.95009856152E+02  0.90152448874E+02 0.  0.
         13    1    3    3    0    0  0.30276284999E+02  0.97681805174E+01  0.17881953524E+02  0.36494468209E+02  0.10566000000E+00 0.  1.
         22    1    1    0    0    0  0.24740178375E+01 -0.12768727419E+01  0.29860635622E+02  0.29990143848E+02  0.00000000000E+00 0. -1.
</event>
<event>
 5    1  0.1285375E-004  0.9118800E+02  0.7818608E-02  0.1130116E+00
         25   -1    0    0    0    0  0.00000000000E+00  0.00000000000E+00  0.99999998245E-14  0.12500000000E+03  0.12500000000E+03 0.  0.
        -13    1    3    3    0    0  0.12833524042E+02  0.41607892521E+02  0.40922755719E+02  0.59754490702E+02  0.10566000000E+00 0.  1.
         23    2    1    0    0    0 -0.57136196435E+01  0.24228212933E+02  0.15660812527E+02  0.95590600136E+02  0.90954109495E+02 0.  0.
         13    1    3    3    0    0 -0.18547143685E+02 -0.17379679588E+02 -0.25261943192E+02  0.35836109434E+02  0.10566000000E+00 0. -1.
         22    1    1    0    0    0  0.57136196435E+01 -0.24228212933E+02 -0.15660812527E+02  0.29409399864E+02  0.00000000000E+00 0.  1.
</event>
<event>
 5    1  0.1285375E-004  0.9118800E+02  0.7818608E-02  0.1130116E+00
         25   -1    0    0    0    0  0.00000000000E+00  0.00000000000E+00  0.99999998245E-14  0.12500000000E+03  0.12500000000E+03 0.  0.
        -13    1    3    3    0    0 -0.33980235789E+02  0.45975614886E+01 -0.28340468124E+02  0.44485810023E+02  0.10566000000E+00 0. -1.
         23    2    1    0    0    0 -0.94945802138E+01 -0.22987631757E+02  0.10458270052E+02  0.98019383259E+02  0.94232933812E+02 0.  0.
         13    1    3    3    0    0  0.24485655575E+02 -0.27585193245E+02  0.38798738176E+02  0.53533573236E+02  0.10566000000E+00 0.  1.
         22    1    1    0    0    0  0.94945802138E+01  0.22987631757E+02 -0.10458270052E+02  0.26980616741E+02  0.00000000000E+00 0.  1.
</event>
<event>
 5    1  0.1285375E-004  0.9118800E+02  0.7818608E-02  0.1130116E+00
         25   -1    0    0    0    0  0.00000000000E+00  0.00000000000E+00  0.99999998245E-14  0.12500000000E+03  0.12500000000E+03 0.  0.
        -13    1    3    3    0    0 -0.26143559808E+02 -0.42191653422E+01  0.30214714162E+02  0.40177446305E+02  0.10566000000E+00 0.  1.
         23    2    1    0    0    0 -0.15124533502E+02  0.92699625624E+01 -0.22875686086E+02  0.96052103125E+02  0.91586165884E+02 0.  0.
         13    1    3    3    0    0  0.11019026306E+02  0.13489127905E+02 -0.53090400248E+02  0.55874656821E+02  0.10566000000E+00 0. -1.
         22    1    1    0    0    0  0.15124533502E+02 -0.92699625624E+01  0.22875686086E+02  0.28947896875E+02  0.00000000000E+00 0. -1.
</event>
<event>
 5    1  0.1285375E-004  0.9118800E+02  0.7818608E-02  0.1130116E+00
         25   -1    0    0    0    0  0.00000000000E+00  0.00000000000E+00  0.99999998245E-14  0.12500000000E+03  0.12500000000E+03 0.  0.
        -13    1    3    3    0    0 -0.49416920150E+02  0.23456377115E+02  0.20703182031E+02  0.58488174315E+02  0.10566000000E+00 0.  1.
         23    2    1    0    0    0 -0.28851618578E+02 -0.33901187832E+01  0.61440192550E+01  0.95307277448E+02  0.90563896570E+02 0.  0.
         13    1    3    3    0    0  0.20565301572E+02 -0.26846495899E+02 -0.14559162776E+02  0.36819103133E+02  0.10566000000E+00 0. -1.
         22    1    1    0    0    0  0.28851618578E+02  0.33901187832E+01 -0.61440192550E+01  0.29692722552E+02  0.00000000000E+00 0.  1.
</event>
<event>
 5    1  0.1285375E-004  0.9118800E+02  0.7818608E-02  0.1130116E+00
         25   -1    0    0    0    0  0.00000000000E+00  0.00000000000E+00  0.99999998245E-14  0.12500000000E+03  0.12500000000E+03 0.  0.
        -13    1    3    3    0    0 -0.77432729357E+01 -0.24800631837E+02  0.47348949697E+02  0.54008923491E+02  0.10566000000E+00 0. -1.
         23    2    1    0    0    0 -0.26167132185E+02 -0.14976644723E+02  0.36874585255E+02  0.77368563620E+02  0.60968359867E+02 0.  0.
         13    1    3    3    0    0 -0.18423859249E+02  0.98239871132E+01 -0.10474364442E+02  0.23359640128E+02  0.10566000000E+00 0.  1.
         22    1    1    0    0    0  0.26167132185E+02  0.14976644723E+02 -0.36874585255E+02  0.47631436380E+02  0.00000000000E+00 0. -1.
</event>
<event>
 5    1  0.1285375E-004  0.9118800E+02  0.7818608E-02  0.1130116E+00
         25   -1    0    0    0    0  0.00000000000E+00  0.00000000000E+00  0.99999998245E-14  0.12500000000E+03  0.12500000000E+03 0.  0.
        -13    1    3    3    0    0 -0.20164733227E+02  0.17614522714E+02 -0.30377200233E+02  0.40492880048E+02  0.10566000000E+00 0.  1.
         23    2    1    0    0    0  0.21477201276E+02 -0.14786132256E+02 -0.10975501012E+02  0.96709338923E+02  0.92478833960E+02 0.  0.
         13    1    3    3    0    0  0.41641934503E+02 -0.32400654970E+02  0.19401699221E+02  0.56216458874E+02  0.10566000000E+00 0. -1.
         22    1    1    0    0    0 -0.21477201276E+02  0.14786132256E+02  0.10975501012E+02  0.28290661077E+02  0.00000000000E+00 0. -1.
</event>
<event>
 5    1  0.1285375E-004  0.9118800E+02  0.7818608E-02  0.1130116E+00
         25   -1    0    0    0    0  0.00000000000E+00  0.00000000000E+00  0.99999998245E-14  0.12500000000E+03  0.12500000000E+03 0.  0.
        -13    1    3    3    0    0 -0.29375101632E+02  0.13729518096E+02  0.16940313230E+02  0.36583898636E+02  0.10566000000E+00 0.  1.
         23    2    1    0    0    0  0.22481363027E+01 -0.23167893163E+02 -0.17272861569E+02  0.96014535760E+02  0.91534878270E+02 0.  0.
         13    1    3    3    0    0  0.31623237935E+02 -0.36897411259E+02 -0.34213174798E+02  0.59430637124E+02  0.10566000000E+00 0. -1.
         22    1    1    0    0    0 -0.22481363027E+01  0.23167893163E+02  0.17272861569E+02  0.28985464240E+02  0.00000000000E+00 0. -1.
</event>
<event>
 4    1  0.1285375E-004  0.9118800E+02  0.7818608E-02  0.1130116E+00
         25   -1    0    0    0    0  0.00000000000E+00  0.00000000000E+00  0.99999998245E-14  0.12500000000E+03  0.12500000000E+03 0.  0.
        -13    1    1    0    0    0 -0.68318069435E+01  0.86040747754E+01  0.32867059235E+01  0.11468098740E+02  0.10566000000E+00 0.  1.
         13    1    1    0    0    0  0.51572085417E+02 -0.26435643901E+02 -0.21822463169E+02  0.61925393220E+02  0.10566000000E+00 0. -1.
         22    1    1    0    0    0 -0.44740278473E+02  0.17831569126E+02  0.18535757246E+02  0.51606508039E+02  0.00000000000E+00 0. -1.
</event>
<event>
 5    1  0.1285375E-004  0.9118800E+02  0.7818608E-02  0.1130116E+00
         25   -1    0    0    0    0  0.00000000000E+00  0.00000000000E+00  0.99999998245E-14  0.12500000000E+03  0.12500000000E+03 0.  0.
        -13    1    3    3    0    0 -0.25444427515E+02  0.16635963407E+01 -0.34345077177E+02  0.42775950423E+02  0.10566000000E+00 0. -1.
         23    2    1    0    0    0  0.13441891821E+01 -0.28532107194E+02  0.98459069196E+00  0.96419282648E+02  0.92085941718E+02 0.  0.
         13    1    3    3    0    0  0.26788616697E+02 -0.30195703535E+02  0.35329667869E+02  0.53643332225E+02  0.10566000000E+00 0.  1.
         22    1    1    0    0    0 -0.13441891821E+01  0.28532107194E+02 -0.98459069196E+00  0.28580717352E+02  0.00000000000E+00 0. -1.
</event>
<event>
 5    1  0.1285375E-004  0.9118800E+02  0.7818608E-02  0.1130116E+00
         25   -1    0    0    0    0  0.00000000000E+00  0.00000000000E+00  0.99999998245E-14  0.12500000000E+03  0.12500000000E+03 0.  0.
        -13    1    3    3    0    0  0.17105472500E+02 -0.22591535416E+02 -0.26203998726E+02  0.38595794786E+02  0.10566000000E+00 0. -1.
         23    2    1    0    0    0 -0.23240505386E+02 -0.13507207611E+02  0.12605900466E+02  0.95310364189E+02  0.90568156916E+02 0.  0.
         13    1    3    3    0    0 -0.40345977886E+02  0.90843278051E+01  0.38809899192E+02  0.56714569403E+02  0.10566000000E+00 0.  1.
         22    1    1    0    0    0  0.23240505386E+02  0.13507207611E+02 -0.12605900466E+02  0.29689635811E+02  0.00000000000E+00 0.  1.
</event>
<event>
 5    1  0.1285375E-004  0.9118800E+02  0.7818608E-02  0.1130116E+00
         25   -1    0    0    0    0  0.00000000000E+00  0.00000000000E+00  0.99999998245E-14  0.12500000000E+03  0.12500000000E+03 0.  0.
        -13    1    3    3    0    0  0.30003233799E+02  0.11830747161E+02  0.16681878494E+02  0.36310561148E+02  0.10566000000E+00 0.  1.
         23    2    1    0    0    0 -0.24376142441E+02  0.19552612944E+02  0.12325518070E+02  0.91408045770E+02  0.85011831192E+02 0.  0.
         13    1    3    3    0    0 -0.54379376240E+02  0.77218657832E+01 -0.43563604240E+01  0.55097484622E+02  0.10566000000E+00 0. -1.
         22    1    1    0    0    0  0.24376142441E+02 -0.19552612944E+02 -0.12325518070E+02  0.33591954230E+02  0.00000000000E+00 0. -1.
</event>
<event>
 5    1  0.1285375E-004  0.9118800E+02  0.7818608E-02  0.1130116E+00
         25   -1    0    0    0    0  0.00000000000E+00  0.00000000000E+00  0.99999998245E-14  0.12500000000E+03  0.12500000000E+03 0.  0.
        -13    1    3    3    0    0  0.25286727101E+02 -0.52346850806E+02  0.12440587027E+02  0.59450742017E+02  0.10566000000E+00 0.  1.
         23    2    1    0    0    0 -0.62904908427E+00 -0.26268700584E+02  0.11733182356E+02  0.96223136006E+02  0.91819300811E+02 0.  0.
         13    1    3    3    0    0 -0.25915776186E+02  0.26078150221E+02 -0.70740467010E+00  0.36772393989E+02  0.10566000000E+00 0. -1.
         22    1    1    0    0    0  0.62904908427E+00  0.26268700584E+02 -0.11733182356E+02  0.28776863994E+02  0.00000000000E+00 0.  1.
</event>
<event>
 5    1  0.1285375E-004  0.9118800E+02  0.7818608E-02  0.1130116E+00
         25   -1    0    0    0    0  0.00000000000E+00  0.00000000000E+00  0.99999998245E-14  0.12500000000E+03  0.12500000000E+03 0.  0.
        -13    1    3    3    0    0 -0.21365569622E+02  0.17268280272E+02  0.54973543295E+02  0.61455534294E+02  0.10566000000E+00 0. -1.
         23    2    1    0    0    0 -0.63195018772E+01  0.15106538946E+02  0.24174798840E+02  0.95801292463E+02  0.91243208600E+02 0.  0.
         13    1    3    3    0    0  0.15046067744E+02 -0.21617413258E+01 -0.30798744456E+02  0.34345758169E+02  0.10566000000E+00 0.  1.
         22    1    1    0    0    0  0.63195018772E+01 -0.15106538946E+02 -0.24174798840E+02  0.29198707537E+02  0.00000000000E+00 0. -1.
</event>
<event>
 5    1  0.1285375E-004  0.9118800E+02  0.7818608E-02  0.1130116E+00
         25   -1    0    0    0    0  0.00000000000E+00  0.00000000000E+00  0.99999998245E-14  0.12500000000E+03  0.12500000000E+03 0.  0.
        -13    1    3    3    0    0 -0.28942734185E+02 -0.21914688424E+02  0.42515262833E+02  0.55906119241E+02  0.10566000000E+00 0. -1.
         23    2    1    0    0    0 -0.87661801049E+01 -0.27235481590E+02  0.97094005996E+01  0.94785933225E+02  0.89841434239E+02 0.  0.
         13    1    3    3    0    0  0.20176554080E+02 -0.53207931669E+01 -0.32805862234E+02  0.38879813984E+02  0.10566000000E+00 0.  1.
         22    1    1    0    0    0  0.87661801049E+01  0.27235481590E+02 -0.97094005996E+01  0.30214066775E+02  0.00000000000E+00 0. -1.
</event>
<event>
 5    1  0.1285375E-004  0.9118800E+02  0.7818608E-02  0.1130116E+00
         25   -1    0    0    0    0  0.00000000000E+00  0.00000000000E+00  0.99999998245E-14  0.12500000000E+03  0.12500000000E+03 0.  0.
        -13    1    3    3    0    0  0.29508811707E+02  0.25476247450E+02 -0.79085020414E+01  0.39778948215E+02  0.10566000000E+00 0.  1.
         23    2    1    0    0    0 -0.23897989706E+02  0.12806976669E+02  0.76456916810E+01  0.96829285336E+02  0.92640818941E+02 0.  0.
         13    1    3    3    0    0 -0.53406801413E+02 -0.12669270782E+02  0.15554193722E+02  0.57050337122E+02  0.10566000000E+00 0. -1.
         22    1    1    0    0    0  0.23897989706E+02 -0.12806976669E+02 -0.76456916810E+01  0.28170714664E+02  0.00000000000E+00 0. -1.
</event>
<event>
 5    1  0.1285375E-004  0.9118800E+02  0.7818608E-02  0.1130116E+00
         25   -1    0    0    0    0  0.00000000000E+00  0.00000000000E+00  0.99999998245E-14  0.12500000000E+03  0.12500000000E+03 0.  0.
        -13    1    3    3    0    0 -0.12398895028E+01 -0.28279996560E+02 -0.20388466580E+02  0.34885473552E+02  0.10566000000E+00 0. -1.
         23    2    1    0    0    0  0.22183717537E+02  0.16394993100E+02  0.12092001806E+02  0.94881407235E+02  0.89974173009E+02 0.  0.
         13    1    3    3    0    0  0.23423607039E+02  0.44674989660E+02  0.32480468386E+02  0.59995933683E+02  0.10566000000E+00 0.  1.
         22    1    1    0    0    0 -0.22183717537E+02 -0.16394993100E+02 -0.12092001806E+02  0.30118592765E+02  0.00000000000E+00 0.  1.
</event>
<event>
 5    1  0.1285375E-004  0.9118800E+02  0.7818608E-02  0.1130116E+00
         25   -1    0    0    0    0  0.00000000000E+00  0.00000000000E+00  0.99999998245E-14  0.12500000000E+03  0.12500000000E+03 0.  0.
        -13    1    3    3    0    0 -0.30087771791E+02 -0.43907135116E+02  0.83456365810E+01  0.53877373168E+02  0.10566000000E+00 0. -1.
         23    2    1    0    0    0  0.72140976538E+01 -0.29575705979E+02  0.78274626229E+00  0.94547113752E+02  0.89508538353E+02 0.  0.
         13    1    3    3    0    0  0.37301869445E+02  0.14331429137E+02 -0.75628903187E+01  0.40669740585E+02  0.10566000000E+00 0.  1.
         22    1    1    0    0    0 -0.72140976538E+01  0.29575705979E+02 -0.78274626229E+00  0.30452886248E+02  0.00000000000E+00 0. -1.
</event>
<event>
 5    1  0.1285375E-004  0.9118800E+02  0.7818608E-02  0.1130116E+00
         25   -1    0    0    0    0  0.00000000000E+00  0.00000000000E+00  0.99999998245E-14  0.12500000000E+03  0.12500000000E+03 0.  0.
        -13    1    3    3    0    0 -0.37291197347E+02  0.37321876840E+02  0.68831104151E+01  0.53206618606E+02  0.10566000000E+00 0. -1.
         23    2    1    0    0    0 -0.29147788600E+02 -0.20042374404E+01 -0.55773775780E+01  0.95255795713E+02  0.90492811473E+02 0.  0.
         13    1    3    3    0    0  0.81434087469E+01 -0.39326114280E+02 -0.12460487993E+02  0.42049177108E+02  0.10566000000E+00 0.  1.
         22    1    1    0    0    0  0.29147788600E+02  0.20042374404E+01  0.55773775780E+01  0.29744204287E+02  0.00000000000E+00 0. -1.
</event>
<event>
 5    1  0.1285375E-004  0.9118800E+02  0.7818608E-02  0.1130116E+00
         25   -1    0    0    0    0  0.00000000000E+00  0.00000000000E+00  0.99999998245E-14  0.12500000000E+03  0.12500000000E+03 0.  0.
        -13    1    3    3    0    0 -0.41755876924E+01  0.31299046311E+02 -0.16546354153E+02  0.35649107035E+02  0.10566000000E+00 0.  1.
         23    2    1    0    0    0  0.26043621348E+02 -0.15580341161E+02  0.24060354689E+01  0.94556507259E+02  0.89521655563E+02 0.  0.
         13    1    3    3    0    0  0.30219209040E+02 -0.46879387472E+02  0.18952389622E+02  0.58907400224E+02  0.10566000000E+00 0. -1.
         22    1    1    0    0    0 -0.26043621348E+02  0.15580341161E+02 -0.24060354689E+01  0.30443492741E+02  0.00000000000E+00 0. -1.
</event>
<event>
 5    1  0.1285375E-004  0.9118800E+02  0.7818608E-02  0.1130116E+00
         25   -1    0    0    0    0  0.00000000000E+00  0.00000000000E+00  0.99999998245E-14  0.12500000000E+03  0.12500000000E+03 0.  0.
        -13    1    3    3    0    0  0.41837809953E+02 -0.11232977608E+01 -0.92424930062E+01  0.42861392658E+02  0.10566000000E+00 0.  1.
         23    2    1    0    0    0 -0.11026467150E+02 -0.19869817920E+02 -0.12534869663E+02  0.99047820911E+02  0.95587421912E+02 0.  0.
         13    1    3    3    0    0 -0.52864277104E+02 -0.18746520159E+02 -0.32923766572E+01  0.56186428253E+02  0.10566000000E+00 0. -1.
         22    1    1    0    0    0  0.11026467150E+02  0.19869817920E+02  0.12534869663E+02  0.25952179089E+02  0.00000000000E+00 0. -1.
</event>
<event>
 5    1  0.1285375E-004  0.9118800E+02  0.7818608E-02  0.1130116E+00
         25   -1    0    0    0    0  0.00000000000E+00  0.00000000000E+00  0.99999998245E-14  0.12500000000E+03  0.12500000000E+03 0.  0.
        -13    1    3    3    0    0  0.26978830992E+02 -0.29667927880E+02  0.19900204025E+02  0.44766868895E+02  0.10566000000E+00 0.  1.
         23    2    1    0    0    0  0.11382985641E+02 -0.92283972861E+01 -0.24719296532E+02  0.96263624105E+02  0.91874403542E+02 0.  0.
         13    1    3    3    0    0 -0.15595845351E+02  0.20439530594E+02 -0.44619500557E+02  0.51496755210E+02  0.10566000000E+00 0. -1.
         22    1    1    0    0    0 -0.11382985641E+02  0.92283972861E+01  0.24719296532E+02  0.28736375895E+02  0.00000000000E+00 0. -1.
</event>
<event>
 5    1  0.1285375E-004  0.9118800E+02  0.7818608E-02  0.1130116E+00
         25   -1    0    0    0    0  0.00000000000E+00  0.00000000000E+00  0.99999998245E-14  0.12500000000E+03  0.12500000000E+03 0.  0.
        -13    1    3    3    0    0 -0.10062589961E+02 -0.58051424633E+02 -0.18077109958E+02  0.61628051138E+02  0.10566000000E+00 0.  1.
         23    2    1    0    0    0 -0.11405741577E+02 -0.25560273646E+02 -0.11115938136E+02  0.94883848014E+02  0.89977563890E+02 0.  0.
         13    1    3    3    0    0 -0.13431516164E+01  0.32491150987E+02  0.69611718220E+01  0.33255796876E+02  0.10566000000E+00 0. -1.
         22    1    1    0    0    0  0.11405741577E+02  0.25560273646E+02  0.11115938136E+02  0.30116151986E+02  0.00000000000E+00 0.  1.
</event>
<event>
 5    1  0.1285375E-004  0.9118800E+02  0.7818608E-02  0.1130116E+00
         25   -1    0    0    0    0  0.00000000000E+00  0.00000000000E+00  0.99999998245E-14  0.12500000000E+03  0.12500000000E+03 0.  0.
        -13    1    3    3    0    0 -0.43672567795E+02 -0.16427609161E+02 -0.35749106380E+01  0.46796908773E+02  0.10566000000E+00 0.  1.
         23    2    1    0    0    0 -0.86685830087E+01  0.38012117998E+01  0.26288477028E+02  0.97059392151E+02  0.92950782878E+02 0.  0.
         13    1    3    3    0    0  0.35003984786E+02  0.20228820961E+02  0.29863387666E+02  0.50262483378E+02  0.10566000000E+00 0. -1.
         22    1    1    0    0    0  0.86685830087E+01 -0.38012117998E+01 -0.26288477028E+02  0.27940607849E+02  0.00000000000E+00 0. -1.
</event>
<event>
 5    1  0.1285375E-004  0.9118800E+02  0.7818608E-02  0.1130116E+00
         25   -1    0    0    0    0  0.00000000000E+00  0.00000000000E+00  0.99999998245E-14  0.12500000000E+03  0.12500000000E+03 0.  0.
        -13    1    3    3    0    0  0.16712177043E+02  0.46469772202E+01  0.49861828006E+02  0.52793032826E+02  0.10566000000E+00 0. -1.
         23    2    1    0    0    0  0.19685253084E+02  0.19937233651E+02  0.10579245526E+02  0.95051328735E+02  0.90209933953E+02 0.  0.
         13    1    3    3    0    0  0.29730760411E+01  0.15290256431E+02 -0.39282582480E+02  0.42258295909E+02  0.10566000000E+00 0.  1.
         22    1    1    0    0    0 -0.19685253084E+02 -0.19937233651E+02 -0.10579245526E+02  0.29948671265E+02  0.00000000000E+00 0.  1.
</event>
<event>
 5    1  0.1285375E-004  0.9118800E+02  0.7818608E-02  0.1130116E+00
         25   -1    0    0    0    0  0.00000000000E+00  0.00000000000E+00  0.99999998245E-14  0.12500000000E+03  0.12500000000E+03 0.  0.
        -13    1    3    3    0    0 -0.57615075862E+00 -0.44844904207E+02 -0.16126517481E+02  0.47659973911E+02  0.10566000000E+00 0. -1.
         23    2    1    0    0    0  0.24010126397E+02 -0.36512088319E+01 -0.16507900943E+02  0.95634573236E+02  0.91014522517E+02 0.  0.
         13    1    3    3    0    0  0.24586277155E+02  0.41193695375E+02 -0.38138346158E+00  0.47974599325E+02  0.10566000000E+00 0.  1.
         22    1    1    0    0    0 -0.24010126397E+02  0.36512088319E+01  0.16507900943E+02  0.29365426764E+02  0.00000000000E+00 0.  1.
</event>
<event>
 5    1  0.1285375E-004  0.9118800E+02  0.7818608E-02  0.1130116E+00
         25   -1    0    0    0    0  0.00000000000E+00  0.00000000000E+00  0.99999998245E-14  0.12500000000E+03  0.12500000000E+03 0.  0.
        -13    1    3    3    0    0  0.46864426636E+01 -0.35259062853E+02 -0.37466380661E+01  0.35766083360E+02  0.10566000000E+00 0. -1.
         23    2    1    0    0    0 -0.15732925300E+02  0.18613050900E+02  0.15036861299E+02  0.96362999458E+02  0.92009509642E+02 0.  0.
         13    1    3    3    0    0 -0.20419367964E+02  0.53872113752E+02  0.18783499365E+02  0.60596916098E+02  0.10566000000E+00 0.  1.
         22    1    1    0    0    0  0.15732925300E+02 -0.18613050900E+02 -0.15036861299E+02  0.28637000542E+02  0.00000000000E+00 0.  1.
</event>
<event>
 5    1  0.1285375E-004  0.9118800E+02  0.7818608E-02  0.1130116E+00
         25   -1    0    0    0    0  0.00000000000E+00  0.00000000000E+00  0.99999998245E-14  0.12500000000E+03  0.12500000000E+03 0.  0.
        -13    1    3    3    0    0  0.33925867038E+02  0.31930071487E+02 -0.71049878472E+01  0.47127337457E+02  0.10566000000E+00 0. -1.
         23    2    1    0    0    0  0.25186576916E+02 -0.13643073824E+02  0.67808017352E+01  0.95564028940E+02  0.90917584850E+02 0.  0.
         13    1    3    3    0    0 -0.87392901221E+01 -0.45573145311E+02  0.13885789582E+02  0.48436691482E+02  0.10566000000E+00 0.  1.
         22    1    1    0    0    0 -0.25186576916E+02  0.13643073824E+02 -0.67808017352E+01  0.29435971060E+02  0.00000000000E+00 0.  1.
</event>
<event>
 5    1  0.1285375E-004  0.9118800E+02  0.7818608E-02  0.1130116E+00
         25   -1    0    0    0    0  0.00000000000E+00  0.00000000000E+00  0.99999998245E-14  0.12500000000E+03  0.12500000000E+03 0.  0.
        -13    1    3    3    0    0  0.12646226641E+02  0.12590162402E+00  0.31357934140E+02  0.33812336462E+02  0.10566000000E+00 0. -1.
         23    2    1    0    0    0 -0.17380813908E+02  0.62157388644E+01 -0.22574196706E+02  0.95839710930E+02  0.91295825384E+02 0.  0.
         13    1    3    3    0    0 -0.30027040550E+02  0.60898372404E+01 -0.53932130846E+02  0.62027374468E+02  0.10566000000E+00 0.  1.
         22    1    1    0    0    0  0.17380813908E+02 -0.62157388644E+01  0.22574196706E+02  0.29160289070E+02  0.00000000000E+00 0.  1.
</event>
<event>
 5    1  0.1285375E-004  0.9118800E+02  0.7818608E-02  0.1130116E+00
         25   -1    0    0    0    0  0.00000000000E+00  0.00000000000E+00  0.99999998245E-14  0.12500000000E+03  0.12500000000E+03 0.  0.
        -13    1    3    3    0    0 -0.32460159694E+02  0.53712563034E+01 -0.24421208058E+01  0.32992233627E+02  0.10566000000E+00 0.  1.
         23    2    1    0    0    0  0.23759592735E+02 -0.85889583647E+01  0.17511918159E+02  0.94259867757E+02  0.89106492127E+02 0.  0.
         13    1    3    3    0    0  0.56219752429E+02 -0.13960214668E+02  0.19954038965E+02  0.61267634130E+02  0.10566000000E+00 0. -1.
         22    1    1    0    0    0 -0.23759592735E+02  0.85889583647E+01 -0.17511918159E+02  0.30740132243E+02  0.00000000000E+00 0. -1.
</event>
<event>
 5    1  0.1285375E-004  0.9118800E+02  0.7818608E-02  0.1130116E+00
         25   -1    0    0    0    0  0.00000000000E+00  0.00000000000E+00  0.99999998245E-14  0.12500000000E+03  0.12500000000E+03 0.  0.
        -13    1    3    3    0    0 -0.36756273061E+02  0.33131038943E+02 -0.16706115358E+02  0.52228295063E+02  0.10566000000E+00 0.  1.
         23    2    1    0    0    0 -0.48952618600E+01  0.27032936518E+02  0.11501903770E+02  0.95216833013E+02  0.90438975299E+02 0.  0.
         13    1    3    3    0    0  0.31861011201E+02 -0.60981024246E+01  0.28208019128E+02  0.42988537950E+02  0.10566000000E+00 0. -1.
         22    1    1    0    0    0  0.48952618600E+01 -0.27032936518E+02 -0.11501903770E+02  0.29783166987E+02  0.00000000000E+00 0.  1.
</event>
<event>
 5    1  0.1285375E-004  0.9118800E+02  0.7818608E-02  0.1130116E+00
         25   -1    0    0    0    0  0.00000000000E+00  0.00000000000E+00  0.99999998245E-14  0.12500000000E+03  0.12500000000E+03 0.  0.
        -13    1    3    3    0    0  0.36731253771E+01 -0.77693024506E+01  0.31894269659E+02  0.33031946836E+02  0.10566000000E+00 0. -1.
         23    2    1    0    0    0 -0.25414330191E+01  0.13283502534E+02 -0.26408325792E+02  0.95329981589E+02  0.90595228336E+02 0.  0.
         13    1    3    3    0    0 -0.62145583962E+01  0.21052804985E+02 -0.58302595451E+02  0.62298034754E+02  0.10566000000E+00 0.  1.
         22    1    1    0    0    0  0.25414330191E+01 -0.13283502534E+02  0.26408325792E+02  0.29670018411E+02  0.00000000000E+00 0.  1.
</event>
<event>
 5    1  0.1285375E-004  0.9118800E+02  0.7818608E-02  0.1130116E+00
         25   -1    0    0    0    0  0.00000000000E+00  0.00000000000E+00  0.99999998245E-14  0.12500000000E+03  0.12500000000E+03 0.  0.
        -13    1    3    3    0    0  0.94434035643E+01  0.40961889432E+02  0.11797562511E+02  0.43660598964E+02  0.10566000000E+00 0. -1.
         23    2    1    0    0    0  0.29432181200E+02 -0.12650119340E+01 -0.81106209380E+01  0.94444546847E+02  0.89365187360E+02 0.  0.
         13    1    3    3    0    0  0.19988777635E+02 -0.42226901366E+02 -0.19908183449E+02  0.50783947883E+02  0.10566000000E+00 0.  1.
         22    1    1    0    0    0 -0.29432181200E+02  0.12650119340E+01  0.81106209380E+01  0.30555453153E+02  0.00000000000E+00 0.  1.
</event>
<event>
 5    1  0.1285375E-004  0.9118800E+02  0.7818608E-02  0.1130116E+00
         25   -1    0    0    0    0  0.00000000000E+00  0.00000000000E+00  0.99999998245E-14  0.12500000000E+03  0.12500000000E+03 0.  0.
        -13    1    3    3    0    0  0.30181191653E+02  0.23689053758E+02  0.46942899049E+02  0.60627737322E+02  0.10566000000E+00 0.  1.
         23    2    1    0    0    0  0.95193352830E+00  0.84892275057E+01  0.20224159500E+02  0.10304573416E+03  0.10067985668E+03 0.  0.
         13    1    3    3    0    0 -0.29229258125E+02 -0.15199826252E+02 -0.26718739550E+02  0.42417996839E+02  0.10566000000E+00 0. -1.
         22    1    1    0    0    0 -0.95193352830E+00 -0.84892275057E+01 -0.20224159500E+02  0.21954265839E+02  0.00000000000E+00 0.  1.
</event>
<event>
 5    1  0.1285375E-004  0.9118800E+02  0.7818608E-02  0.1130116E+00
         25   -1    0    0    0    0  0.00000000000E+00  0.00000000000E+00  0.99999998245E-14  0.12500000000E+03  0.12500000000E+03 0.  0.
        -13    1    3    3    0    0 -0.52763969332E+02 -0.26804650482E+01 -0.21927119399E+01  0.52877599248E+02  0.10566000000E+00 0. -1.
         23    2    1    0    0    0 -0.16225813557E+02 -0.14836990314E+02 -0.19976712498E+02  0.95293395526E+02  0.90544734145E+02 0.  0.
         13    1    3    3    0    0  0.36538155775E+02 -0.12156525266E+02 -0.17784000558E+02  0.42415796277E+02  0.10566000000E+00 0.  1.
         22    1    1    0    0    0  0.16225813557E+02  0.14836990314E+02  0.19976712498E+02  0.29706604474E+02  0.00000000000E+00 0.  1.
</event>
<event>
 5    1  0.1285375E-004  0.9118800E+02  0.7818608E-02  0.1130116E+00
         25   -1    0    0    0    0  0.00000000000E+00  0.00000000000E+00  0.99999998245E-14  0.12500000000E+03  0.12500000000E+03 0.  0.
        -13    1    3    3    0    0 -0.21489120899E+02 -0.34088308224E+02 -0.38357371945E+01  0.40478625452E+02  0.10566000000E+00 0.  1.
         23    2    1    0    0    0 -0.20918716022E+02  0.17557153067E+02  0.12934367139E+02  0.94781724783E+02  0.89835578675E+02 0.  0.
         13    1    3    3    0    0  0.57040487785E+00  0.51645461291E+02  0.16770104333E+02  0.54303099332E+02  0.10566000000E+00 0. -1.
         22    1    1    0    0    0  0.20918716022E+02 -0.17557153067E+02 -0.12934367139E+02  0.30218275217E+02  0.00000000000E+00 0. -1.
</event>
<event>
 5    1  0.1285375E-004  0.9118800E+02  0.7818608E-02  0.1130116E+00
         25   -1    0    0    0    0  0.00000000000E+00  0.00000000000E+00  0.99999998245E-14  0.12500000000E+03  0.12500000000E+03 0.  0.
        -13    1    3    3    0    0  0.33609383796E+02  0.83510473098E+01  0.13344536383E+02  0.37113588962E+02  0.10566000000E+00 0.  1.
         23    2    1    0    0    0 -0.11851175673E+02 -0.26505853396E+02  0.91712052242E+01  0.94551327872E+02  0.89514423240E+02 0.  0.
         13    1    3    3    0    0 -0.45460559469E+02 -0.34856900706E+02 -0.41733311587E+01  0.57437738910E+02  0.10566000000E+00 0. -1.
         22    1    1    0    0    0  0.11851175673E+02  0.26505853396E+02 -0.91712052242E+01  0.30448672128E+02  0.00000000000E+00 0. -1.
</event>
<event>
 5    1  0.1285375E-004  0.9118800E+02  0.7818608E-02  0.1130116E+00
         25   -1    0    0    0    0  0.00000000000E+00  0.00000000000E+00  0.99999998245E-14  0.12500000000E+03  0.12500000000E+03 0.  0.
        -13    1    3    3    0    0 -0.86661433326E+01 -0.64764004663E+00 -0.42923076758E+02  0.43794099606E+02  0.10566000000E+00 0.  1.
         23    2    1    0    0    0  0.11358274589E+02 -0.27729981393E+02 -0.48214066658E+01  0.94648587645E+02  0.89650136147E+02 0.  0.
         13    1    3    3    0    0  0.20024417922E+02 -0.27082341347E+02  0.38101670092E+02  0.50854488039E+02  0.10566000000E+00 0. -1.
         22    1    1    0    0    0 -0.11358274589E+02  0.27729981393E+02  0.48214066658E+01  0.30351412355E+02  0.00000000000E+00 0. -1.
</event>
<event>
 5    1  0.1285375E-004  0.9118800E+02  0.7818608E-02  0.1130116E+00
         25   -1    0    0    0    0  0.00000000000E+00  0.00000000000E+00  0.99999998245E-14  0.12500000000E+03  0.12500000000E+03 0.  0.
        -13    1    3    3    0    0  0.34182704971E+02  0.39489979192E+02  0.27802500684E+02  0.59168454298E+02  0.10566000000E+00 0.  1.
         23    2    1    0    0    0  0.46530671161E+01  0.22974147081E+02  0.20671989472E+02  0.93746302356E+02  0.88383118236E+02 0.  0.
         13    1    3    3    0    0 -0.29529637855E+02 -0.16515832111E+02 -0.71305112122E+01  0.34577848058E+02  0.10566000000E+00 0. -1.
         22    1    1    0    0    0 -0.46530671161E+01 -0.22974147081E+02 -0.20671989472E+02  0.31253697644E+02  0.00000000000E+00 0.  1.
</event>
<event>
 5    1  0.1285375E-004  0.9118800E+02  0.7818608E-02  0.1130116E+00
         25   -1    0    0    0    0  0.00000000000E+00  0.00000000000E+00  0.99999998245E-14  0.12500000000E+03  0.12500000000E+03 0.  0.
        -13    1    3    3    0    0  0.29098996131E+02  0.19066298378E+02  0.48826288863E+02  0.59952422451E+02  0.10566000000E+00 0.  1.
         23    2    1    0    0    0  0.24326145261E+01  0.14883351953E+02  0.24169688136E+02  0.96511307447E+02  0.92210774109E+02 0.  0.
         13    1    3    3    0    0 -0.26666381605E+02 -0.41829464249E+01 -0.24656600727E+02  0.36558884996E+02  0.10566000000E+00 0. -1.
         22    1    1    0    0    0 -0.24326145261E+01 -0.14883351953E+02 -0.24169688136E+02  0.28488692553E+02  0.00000000000E+00 0.  1.
</event>
<event>
 5    1  0.1285375E-004  0.9118800E+02  0.7818608E-02  0.1130116E+00
         25   -1    0    0    0    0  0.00000000000E+00  0.00000000000E+00  0.99999998245E-14  0.12500000000E+03  0.12500000000E+03 0.  0.
        -13    1    3    3    0    0 -0.15103066959E+02  0.82786829715E+01  0.51341972702E+02  0.54153933821E+02  0.10566000000E+00 0. -1.
         23    2    1    0    0    0  0.16119477949E+02  0.28635156323E+01  0.23641600137E+02  0.96243043482E+02  0.91846398245E+02 0.  0.
         13    1    3    3    0    0  0.31222544908E+02 -0.54151673391E+01 -0.27700372565E+02  0.42089109661E+02  0.10566000000E+00 0.  1.
         22    1    1    0    0    0 -0.16119477949E+02 -0.28635156323E+01 -0.23641600137E+02  0.28756956518E+02  0.00000000000E+00 0. -1.
</event>
<event>
 5    1  0.1285375E-004  0.9118800E+02  0.7818608E-02  0.1130116E+00
         25   -1    0    0    0    0  0.00000000000E+00  0.00000000000E+00  0.99999998245E-14  0.12500000000E+03  0.12500000000E+03 0.  0.
        -13    1    3    3    0    0  0.38149175232E+02  0.28435410621E+02 -0.16350161342E+02  0.50311739068E+02  0.10566000000E+00 0.  1.
         23    2    1    0    0    0  0.18999913173E+02 -0.13170889299E+02 -0.17303055545E+02  0.96123283484E+02  0.91683263855E+02 0.  0.
         13    1    3    3    0    0 -0.19149262059E+02 -0.41606299920E+02 -0.95289420385E+00  0.45811544417E+02  0.10566000000E+00 0. -1.
         22    1    1    0    0    0 -0.18999913173E+02  0.13170889299E+02  0.17303055545E+02  0.28876716516E+02  0.00000000000E+00 0.  1.
</event>
<event>
 5    1  0.1285375E-004  0.9118800E+02  0.7818608E-02  0.1130116E+00
         25   -1    0    0    0    0  0.00000000000E+00  0.00000000000E+00  0.99999998245E-14  0.12500000000E+03  0.12500000000E+03 0.  0.
        -13    1    3    3    0    0 -0.23026436764E+02  0.51553872826E+02  0.13908826915E+02  0.58150539324E+02  0.10566000000E+00 0.  1.
         23    2    1    0    0    0  0.36390855431E+01  0.27091389957E+02  0.13893193554E+02  0.94337202011E+02  0.89214911886E+02 0.  0.
         13    1    3    3    0    0  0.26665522307E+02 -0.24462482870E+02 -0.15633361364E-01  0.36186662688E+02  0.10566000000E+00 0. -1.
         22    1    1    0    0    0 -0.36390855431E+01 -0.27091389957E+02 -0.13893193554E+02  0.30662797989E+02  0.00000000000E+00 0.  1.
</event>
<event>
 5    1  0.1285375E-004  0.9118800E+02  0.7818608E-02  0.1130116E+00
         25   -1    0    0    0    0  0.00000000000E+00  0.00000000000E+00  0.99999998245E-14  0.12500000000E+03  0.12500000000E+03 0.  0.
        -13    1    3    3    0    0 -0.39572883799E+02  0.73414662364E+01  0.46526076305E+01  0.40516270564E+02  0.10566000000E+00 0. -1.
         23    2    1    0    0    0  0.99029182668E+01  0.37482427122E+01  0.27795934269E+02  0.95255570681E+02  0.90492500630E+02 0.  0.
         13    1    3    3    0    0  0.49475802065E+02 -0.35932235242E+01  0.23143326639E+02  0.54739300117E+02  0.10566000000E+00 0.  1.
         22    1    1    0    0    0 -0.99029182668E+01 -0.37482427122E+01 -0.27795934269E+02  0.29744429319E+02  0.00000000000E+00 0. -1.
</event>
<event>
 5    1  0.1285375E-004  0.9118800E+02  0.7818608E-02  0.1130116E+00
         25   -1    0    0    0    0  0.00000000000E+00  0.00000000000E+00  0.99999998245E-14  0.12500000000E+03  0.12500000000E+03 0.  0.
        -13    1    3    3    0    0 -0.25371336273E+02  0.54335389753E+02  0.15029366708E+02  0.61821778619E+02  0.10566000000E+00 0.  1.
         23    2    1    0    0    0 -0.96218451455E+01  0.26743087390E+02  0.97652352384E+00  0.96561887803E+02  0.92279314858E+02 0.  0.
         13    1    3    3    0    0  0.15749491128E+02 -0.27592302364E+02 -0.14052843184E+02  0.34740109184E+02  0.10566000000E+00 0. -1.
         22    1    1    0    0    0  0.96218451455E+01 -0.26743087390E+02 -0.97652352384E+00  0.28438112197E+02  0.00000000000E+00 0.  1.
</event>
<event>
 5    1  0.1285375E-004  0.9118800E+02  0.7818608E-02  0.1130116E+00
         25   -1    0    0    0    0  0.00000000000E+00  0.00000000000E+00  0.99999998245E-14  0.12500000000E+03  0.12500000000E+03 0.  0.
        -13    1    3    3    0    0 -0.36604014115E+01 -0.31321886578E+02  0.18518323177E+02  0.36570460410E+02  0.10566000000E+00 0. -1.
         23    2    1    0    0    0 -0.17595205679E+02  0.23789900358E+02  0.74977926704E+01  0.94475132812E+02  0.89407959394E+02 0.  0.
         13    1    3    3    0    0 -0.13934804267E+02  0.55111786936E+02 -0.11020530507E+02  0.57904672401E+02  0.10566000000E+00 0.  1.
         22    1    1    0    0    0  0.17595205679E+02 -0.23789900358E+02 -0.74977926704E+01  0.30524867188E+02  0.00000000000E+00 0.  1.
</event>
<event>
 5    1  0.1285375E-004  0.9118800E+02  0.7818608E-02  0.1130116E+00
         25   -1    0    0    0    0  0.00000000000E+00  0.00000000000E+00  0.99999998245E-14  0.12500000000E+03  0.12500000000E+03 0.  0.
        -13    1    3    3    0    0  0.13702117214E+02  0.15956650083E+02  0.34126013766E+02  0.40086889099E+02  0.10566000000E+00 0.  1.
         23    2    1    0    0    0 -0.15467486676E+02  0.21853579650E+02 -0.12540533864E+02  0.95435036323E+02  0.90740063262E+02 0.  0.
         13    1    3    3    0    0 -0.29169603890E+02  0.58969295668E+01 -0.46666547630E+02  0.55348147225E+02  0.10566000000E+00 0. -1.
         22    1    1    0    0    0  0.15467486676E+02 -0.21853579650E+02  0.12540533864E+02  0.29564963677E+02  0.00000000000E+00 0. -1.
</event>
<event>
 5    1  0.1285375E-004  0.9118800E+02  0.7818608E-02  0.1130116E+00
         25   -1    0    0    0    0  0.00000000000E+00  0.00000000000E+00  0.99999998245E-14  0.12500000000E+03  0.12500000000E+03 0.  0.
        -13    1    3    3    0    0 -0.16991517057E+02  0.36985519090E+02  0.43089120955E+02  0.59273297386E+02  0.10566000000E+00 0. -1.
         23    2    1    0    0    0  0.52420538338E+01  0.22311592699E+02  0.18152578413E+02  0.95762996045E+02  0.91190728758E+02 0.  0.
         13    1    3    3    0    0  0.22233570891E+02 -0.14673926391E+02 -0.24936542542E+02  0.36489698659E+02  0.10566000000E+00 0.  1.
         22    1    1    0    0    0 -0.52420538338E+01 -0.22311592699E+02 -0.18152578413E+02  0.29237003955E+02  0.00000000000E+00 0. -1.
</event>
<event>
 5    1  0.1285375E-004  0.9118800E+02  0.7818608E-02  0.1130116E+00
         25   -1    0    0    0    0  0.00000000000E+00  0.00000000000E+00  0.99999998245E-14  0.12500000000E+03  0.12500000000E+03 0.  0.
        -13    1    3    3    0    0 -0.29452761518E+02  0.31188395610E+02  0.31567612553E+02  0.53260740777E+02  0.10566000000E+00 0.  1.
         23    2    1    0    0    0  0.70451783520E+01  0.26379353709E+02  0.10027636605E+02  0.95912918056E+02  0.91396003819E+02 0.  0.
         13    1    3    3    0    0  0.36497939870E+02 -0.48090419010E+01 -0.21539975948E+02  0.42652177279E+02  0.10566000000E+00 0. -1.
         22    1    1    0    0    0 -0.70451783520E+01 -0.26379353709E+02 -0.10027636605E+02  0.29087081944E+02  0.00000000000E+00 0. -1.
</event>
<event>
 5    1  0.1285375E-004  0.9118800E+02  0.7818608E-02  0.1130116E+00
         25   -1    0    0    0    0  0.00000000000E+00  0.00000000000E+00  0.99999998245E-14  0.12500000000E+03  0.12500000000E+03 0.  0.
        -13    1    3    3    0    0  0.22297225518E+02 -0.31557065612E+02  0.28648481773E+02  0.48101573028E+02  0.10566000000E+00 0. -1.
         23    2    1    0    0    0  0.32106056638E+01  0.15133829596E+02  0.20687665010E+02  0.99167457142E+02  0.95743742801E+02 0.  0.
         13    1    3    3    0    0 -0.19086619854E+02  0.46690895208E+02 -0.79608167635E+01  0.51065884114E+02  0.10566000000E+00 0.  1.
         22    1    1    0    0    0 -0.32106056638E+01 -0.15133829596E+02 -0.20687665010E+02  0.25832542858E+02  0.00000000000E+00 0. -1.
</event>
<event>
 5    1  0.1285375E-004  0.9118800E+02  0.7818608E-02  0.1130116E+00
         25   -1    0    0    0    0  0.00000000000E+00  0.00000000000E+00  0.99999998245E-14  0.12500000000E+03  0.12500000000E+03 0.  0.
        -13    1    3    3    0    0 -0.19130588877E+02 -0.25604978561E+02 -0.20857232303E+02  0.38165817970E+02  0.10566000000E+00 0. -1.
         23    2    1    0    0    0  0.26242816906E+01  0.27120362616E+02 -0.61915287250E+01  0.97058347387E+02  0.92949377871E+02 0.  0.
         13    1    3    3    0    0  0.21754870568E+02  0.52725341177E+02  0.14665703578E+02  0.58892529417E+02  0.10566000000E+00 0.  1.
         22    1    1    0    0    0 -0.26242816906E+01 -0.27120362616E+02  0.61915287250E+01  0.27941652613E+02  0.00000000000E+00 0.  1.
</event>
<event>
 5    1  0.1285375E-004  0.9118800E+02  0.7818608E-02  0.1130116E+00
         25   -1    0    0    0    0  0.00000000000E+00  0.00000000000E+00  0.99999998245E-14  0.12500000000E+03  0.12500000000E+03 0.  0.
        -13    1    3    3    0    0 -0.30457895906E+02  0.39687619155E+02 -0.16222164283E+02  0.52592397885E+02  0.10566000000E+00 0.  1.
         23    2    1    0    0    0 -0.18567028171E+02  0.14645614591E+02  0.17010433612E+02  0.95869544914E+02  0.91336664207E+02 0.  0.
         13    1    3    3    0    0  0.11890867735E+02 -0.25042004564E+02  0.33232597895E+02  0.43277147029E+02  0.10566000000E+00 0. -1.
         22    1    1    0    0    0  0.18567028171E+02 -0.14645614591E+02 -0.17010433612E+02  0.29130455086E+02  0.00000000000E+00 0.  1.
</event>
<event>
 5    1  0.1285375E-004  0.9118800E+02  0.7818608E-02  0.1130116E+00
         25   -1    0    0    0    0  0.00000000000E+00  0.00000000000E+00  0.99999998245E-14  0.12500000000E+03  0.12500000000E+03 0.  0.
        -13    1    3    3    0    0 -0.46665050861E+02 -0.12337652139E+02 -0.18764308183E+02  0.51787595597E+02  0.10566000000E+00 0.  1.
         23    2    1    0    0    0 -0.14351774376E+02  0.19865831403E+02 -0.11292445649E+02  0.98015856252E+02  0.94228255120E+02 0.  0.
         13    1    3    3    0    0  0.32313276485E+02  0.32203483542E+02  0.74718625336E+01  0.46228260655E+02  0.10566000000E+00 0. -1.
         22    1    1    0    0    0  0.14351774376E+02 -0.19865831403E+02  0.11292445649E+02  0.26984143748E+02  0.00000000000E+00 0.  1.
</event>
<event>
 5    1  0.1285375E-004  0.9118800E+02  0.7818608E-02  0.1130116E+00
         25   -1    0    0    0    0  0.00000000000E+00  0.00000000000E+00  0.99999998245E-14  0.12500000000E+03  0.12500000000E+03 0.  0.
        -13    1    3    3    0    0  0.25958900410E+02 -0.33593039740E+02 -0.25084328088E+02  0.49311170227E+02  0.10566000000E+00 0. -1.
         23    2    1    0    0    0  0.28786517919E+02  0.54680169366E+01 -0.22562922330E+00  0.95697888614E+02  0.91101438812E+02 0.  0.
         13    1    3    3    0    0  0.28276175088E+01  0.39061056677E+02  0.24858698865E+02  0.46386718387E+02  0.10566000000E+00 0.  1.
         22    1    1    0    0    0 -0.28786517919E+02 -0.54680169366E+01  0.22562922330E+00  0.29302111386E+02  0.00000000000E+00 0. -1.
</event>
<event>
 5    1  0.1285375E-004  0.9118800E+02  0.7818608E-02  0.1130116E+00
         25   -1    0    0    0    0  0.00000000000E+00  0.00000000000E+00  0.99999998245E-14  0.12500000000E+03  0.12500000000E+03 0.  0.
        -13    1    3    3    0    0 -0.93554106041E+01  0.33382771308E+02 -0.10803071033E+02  0.36313229484E+02  0.10566000000E+00 0. -1.
         23    2    1    0    0    0  0.31889365672E+02 -0.35606500281E+00 -0.14984898564E+02  0.89763575519E+02  0.82558427066E+02 0.  0.
         13    1    3    3    0    0  0.41244776276E+02 -0.33738836311E+02 -0.41818275315E+01  0.53450346035E+02  0.10566000000E+00 0.  1.
         22    1    1    0    0    0 -0.31889365672E+02  0.35606500281E+00  0.14984898564E+02  0.35236424481E+02  0.00000000000E+00 0.  1.
</event>
<event>
 5    1  0.1285375E-004  0.9118800E+02  0.7818608E-02  0.1130116E+00
         25   -1    0    0    0    0  0.00000000000E+00  0.00000000000E+00  0.99999998245E-14  0.12500000000E+03  0.12500000000E+03 0.  0.
        -13    1    3    3    0    0 -0.14940345273E+02 -0.57104858616E+02  0.13195478756E+02  0.60483969926E+02  0.10566000000E+00 0.  1.
         23    2    1    0    0    0 -0.11941555829E+02 -0.19711530725E+02  0.14052110570E+02  0.98007278562E+02  0.94216875561E+02 0.  0.
         13    1    3    3    0    0  0.29987894435E+01  0.37393327891E+02  0.85663181379E+00  0.37523308636E+02  0.10566000000E+00 0. -1.
         22    1    1    0    0    0  0.11941555829E+02  0.19711530725E+02 -0.14052110570E+02  0.26992721438E+02  0.00000000000E+00 0.  1.
</event>
<event>
 5    1  0.1285375E-004  0.9118800E+02  0.7818608E-02  0.1130116E+00
         25   -1    0    0    0    0  0.00000000000E+00  0.00000000000E+00  0.99999998245E-14  0.12500000000E+03  0.12500000000E+03 0.  0.
        -13    1    3    3    0    0  0.12945805651E+01  0.18339226986E+02 -0.92803288256E+01  0.20594631641E+02  0.10566000000E+00 0. -1.
         23    2    1    0    0    0 -0.15694425550E+02 -0.26452690495E+02  0.29615094600E+02  0.82302064969E+02  0.70359905075E+02 0.  0.
         13    1    3    3    0    0 -0.16989006115E+02 -0.44791917481E+02  0.38895423426E+02  0.61707433328E+02  0.10566000000E+00 0.  1.
         22    1    1    0    0    0  0.15694425550E+02  0.26452690495E+02 -0.29615094600E+02  0.42697935031E+02  0.00000000000E+00 0.  1.
</event>
<event>
 5    1  0.1285375E-004  0.9118800E+02  0.7818608E-02  0.1130116E+00
         25   -1    0    0    0    0  0.00000000000E+00  0.00000000000E+00  0.99999998245E-14  0.12500000000E+03  0.12500000000E+03 0.  0.
        -13    1    3    3    0    0  0.40080250130E+01 -0.14793011454E+02  0.33886987807E+02  0.37191888350E+02  0.10566000000E+00 0.  1.
         23    2    1    0    0    0  0.21807212376E+02  0.85827888861E+01 -0.17066102785E+02  0.96009128317E+02  0.91527493570E+02 0.  0.
         13    1    3    3    0    0  0.17799187363E+02  0.23375800340E+02 -0.50953090592E+02  0.58817239966E+02  0.10566000000E+00 0. -1.
         22    1    1    0    0    0 -0.21807212376E+02 -0.85827888861E+01  0.17066102785E+02  0.28990871683E+02  0.00000000000E+00 0. -1.
</event>
<event>
 5    1  0.1285375E-004  0.9118800E+02  0.7818608E-02  0.1130116E+00
         25   -1    0    0    0    0  0.00000000000E+00  0.00000000000E+00  0.99999998245E-14  0.12500000000E+03  0.12500000000E+03 0.  0.
        -13    1    3    3    0    0 -0.39179446021E+02  0.73301007460E+01 -0.87828726929E+01  0.40815553215E+02  0.10566000000E+00 0. -1.
         23    2    1    0    0    0 -0.13930566219E+01 -0.14580167357E+01  0.29565928165E+02  0.95365382948E+02  0.90644060683E+02 0.  0.
         13    1    3    3    0    0  0.37786389399E+02 -0.87881174817E+01  0.38348800858E+02  0.54549829733E+02  0.10566000000E+00 0.  1.
         22    1    1    0    0    0  0.13930566219E+01  0.14580167357E+01 -0.29565928165E+02  0.29634617052E+02  0.00000000000E+00 0.  1.
</event>
<event>
 5    1  0.1285375E-004  0.9118800E+02  0.7818608E-02  0.1130116E+00
         25   -1    0    0    0    0  0.00000000000E+00  0.00000000000E+00  0.99999998245E-14  0.12500000000E+03  0.12500000000E+03 0.  0.
        -13    1    3    3    0    0  0.18877477665E+02  0.22653688704E+02 -0.30442991667E+02  0.42383200452E+02  0.10566000000E+00 0.  1.
         23    2    1    0    0    0 -0.22886962197E+01 -0.24293355762E+02 -0.15828835259E+02  0.95914655061E+02  0.91398379446E+02 0.  0.
         13    1    3    3    0    0 -0.21166173884E+02 -0.46947044466E+02  0.14614156408E+02  0.53531454609E+02  0.10566000000E+00 0. -1.
         22    1    1    0    0    0  0.22886962197E+01  0.24293355762E+02  0.15828835259E+02  0.29085344939E+02  0.00000000000E+00 0.  1.
</event>
<event>
 5    1  0.1285375E-004  0.9118800E+02  0.7818608E-02  0.1130116E+00
         25   -1    0    0    0    0  0.00000000000E+00  0.00000000000E+00  0.99999998245E-14  0.12500000000E+03  0.12500000000E+03 0.  0.
        -13    1    3    3    0    0 -0.12686340918E+02 -0.19688186209E+02  0.43061216567E+02  0.49018847990E+02  0.10566000000E+00 0. -1.
         23    2    1    0    0    0 -0.85358425078E+01 -0.30650844687E+02  0.48529408509E+00  0.93179088673E+02  0.87577235445E+02 0.  0.
         13    1    3    3    0    0  0.41504984103E+01 -0.10962658478E+02 -0.42575922482E+02  0.44160240683E+02  0.10566000000E+00 0.  1.
         22    1    1    0    0    0  0.85358425078E+01  0.30650844687E+02 -0.48529408509E+00  0.31820911327E+02  0.00000000000E+00 0. -1.
</event>
<event>
 5    1  0.1285375E-004  0.9118800E+02  0.7818608E-02  0.1130116E+00
         25   -1    0    0    0    0  0.00000000000E+00  0.00000000000E+00  0.99999998245E-14  0.12500000000E+03  0.12500000000E+03 0.  0.
        -13    1    3    3    0    0  0.60521425233E+02  0.91610205104E+01  0.11137067963E+02  0.62215855342E+02  0.10566000000E+00 0.  1.
         23    2    1    0    0    0  0.28039743673E+02  0.57663751090E+01  0.12185010194E+01  0.96347547192E+02  0.91988514490E+02 0.  0.
         13    1    3    3    0    0 -0.32481681560E+02 -0.33946454014E+01 -0.99185669431E+01  0.34131691851E+02  0.10566000000E+00 0. -1.
         22    1    1    0    0    0 -0.28039743673E+02 -0.57663751090E+01 -0.12185010194E+01  0.28652452808E+02  0.00000000000E+00 0.  1.
</event>
<event>
 5    1  0.1285375E-004  0.9118800E+02  0.7818608E-02  0.1130116E+00
         25   -1    0    0    0    0  0.00000000000E+00  0.00000000000E+00  0.99999998245E-14  0.12500000000E+03  0.12500000000E+03 0.  0.
        -13    1    3    3    0    0  0.31902681602E+02  0.29410238238E+02 -0.26892849640E+02  0.51048797561E+02  0.10566000000E+00 0.  1.
         23    2    1    0    0    0 -0.38510842098E+01  0.29259467460E+02 -0.50908204681E+00  0.95483793432E+02  0.90807204328E+02 0.  0.
         13    1    3    3    0    0 -0.35753765812E+02 -0.15077077726E+00  0.26383767594E+02  0.44434995871E+02  0.10566000000E+00 0. -1.
         22    1    1    0    0    0  0.38510842098E+01 -0.29259467460E+02  0.50908204681E+00  0.29516206568E+02  0.00000000000E+00 0. -1.
</event>
<event>
 5    1  0.1285375E-004  0.9118800E+02  0.7818608E-02  0.1130116E+00
         25   -1    0    0    0    0  0.00000000000E+00  0.00000000000E+00  0.99999998245E-14  0.12500000000E+03  0.12500000000E+03 0.  0.
        -13    1    3    3    0    0  0.35408776270E+02  0.24306092028E+02 -0.18109854473E+01  0.42986723287E+02  0.10566000000E+00 0.  1.
         23    2    1    0    0    0  0.13458323050E+02 -0.21891858762E+02  0.12952477104E+02  0.96222463578E+02  0.91818385384E+02 0.  0.
         13    1    3    3    0    0 -0.21950453220E+02 -0.46197950791E+02  0.14763462551E+02  0.53235740291E+02  0.10566000000E+00 0. -1.
         22    1    1    0    0    0 -0.13458323050E+02  0.21891858762E+02 -0.12952477104E+02  0.28777536422E+02  0.00000000000E+00 0.  1.
</event>
<event>
 5    1  0.1285375E-004  0.9118800E+02  0.7818608E-02  0.1130116E+00
         25   -1    0    0    0    0  0.00000000000E+00  0.00000000000E+00  0.99999998245E-14  0.12500000000E+03  0.12500000000E+03 0.  0.
        -13    1    3    3    0    0  0.32102668822E+02  0.46200869949E+02  0.23298040328E+02  0.60892623336E+02  0.10566000000E+00 0. -1.
         23    2    1    0    0    0  0.40117054349E+01  0.22710337513E+02  0.78153854683E+01  0.10064977494E+03  0.97659836857E+02 0.  0.
         13    1    3    3    0    0 -0.28090963387E+02 -0.23490532436E+02 -0.15482654860E+02  0.39757151604E+02  0.10566000000E+00 0.  1.
         22    1    1    0    0    0 -0.40117054349E+01 -0.22710337513E+02 -0.78153854683E+01  0.24350225060E+02  0.00000000000E+00 0. -1.
</event>
<event>
 5    1  0.1285375E-004  0.9118800E+02  0.7818608E-02  0.1130116E+00
         25   -1    0    0    0    0  0.00000000000E+00  0.00000000000E+00  0.99999998245E-14  0.12500000000E+03  0.12500000000E+03 0.  0.
        -13    1    3    3    0    0 -0.32576100332E+02 -0.29589004006E+02 -0.31884734646E+02  0.54344815193E+02  0.10566000000E+00 0. -1.
         23    2    1    0    0    0  0.45314461105E+01 -0.17367849989E+02 -0.25323657890E+02  0.93960285665E+02  0.88685237871E+02 0.  0.
         13    1    3    3    0    0  0.37107546442E+02  0.12221154017E+02  0.65610767559E+01  0.39615470472E+02  0.10566000000E+00 0.  1.
         22    1    1    0    0    0 -0.45314461105E+01  0.17367849989E+02  0.25323657890E+02  0.31039714335E+02  0.00000000000E+00 0. -1.
</event>
<event>
 5    1  0.1285375E-004  0.9118800E+02  0.7818608E-02  0.1130116E+00
         25   -1    0    0    0    0  0.00000000000E+00  0.00000000000E+00  0.99999998245E-14  0.12500000000E+03  0.12500000000E+03 0.  0.
        -13    1    3    3    0    0  0.11549576118E+02 -0.22972526277E+02  0.95608696210E+01  0.27432664180E+02  0.10566000000E+00 0.  1.
         23    2    1    0    0    0 -0.27419163988E+02 -0.21913174124E+02  0.36144488201E+02  0.74617247184E+02  0.55039184188E+02 0.  0.
         13    1    3    3    0    0 -0.38968740106E+02  0.10593521531E+01  0.26583618580E+02  0.47184583004E+02  0.10566000000E+00 0. -1.
         22    1    1    0    0    0  0.27419163988E+02  0.21913174124E+02 -0.36144488201E+02  0.50382752816E+02  0.00000000000E+00 0. -1.
</event>
<event>
 5    1  0.1285375E-004  0.9118800E+02  0.7818608E-02  0.1130116E+00
         25   -1    0    0    0    0  0.00000000000E+00  0.00000000000E+00  0.99999998245E-14  0.12500000000E+03  0.12500000000E+03 0.  0.
        -13    1    3    3    0    0  0.28608913789E+02 -0.20901200168E+02 -0.42444760806E+02  0.55289230421E+02  0.10566000000E+00 0. -1.
         23    2    1    0    0    0  0.23676550715E+02  0.87413031597E+01 -0.20055814353E+02  0.92762985187E+02  0.86981298546E+02 0.  0.
         13    1    3    3    0    0 -0.49323630737E+01  0.29642503327E+02  0.22388946452E+02  0.37473754766E+02  0.10566000000E+00 0.  1.
         22    1    1    0    0    0 -0.23676550715E+02 -0.87413031597E+01  0.20055814353E+02  0.32237014813E+02  0.00000000000E+00 0. -1.
</event>
<event>
 5    1  0.1285375E-004  0.9118800E+02  0.7818608E-02  0.1130116E+00
         25   -1    0    0    0    0  0.00000000000E+00  0.00000000000E+00  0.99999998245E-14  0.12500000000E+03  0.12500000000E+03 0.  0.
        -13    1    3    3    0    0  0.35680043948E+02 -0.76063940820E+01  0.88828967652E+01  0.37547833306E+02  0.10566000000E+00 0.  1.
         23    2    1    0    0    0 -0.10179252118E+02 -0.19340260489E+02 -0.21937339785E+02  0.94033732445E+02  0.88788699232E+02 0.  0.
         13    1    3    3    0    0 -0.45859296065E+02 -0.11733866407E+02 -0.30820236550E+02  0.56485899139E+02  0.10566000000E+00 0. -1.
         22    1    1    0    0    0  0.10179252118E+02  0.19340260489E+02  0.21937339785E+02  0.30966267555E+02  0.00000000000E+00 0. -1.
</event>
<event>
 5    1  0.1285375E-004  0.9118800E+02  0.7818608E-02  0.1130116E+00
         25   -1    0    0    0    0  0.00000000000E+00  0.00000000000E+00  0.99999998245E-14  0.12500000000E+03  0.12500000000E+03 0.  0.
        -13    1    3    3    0    0 -0.18586106165E+02 -0.40730073428E+02  0.39151276199E+02  0.59474497189E+02  0.10566000000E+00 0.  1.
         23    2    1    0    0    0 -0.19376469682E+02 -0.10226917298E+02  0.18557756353E+02  0.96287150340E+02  0.91906406659E+02 0.  0.
         13    1    3    3    0    0 -0.79036351643E+00  0.30503156130E+02 -0.20593519846E+02  0.36812653151E+02  0.10566000000E+00 0. -1.
         22    1    1    0    0    0  0.19376469682E+02  0.10226917298E+02 -0.18557756353E+02  0.28712849660E+02  0.00000000000E+00 0.  1.
</event>
<event>
 5    1  0.1285375E-004  0.9118800E+02  0.7818608E-02  0.1130116E+00
         25   -1    0    0    0    0  0.00000000000E+00  0.00000000000E+00  0.99999998245E-14  0.12500000000E+03  0.12500000000E+03 0.  0.
        -13    1    3    3    0    0 -0.47349153283E+02  0.11700356943E+02 -0.29840431050E+02  0.57177820512E+02  0.10566000000E+00 0.  1.
         23    2    1    0    0    0 -0.28781281989E+02  0.24697234408E+01  0.29373851016E+01  0.95963988600E+02  0.91465825038E+02 0.  0.
         13    1    3    3    0    0  0.18567871294E+02 -0.92306335020E+01  0.32777816151E+02  0.38786168088E+02  0.10566000000E+00 0. -1.
         22    1    1    0    0    0  0.28781281989E+02 -0.24697234408E+01 -0.29373851016E+01  0.29036011400E+02  0.00000000000E+00 0.  1.
</event>
<event>
 5    1  0.1285375E-004  0.9118800E+02  0.7818608E-02  0.1130116E+00
         25   -1    0    0    0    0  0.00000000000E+00  0.00000000000E+00  0.99999998245E-14  0.12500000000E+03  0.12500000000E+03 0.  0.
        -13    1    3    3    0    0  0.26781225596E+01 -0.38164780627E+02 -0.26663084084E+01  0.38351573440E+02  0.10566000000E+00 0.  1.
         23    2    1    0    0    0 -0.30567237978E+01  0.13218948285E+02  0.24676633992E+02  0.96839381766E+02  0.92654441024E+02 0.  0.
         13    1    3    3    0    0 -0.57348463574E+01  0.51383728912E+02  0.27342942400E+02  0.58487808326E+02  0.10566000000E+00 0. -1.
         22    1    1    0    0    0  0.30567237978E+01 -0.13218948285E+02 -0.24676633992E+02  0.28160618234E+02  0.00000000000E+00 0. -1.
</event>
<event>
 5    1  0.1285375E-004  0.9118800E+02  0.7818608E-02  0.1130116E+00
         25   -1    0    0    0    0  0.00000000000E+00  0.00000000000E+00  0.99999998245E-14  0.12500000000E+03  0.12500000000E+03 0.  0.
        -13    1    3    3    0    0 -0.26934008396E+02 -0.18840841420E+02  0.45026302412E+02  0.55747620457E+02  0.10566000000E+00 0.  1.
         23    2    1    0    0    0 -0.17383733687E+01 -0.24830474599E+02  0.13052459753E+02  0.96894108867E+02  0.92728243900E+02 0.  0.
         13    1    3    3    0    0  0.25195635027E+02 -0.59896331783E+01 -0.31973842659E+02  0.41146488410E+02  0.10566000000E+00 0. -1.
         22    1    1    0    0    0  0.17383733687E+01  0.24830474599E+02 -0.13052459753E+02  0.28105891133E+02  0.00000000000E+00 0.  1.
</event>
<event>
 5    1  0.1285375E-004  0.9118800E+02  0.7818608E-02  0.1130116E+00
         25   -1    0    0    0    0  0.00000000000E+00  0.00000000000E+00  0.99999998245E-14  0.12500000000E+03  0.12500000000E+03 0.  0.
        -13    1    3    3    0    0  0.15772699053E+02 -0.25957159440E+02  0.42536376954E+02  0.52267644773E+02  0.10566000000E+00 0.  1.
         23    2    1    0    0    0  0.19189871463E+02  0.10426148654E+02  0.21091013107E+02  0.94639061668E+02  0.89636853007E+02 0.  0.
         13    1    3    3    0    0  0.34171724093E+01  0.36383308094E+02 -0.21445363847E+02  0.42371416896E+02  0.10566000000E+00 0. -1.
         22    1    1    0    0    0 -0.19189871463E+02 -0.10426148654E+02 -0.21091013107E+02  0.30360938332E+02  0.00000000000E+00 0.  1.
</event>
<event>
 5    1  0.1285375E-004  0.9118800E+02  0.7818608E-02  0.1130116E+00
         25   -1    0    0    0    0  0.00000000000E+00  0.00000000000E+00  0.99999998245E-14  0.12500000000E+03  0.12500000000E+03 0.  0.
        -13    1    3    3    0    0 -0.16980643579E+02 -0.37041184402E+02 -0.31286665673E+01  0.40867974219E+02  0.10566000000E+00 0.  1.
         23    2    1    0    0    0  0.12099769308E+01  0.76589997842E+01  0.26426894527E+02  0.97459029135E+02  0.93486669016E+02 0.  0.
         13    1    3    3    0    0  0.18190620509E+02  0.44700184187E+02  0.29555561094E+02  0.56591054916E+02  0.10566000000E+00 0. -1.
         22    1    1    0    0    0 -0.12099769308E+01 -0.76589997842E+01 -0.26426894527E+02  0.27540970865E+02  0.00000000000E+00 0. -1.
</event>
<event>
 5    1  0.1285375E-004  0.9118800E+02  0.7818608E-02  0.1130116E+00
         25   -1    0    0    0    0  0.00000000000E+00  0.00000000000E+00  0.99999998245E-14  0.12500000000E+03  0.12500000000E+03 0.  0.
        -13    1    3    3    0    0 -0.16163236602E+01 -0.36807718145E+01 -0.45112260816E+02  0.45291145087E+02  0.10566000000E+00 0. -1.
         23    2    1    0    0    0 -0.23492096628E+02  0.49299601745E+01  0.48525613243E+01  0.10051060510E+03  0.97481543249E+02 0.  0.
         13    1    3    3    0    0 -0.21875772968E+02  0.86107319890E+01  0.49964822140E+02  0.55219460010E+02  0.10566000000E+00 0.  1.
         22    1    1    0    0    0  0.23492096628E+02 -0.49299601745E+01 -0.48525613243E+01  0.24489394903E+02  0.00000000000E+00 0.  1.
</event>
<event>
 5    1  0.1285375E-004  0.9118800E+02  0.7818608E-02  0.1130116E+00
         25   -1    0    0    0    0  0.00000000000E+00  0.00000000000E+00  0.99999998245E-14  0.12500000000E+03  0.12500000000E+03 0.  0.
        -13    1    3    3    0    0 -0.29998881253E+01  0.16065844777E+02 -0.35644743971E+02  0.39213130887E+02  0.10566000000E+00 0.  1.
         23    2    1    0    0    0  0.37769536047E-01  0.17357117077E+02  0.22013972556E+02  0.96966342952E+02  0.92825566188E+02 0.  0.
         13    1    3    3    0    0  0.30376576613E+01  0.12912723004E+01  0.57658716527E+02  0.57753212065E+02  0.10566000000E+00 0. -1.
         22    1    1    0    0    0 -0.37769536047E-01 -0.17357117077E+02 -0.22013972556E+02  0.28033657048E+02  0.00000000000E+00 0. -1.
</event>
<event>
 5    1  0.1285375E-004  0.9118800E+02  0.7818608E-02  0.1130116E+00
         25   -1    0    0    0    0  0.00000000000E+00  0.00000000000E+00  0.99999998245E-14  0.12500000000E+03  0.12500000000E+03 0.  0.
        -13    1    3    3    0    0  0.36604391638E+00 -0.32236811818E+02 -0.35502036448E+02  0.47955727294E+02  0.10566000000E+00 0. -1.
         23    2    1    0    0    0  0.12668763274E+01 -0.29538998040E+02  0.10183041619E+02  0.93729379325E+02  0.88359180797E+02 0.  0.
         13    1    3    3    0    0  0.90083241102E+00  0.26978137783E+01  0.45685078067E+02  0.45773652031E+02  0.10566000000E+00 0.  1.
         22    1    1    0    0    0 -0.12668763274E+01  0.29538998040E+02 -0.10183041619E+02  0.31270620675E+02  0.00000000000E+00 0. -1.
</event>
<event>
 5    1  0.1285375E-004  0.9118800E+02  0.7818608E-02  0.1130116E+00
         25   -1    0    0    0    0  0.00000000000E+00  0.00000000000E+00  0.99999998245E-14  0.12500000000E+03  0.12500000000E+03 0.  0.
        -13    1    3    3    0    0  0.21235830436E+02 -0.21204274833E+02 -0.51677269211E+02  0.59758958179E+02  0.10566000000E+00 0. -1.
         23    2    1    0    0    0 -0.22891935228E+01 -0.11163940424E+02 -0.28615699711E+02  0.94198502589E+02  0.89020366475E+02 0.  0.
         13    1    3    3    0    0 -0.23525023959E+02  0.10040334408E+02  0.23061569500E+02  0.34439544410E+02  0.10566000000E+00 0.  1.
         22    1    1    0    0    0  0.22891935228E+01  0.11163940424E+02  0.28615699711E+02  0.30801497411E+02  0.00000000000E+00 0. -1.
</event>
<event>
 5    1  0.1285375E-004  0.9118800E+02  0.7818608E-02  0.1130116E+00
         25   -1    0    0    0    0  0.00000000000E+00  0.00000000000E+00  0.99999998245E-14  0.12500000000E+03  0.12500000000E+03 0.  0.
        -13    1    3    3    0    0  0.27712847015E+02 -0.33589057938E+02  0.29033008642E+02  0.52336922509E+02  0.10566000000E+00 0.  1.
         23    2    1    0    0    0  0.29241898345E+02 -0.85319624832E+00  0.57529544010E+00  0.95740001239E+02  0.91159203099E+02 0.  0.
         13    1    3    3    0    0  0.15290513303E+01  0.32735861690E+02 -0.28457713202E+02  0.43403078730E+02  0.10566000000E+00 0. -1.
         22    1    1    0    0    0 -0.29241898345E+02  0.85319624832E+00 -0.57529544010E+00  0.29259998761E+02  0.00000000000E+00 0. -1.
</event>
<event>
 5    1  0.1285375E-004  0.9118800E+02  0.7818608E-02  0.1130116E+00
         25   -1    0    0    0    0  0.00000000000E+00  0.00000000000E+00  0.99999998245E-14  0.12500000000E+03  0.12500000000E+03 0.  0.
        -13    1    3    3    0    0  0.18236661633E+02 -0.12886860240E+02 -0.44498651643E+02  0.49787429703E+02  0.10566000000E+00 0.  1.
         23    2    1    0    0    0 -0.20335970630E+02 -0.66055327215E+01 -0.18495674244E+02  0.96728552748E+02  0.92504800887E+02 0.  0.
         13    1    3    3    0    0 -0.38572632262E+02  0.62813275184E+01  0.26002977400E+02  0.46941123045E+02  0.10566000000E+00 0. -1.
         22    1    1    0    0    0  0.20335970630E+02  0.66055327215E+01  0.18495674244E+02  0.28271447252E+02  0.00000000000E+00 0.  1.
</event>
<event>
 5    1  0.1285375E-004  0.9118800E+02  0.7818608E-02  0.1130116E+00
         25   -1    0    0    0    0  0.00000000000E+00  0.00000000000E+00  0.99999998245E-14  0.12500000000E+03  0.12500000000E+03 0.  0.
        -13    1    3    3    0    0 -0.13374120116E+02  0.19666077869E+02  0.40452806727E+02  0.46926138172E+02  0.10566000000E+00 0.  1.
         23    2    1    0    0    0 -0.10120571142E+02 -0.20705698712E+02  0.26766114640E+02  0.89678946614E+02  0.82430192608E+02 0.  0.
         13    1    3    3    0    0  0.32535489742E+01 -0.40371776582E+02 -0.13686692087E+02  0.42752808441E+02  0.10566000000E+00 0. -1.
         22    1    1    0    0    0  0.10120571142E+02  0.20705698712E+02 -0.26766114640E+02  0.35321053386E+02  0.00000000000E+00 0. -1.
</event>
<event>
 5    1  0.1285375E-004  0.9118800E+02  0.7818608E-02  0.1130116E+00
         25   -1    0    0    0    0  0.00000000000E+00  0.00000000000E+00  0.99999998245E-14  0.12500000000E+03  0.12500000000E+03 0.  0.
        -13    1    3    3    0    0 -0.65755240883E+01  0.36522800594E+02 -0.15864159306E+01  0.37144048780E+02  0.10566000000E+00 0.  1.
         23    2    1    0    0    0 -0.99671904487E+01 -0.19055545785E+02 -0.19839584075E+02  0.95741363550E+02  0.91161071119E+02 0.  0.
         13    1    3    3    0    0 -0.33916663605E+01 -0.55578346379E+02 -0.18253168145E+02  0.58597314770E+02  0.10566000000E+00 0. -1.
         22    1    1    0    0    0  0.99671904487E+01  0.19055545785E+02  0.19839584075E+02  0.29258636450E+02  0.00000000000E+00 0. -1.
</event>
<event>
 5    1  0.1285375E-004  0.9118800E+02  0.7818608E-02  0.1130116E+00
         25   -1    0    0    0    0  0.00000000000E+00  0.00000000000E+00  0.99999998245E-14  0.12500000000E+03  0.12500000000E+03 0.  0.
        -13    1    3    3    0    0  0.89447135183E+01 -0.24129112455E+02  0.22906213188E+02  0.34451817578E+02  0.10566000000E+00 0.  1.
         23    2    1    0    0    0 -0.25913505211E+02  0.56930508647E+01 -0.15492896178E+02  0.94276223987E+02  0.89129433953E+02 0.  0.
         13    1    3    3    0    0 -0.34858218729E+02  0.29822163320E+02 -0.38399109366E+02  0.59824406409E+02  0.10566000000E+00 0. -1.
         22    1    1    0    0    0  0.25913505211E+02 -0.56930508647E+01  0.15492896178E+02  0.30723776013E+02  0.00000000000E+00 0. -1.
</event>
<event>
 5    1  0.1285375E-004  0.9118800E+02  0.7818608E-02  0.1130116E+00
         25   -1    0    0    0    0  0.00000000000E+00  0.00000000000E+00  0.99999998245E-14  0.12500000000E+03  0.12500000000E+03 0.  0.
        -13    1    3    3    0    0 -0.13208489326E+01  0.32049318866E+02 -0.43130895857E+02  0.53751175086E+02  0.10566000000E+00 0.  1.
         23    2    1    0    0    0  0.12803247862E+02  0.33339091728E+02 -0.13104887927E+02  0.86958492661E+02  0.78196055945E+02 0.  0.
         13    1    3    3    0    0  0.14124096794E+02  0.12897728621E+01  0.30026007930E+02  0.33207317576E+02  0.10566000000E+00 0. -1.
         22    1    1    0    0    0 -0.12803247862E+02 -0.33339091728E+02  0.13104887927E+02  0.38041507339E+02  0.00000000000E+00 0.  1.
</event>
<event>
 5    1  0.1285375E-004  0.9118800E+02  0.7818608E-02  0.1130116E+00
         25   -1    0    0    0    0  0.00000000000E+00  0.00000000000E+00  0.99999998245E-14  0.12500000000E+03  0.12500000000E+03 0.  0.
        -13    1    3    3    0    0 -0.22324324613E+02 -0.25384700043E+02 -0.51039125093E+01  0.34188003051E+02  0.10566000000E+00 0. -1.
         23    2    1    0    0    0  0.78996299952E+01  0.22903666341E+02  0.17117005351E+02  0.95335644991E+02  0.90603042155E+02 0.  0.
         13    1    3    3    0    0  0.30223954608E+02  0.48288366384E+02  0.22220917860E+02  0.61147641940E+02  0.10566000000E+00 0.  1.
         22    1    1    0    0    0 -0.78996299952E+01 -0.22903666341E+02 -0.17117005351E+02  0.29664355009E+02  0.00000000000E+00 0.  1.
</event>
<event>
 5    1  0.1285375E-004  0.9118800E+02  0.7818608E-02  0.1130116E+00
         25   -1    0    0    0    0  0.00000000000E+00  0.00000000000E+00  0.99999998245E-14  0.12500000000E+03  0.12500000000E+03 0.  0.
        -13    1    3    3    0    0  0.15343590273E+02  0.11657226474E+01  0.35801670698E+02  0.38968647148E+02  0.10566000000E+00 0.  1.
         23    2    1    0    0    0 -0.25741995730E+02 -0.86813580046E+01 -0.46239353433E+01  0.97442839424E+02  0.93465019424E+02 0.  0.
         13    1    3    3    0    0 -0.41085586002E+02 -0.98470806520E+01 -0.40425606041E+02  0.58474192276E+02  0.10566000000E+00 0. -1.
         22    1    1    0    0    0  0.25741995730E+02  0.86813580046E+01  0.46239353433E+01  0.27557160576E+02  0.00000000000E+00 0. -1.
</event>
<event>
 5    1  0.1285375E-004  0.9118800E+02  0.7818608E-02  0.1130116E+00
         25   -1    0    0    0    0  0.00000000000E+00  0.00000000000E+00  0.99999998245E-14  0.12500000000E+03  0.12500000000E+03 0.  0.
        -13    1    3    3    0    0 -0.50908598174E+02 -0.20562939450E+02 -0.23937713065E+02  0.59896119388E+02  0.10566000000E+00 0. -1.
         23    2    1    0    0    0 -0.33183456716E+02 -0.19682281839E+01 -0.20825434686E+02  0.85773549082E+02  0.76278353879E+02 0.  0.
         13    1    3    3    0    0  0.17725141459E+02  0.18594711266E+02  0.31122783797E+01  0.25877429694E+02  0.10566000000E+00 0.  1.
         22    1    1    0    0    0  0.33183456716E+02  0.19682281839E+01  0.20825434686E+02  0.39226450918E+02  0.00000000000E+00 0. -1.
</event>
<event>
 5    1  0.1285375E-004  0.9118800E+02  0.7818608E-02  0.1130116E+00
         25   -1    0    0    0    0  0.00000000000E+00  0.00000000000E+00  0.99999998245E-14  0.12500000000E+03  0.12500000000E+03 0.  0.
        -13    1    3    3    0    0 -0.43729566731E+01 -0.31754690147E+02  0.14222283306E+02  0.35068042473E+02  0.10566000000E+00 0.  1.
         23    2    1    0    0    0 -0.13778386965E+02  0.26083169724E+02 -0.53874193708E+00  0.95496340344E+02  0.90824474048E+02 0.  0.
         13    1    3    3    0    0 -0.94054302922E+01  0.57837859871E+02 -0.14761025243E+02  0.60428297872E+02  0.10566000000E+00 0. -1.
         22    1    1    0    0    0  0.13778386965E+02 -0.26083169724E+02  0.53874193708E+00  0.29503659656E+02  0.00000000000E+00 0. -1.
</event>
<event>
 5    1  0.1285375E-004  0.9118800E+02  0.7818608E-02  0.1130116E+00
         25   -1    0    0    0    0  0.00000000000E+00  0.00000000000E+00  0.99999998245E-14  0.12500000000E+03  0.12500000000E+03 0.  0.
        -13    1    3    3    0    0  0.14771715089E+02 -0.44438440205E+02  0.39142665286E+02  0.61033908152E+02  0.10566000000E+00 0.  1.
         23    2    1    0    0    0  0.10368681074E+02 -0.14085029556E+02  0.24172756297E+02  0.95163449399E+02  0.90365161150E+02 0.  0.
         13    1    3    3    0    0 -0.44030340156E+01  0.30353410649E+02 -0.14969908990E+02  0.34129541247E+02  0.10566000000E+00 0. -1.
         22    1    1    0    0    0 -0.10368681074E+02  0.14085029556E+02 -0.24172756297E+02  0.29836550601E+02  0.00000000000E+00 0.  1.
</event>
<event>
 5    1  0.1285375E-004  0.9118800E+02  0.7818608E-02  0.1130116E+00
         25   -1    0    0    0    0  0.00000000000E+00  0.00000000000E+00  0.99999998245E-14  0.12500000000E+03  0.12500000000E+03 0.  0.
        -13    1    3    3    0    0  0.44704014668E+02  0.26088585732E+00 -0.31417101751E+02  0.54640300469E+02  0.10566000000E+00 0. -1.
         23    2    1    0    0    0  0.16397422443E+02  0.21729595306E+02 -0.10820676244E+02  0.95706010696E+02  0.91112582413E+02 0.  0.
         13    1    3    3    0    0 -0.28306592225E+02  0.21468709449E+02  0.20596425507E+02  0.41065710227E+02  0.10566000000E+00 0.  1.
         22    1    1    0    0    0 -0.16397422443E+02 -0.21729595306E+02  0.10820676244E+02  0.29293989304E+02  0.00000000000E+00 0.  1.
</event>
<event>
 5    1  0.1285375E-004  0.9118800E+02  0.7818608E-02  0.1130116E+00
         25   -1    0    0    0    0  0.00000000000E+00  0.00000000000E+00  0.99999998245E-14  0.12500000000E+03  0.12500000000E+03 0.  0.
        -13    1    3    3    0    0  0.17078945767E+02 -0.16423063815E+02 -0.25567946833E+02  0.34858836511E+02  0.10566000000E+00 0.  1.
         23    2    1    0    0    0 -0.23102623729E+02  0.38797211933E+01  0.16398055101E+02  0.96404901280E+02  0.92066417982E+02 0.  0.
         13    1    3    3    0    0 -0.40181569496E+02  0.20302785008E+02  0.41966001934E+02  0.61546064770E+02  0.10566000000E+00 0. -1.
         22    1    1    0    0    0  0.23102623729E+02 -0.38797211933E+01 -0.16398055101E+02  0.28595098720E+02  0.00000000000E+00 0. -1.
</event>
<event>
 5    1  0.1285375E-004  0.9118800E+02  0.7818608E-02  0.1130116E+00
         25   -1    0    0    0    0  0.00000000000E+00  0.00000000000E+00  0.99999998245E-14  0.12500000000E+03  0.12500000000E+03 0.  0.
        -13    1    3    3    0    0  0.13393858042E+02 -0.37938146659E+01  0.33172275919E+02  0.35974984595E+02  0.10566000000E+00 0.  1.
         23    2    1    0    0    0 -0.12564581390E+02  0.23044682319E+02 -0.13288842968E+02  0.95580288306E+02  0.90939936643E+02 0.  0.
         13    1    3    3    0    0 -0.25958439432E+02  0.26838496985E+02 -0.46461118887E+02  0.59605303711E+02  0.10566000000E+00 0. -1.
         22    1    1    0    0    0  0.12564581390E+02 -0.23044682319E+02  0.13288842968E+02  0.29419711694E+02  0.00000000000E+00 0. -1.
</event>
<event>
 5    1  0.1285375E-004  0.9118800E+02  0.7818608E-02  0.1130116E+00
         25   -1    0    0    0    0  0.00000000000E+00  0.00000000000E+00  0.99999998245E-14  0.12500000000E+03  0.12500000000E+03 0.  0.
        -13    1    3    3    0    0  0.16278858725E+02 -0.25023010337E+02  0.27014523929E+02  0.40260997937E+02  0.10566000000E+00 0.  1.
         23    2    1    0    0    0 -0.16239564515E+02  0.18114261559E+02  0.17298447748E+02  0.95148932650E+02  0.90345078241E+02 0.  0.
         13    1    3    3    0    0 -0.32518423240E+02  0.43137271896E+02 -0.97160761815E+01  0.54887934713E+02  0.10566000000E+00 0. -1.
         22    1    1    0    0    0  0.16239564515E+02 -0.18114261559E+02 -0.17298447748E+02  0.29851067350E+02  0.00000000000E+00 0. -1.
</event>
<event>
 5    1  0.1285375E-004  0.9118800E+02  0.7818608E-02  0.1130116E+00
         25   -1    0    0    0    0  0.00000000000E+00  0.00000000000E+00  0.99999998245E-14  0.12500000000E+03  0.12500000000E+03 0.  0.
        -13    1    3    3    0    0  0.25283442294E+02  0.25405025477E+01  0.14345962916E+01  0.25451440784E+02  0.10566000000E+00 0. -1.
         23    2    1    0    0    0 -0.35902757927E+02 -0.49218742305E+01  0.92899116993E+01  0.87589636034E+02  0.79198541707E+02 0.  0.
         13    1    3    3    0    0 -0.61186200221E+02 -0.74623767783E+01  0.78553154077E+01  0.62138195250E+02  0.10566000000E+00 0.  1.
         22    1    1    0    0    0  0.35902757927E+02  0.49218742305E+01 -0.92899116993E+01  0.37410363966E+02  0.00000000000E+00 0.  1.
</event>
<event>
 5    1  0.1285375E-004  0.9118800E+02  0.7818608E-02  0.1130116E+00
         25   -1    0    0    0    0  0.00000000000E+00  0.00000000000E+00  0.99999998245E-14  0.12500000000E+03  0.12500000000E+03 0.  0.
        -13    1    3    3    0    0  0.10265244584E+02  0.21057344267E+02 -0.42642950299E+02  0.48654078639E+02  0.10566000000E+00 0. -1.
         23    2    1    0    0    0 -0.15355774348E+02  0.19883983881E+02  0.16346764437E+01  0.99823725695E+02  0.96596746444E+02 0.  0.
         13    1    3    3    0    0 -0.25621018933E+02 -0.11733603861E+01  0.44277626743E+02  0.51169647055E+02  0.10566000000E+00 0.  1.
         22    1    1    0    0    0  0.15355774348E+02 -0.19883983881E+02 -0.16346764437E+01  0.25176274305E+02  0.00000000000E+00 0. -1.
</event>
<event>
 5    1  0.1285375E-004  0.9118800E+02  0.7818608E-02  0.1130116E+00
         25   -1    0    0    0    0  0.00000000000E+00  0.00000000000E+00  0.99999998245E-14  0.12500000000E+03  0.12500000000E+03 0.  0.
        -13    1    3    3    0    0 -0.40278243757E+01 -0.30676112801E+01 -0.37856000839E+02  0.38193213687E+02  0.10566000000E+00 0. -1.
         23    2    1    0    0    0  0.41411072060E+01 -0.28103863183E+02  0.11672521648E+02  0.94288053524E+02  0.89146022800E+02 0.  0.
         13    1    3    3    0    0  0.81689315817E+01 -0.25036251903E+02  0.49528522487E+02  0.56094839837E+02  0.10566000000E+00 0.  1.
         22    1    1    0    0    0 -0.41411072060E+01  0.28103863183E+02 -0.11672521648E+02  0.30711946476E+02  0.00000000000E+00 0.  1.
</event>
<event>
 5    1  0.1285375E-004  0.9118800E+02  0.7818608E-02  0.1130116E+00
         25   -1    0    0    0    0  0.00000000000E+00  0.00000000000E+00  0.99999998245E-14  0.12500000000E+03  0.12500000000E+03 0.  0.
        -13    1    3    3    0    0 -0.37588006757E+02 -0.13073911152E+02  0.74840456462E+01  0.40494536768E+02  0.10566000000E+00 0. -1.
         23    2    1    0    0    0  0.17033976864E+02 -0.21868739747E+02  0.90434938034E+01  0.95842103538E+02  0.91299101225E+02 0.  0.
         13    1    3    3    0    0  0.54621983621E+02 -0.87948285949E+01  0.15594481572E+01  0.55347566770E+02  0.10566000000E+00 0.  1.
         22    1    1    0    0    0 -0.17033976864E+02  0.21868739747E+02 -0.90434938034E+01  0.29157896462E+02  0.00000000000E+00 0.  1.
</event>
<event>
 5    1  0.1285375E-004  0.9118800E+02  0.7818608E-02  0.1130116E+00
         25   -1    0    0    0    0  0.00000000000E+00  0.00000000000E+00  0.99999998245E-14  0.12500000000E+03  0.12500000000E+03 0.  0.
        -13    1    3    3    0    0 -0.86840811530E+01 -0.17278676973E+02 -0.13367246949E+02  0.23508730260E+02  0.10566000000E+00 0.  1.
         23    2    1    0    0    0  0.87531009473E+01  0.39845467313E+02 -0.33759318707E+01  0.84064991051E+02  0.73425116703E+02 0.  0.
         13    1    3    3    0    0  0.17437182100E+02  0.57124144286E+02  0.99913150783E+01  0.60556260792E+02  0.10566000000E+00 0. -1.
         22    1    1    0    0    0 -0.87531009473E+01 -0.39845467313E+02  0.33759318707E+01  0.40935008949E+02  0.00000000000E+00 0. -1.
</event>
<event>
 5    1  0.1285375E-004  0.9118800E+02  0.7818608E-02  0.1130116E+00
         25   -1    0    0    0    0  0.00000000000E+00  0.00000000000E+00  0.99999998245E-14  0.12500000000E+03  0.12500000000E+03 0.  0.
        -13    1    3    3    0    0 -0.41154885486E+02  0.94856383766E+01 -0.43956475925E+02  0.60958058323E+02  0.10566000000E+00 0.  1.
         23    2    1    0    0    0 -0.96290326954E+01  0.69527282254E+01 -0.23626965115E+02  0.98555866794E+02  0.94941912234E+02 0.  0.
         13    1    3    3    0    0  0.31525852791E+02 -0.25329101512E+01  0.20329510809E+02  0.37597808471E+02  0.10566000000E+00 0. -1.
         22    1    1    0    0    0  0.96290326954E+01 -0.69527282254E+01  0.23626965115E+02  0.26444133206E+02  0.00000000000E+00 0.  1.
</event>
<event>
 5    1  0.1285375E-004  0.9118800E+02  0.7818608E-02  0.1130116E+00
         25   -1    0    0    0    0  0.00000000000E+00  0.00000000000E+00  0.99999998245E-14  0.12500000000E+03  0.12500000000E+03 0.  0.
        -13    1    3    3    0    0  0.32039649947E+02 -0.34440796317E+02 -0.12213609951E+02  0.48599290650E+02  0.10566000000E+00 0.  1.
         23    2    1    0    0    0  0.20694460421E+02  0.99002182938E+01 -0.19433126167E+02  0.94934714254E+02  0.90048201334E+02 0.  0.
         13    1    3    3    0    0 -0.11345189526E+02  0.44341014611E+02 -0.72195162160E+01  0.46335423604E+02  0.10566000000E+00 0. -1.
         22    1    1    0    0    0 -0.20694460421E+02 -0.99002182938E+01  0.19433126167E+02  0.30065285746E+02  0.00000000000E+00 0. -1.
</event>
<event>
 5    1  0.1285375E-004  0.9118800E+02  0.7818608E-02  0.1130116E+00
         25   -1    0    0    0    0  0.00000000000E+00  0.00000000000E+00  0.99999998245E-14  0.12500000000E+03  0.12500000000E+03 0.  0.
        -13    1    3    3    0    0  0.16315695554E+01 -0.54481880533E+01 -0.41189774844E+02  0.41580686478E+02  0.10566000000E+00 0. -1.
         23    2    1    0    0    0 -0.99883796652E+01 -0.19584198426E+02  0.13466596296E+02  0.99219042451E+02  0.95811067277E+02 0.  0.
         13    1    3    3    0    0 -0.11619949221E+02 -0.14136010373E+02  0.54656371140E+02  0.57638355973E+02  0.10566000000E+00 0.  1.
         22    1    1    0    0    0  0.99883796652E+01  0.19584198426E+02 -0.13466596296E+02  0.25780957549E+02  0.00000000000E+00 0.  1.
</event>
<event>
 5    1  0.1285375E-004  0.9118800E+02  0.7818608E-02  0.1130116E+00
         25   -1    0    0    0    0  0.00000000000E+00  0.00000000000E+00  0.99999998245E-14  0.12500000000E+03  0.12500000000E+03 0.  0.
        -13    1    3    3    0    0  0.22532582273E+01  0.20143302124E+02  0.29997976958E+02  0.36203861378E+02  0.10566000000E+00 0. -1.
         23    2    1    0    0    0 -0.25239805466E+02 -0.12595852407E+02 -0.10315006994E+02  0.94964976326E+02  0.90090199697E+02 0.  0.
         13    1    3    3    0    0 -0.27493063693E+02 -0.32739154531E+02 -0.40312983953E+02  0.58761114947E+02  0.10566000000E+00 0.  1.
         22    1    1    0    0    0  0.25239805466E+02  0.12595852407E+02  0.10315006994E+02  0.30035023674E+02  0.00000000000E+00 0.  1.
</event>
<event>
 5    1  0.1285375E-004  0.9118800E+02  0.7818608E-02  0.1130116E+00
         25   -1    0    0    0    0  0.00000000000E+00  0.00000000000E+00  0.99999998245E-14  0.12500000000E+03  0.12500000000E+03 0.  0.
        -13    1    3    3    0    0 -0.10242101003E+02  0.37298015906E+02 -0.16342192697E+02  0.41989535001E+02  0.10566000000E+00 0. -1.
         23    2    1    0    0    0 -0.23293358095E+02 -0.14801144294E+02 -0.72808215781E+01  0.96457667114E+02  0.92138031119E+02 0.  0.
         13    1    3    3    0    0 -0.13051257091E+02 -0.52099160200E+02  0.90613711184E+01  0.54468132112E+02  0.10566000000E+00 0.  1.
         22    1    1    0    0    0  0.23293358095E+02  0.14801144294E+02  0.72808215781E+01  0.28542332886E+02  0.00000000000E+00 0.  1.
</event>
<event>
 5    1  0.1285375E-004  0.9118800E+02  0.7818608E-02  0.1130116E+00
         25   -1    0    0    0    0  0.00000000000E+00  0.00000000000E+00  0.99999998245E-14  0.12500000000E+03  0.12500000000E+03 0.  0.
        -13    1    3    3    0    0 -0.12684612778E+02 -0.51172752200E+02 -0.18834975355E+02  0.55984975035E+02  0.10566000000E+00 0.  1.
         23    2    1    0    0    0 -0.53427531782E+01 -0.11400081049E+02 -0.25107022240E+02  0.96913180578E+02  0.92753949483E+02 0.  0.
         13    1    3    3    0    0  0.73418595995E+01  0.39772671151E+02 -0.62720468849E+01  0.40928205543E+02  0.10566000000E+00 0. -1.
         22    1    1    0    0    0  0.53427531782E+01  0.11400081049E+02  0.25107022240E+02  0.28086819422E+02  0.00000000000E+00 0.  1.
</event>
<event>
 5    1  0.1285375E-004  0.9118800E+02  0.7818608E-02  0.1130116E+00
         25   -1    0    0    0    0  0.00000000000E+00  0.00000000000E+00  0.99999998245E-14  0.12500000000E+03  0.12500000000E+03 0.  0.
        -13    1    3    3    0    0 -0.23989410914E+02  0.47072940605E+02 -0.61063490514E+01  0.53185075312E+02  0.10566000000E+00 0.  1.
         23    2    1    0    0    0  0.24833236850E+01  0.20145830848E+02  0.17904680570E+02  0.97933434215E+02  0.94118853338E+02 0.  0.
         13    1    3    3    0    0  0.26472734599E+02 -0.26927109756E+02  0.24011029622E+02  0.44748358903E+02  0.10566000000E+00 0. -1.
         22    1    1    0    0    0 -0.24833236850E+01 -0.20145830848E+02 -0.17904680570E+02  0.27066565785E+02  0.00000000000E+00 0.  1.
</event>
<event>
 5    1  0.1285375E-004  0.9118800E+02  0.7818608E-02  0.1130116E+00
         25   -1    0    0    0    0  0.00000000000E+00  0.00000000000E+00  0.99999998245E-14  0.12500000000E+03  0.12500000000E+03 0.  0.
        -13    1    3    3    0    0  0.96889745546E+01 -0.33817521386E+02 -0.10269143020E+02  0.36646520203E+02  0.10566000000E+00 0. -1.
         23    2    1    0    0    0  0.83831722101E+01  0.19931762263E+02 -0.24559127538E+02  0.92278394467E+02  0.86282087461E+02 0.  0.
         13    1    3    3    0    0 -0.13058023444E+01  0.53749283649E+02 -0.14289984518E+02  0.55631874264E+02  0.10566000000E+00 0.  1.
         22    1    1    0    0    0 -0.83831722101E+01 -0.19931762263E+02  0.24559127538E+02  0.32721605533E+02  0.00000000000E+00 0.  1.
</event>
<event>
 5    1  0.1285375E-004  0.9118800E+02  0.7818608E-02  0.1130116E+00
         25   -1    0    0    0    0  0.00000000000E+00  0.00000000000E+00  0.99999998245E-14  0.12500000000E+03  0.12500000000E+03 0.  0.
        -13    1    3    3    0    0  0.24495562346E+02 -0.14901962167E+02  0.18806183986E+02  0.34289718156E+02  0.10566000000E+00 0.  1.
         23    2    1    0    0    0 -0.13661822714E+02  0.25043777508E+02 -0.75401150445E+01  0.95492551337E+02  0.90819259159E+02 0.  0.
         13    1    3    3    0    0 -0.38157385059E+02  0.39945739674E+02 -0.26346299031E+02  0.61202833181E+02  0.10566000000E+00 0. -1.
         22    1    1    0    0    0  0.13661822714E+02 -0.25043777508E+02  0.75401150445E+01  0.29507448663E+02  0.00000000000E+00 0. -1.
</event>
<event>
 5    1  0.1285375E-004  0.9118800E+02  0.7818608E-02  0.1130116E+00
         25   -1    0    0    0    0  0.00000000000E+00  0.00000000000E+00  0.99999998245E-14  0.12500000000E+03  0.12500000000E+03 0.  0.
        -13    1    3    3    0    0  0.43157827111E+02  0.70536688933E-02 -0.95640810834E+01  0.44204987295E+02  0.10566000000E+00 0.  1.
         23    2    1    0    0    0 -0.15353649292E+01 -0.26229734418E+02 -0.12058800737E+02  0.96090295949E+02  0.91638277958E+02 0.  0.
         13    1    3    3    0    0 -0.44693192041E+02 -0.26236788087E+02 -0.24947196540E+01  0.51885308654E+02  0.10566000000E+00 0. -1.
         22    1    1    0    0    0  0.15353649292E+01  0.26229734418E+02  0.12058800737E+02  0.28909704051E+02  0.00000000000E+00 0.  1.
</event>
<event>
 5    1  0.1285375E-004  0.9118800E+02  0.7818608E-02  0.1130116E+00
         25   -1    0    0    0    0  0.00000000000E+00  0.00000000000E+00  0.99999998245E-14  0.12500000000E+03  0.12500000000E+03 0.  0.
        -13    1    3    3    0    0 -0.10273095663E+02 -0.40393826058E+02 -0.20749037844E+02  0.46558902624E+02  0.10566000000E+00 0. -1.
         23    2    1    0    0    0 -0.25132544618E+02  0.62844549566E-01  0.82981434143E+01  0.98532889608E+02  0.94911655775E+02 0.  0.
         13    1    3    3    0    0 -0.14859448955E+02  0.40456670607E+02  0.29047181258E+02  0.51973986983E+02  0.10566000000E+00 0.  1.
         22    1    1    0    0    0  0.25132544618E+02 -0.62844549566E-01 -0.82981434143E+01  0.26467110392E+02  0.00000000000E+00 0. -1.
</event>
<event>
 5    1  0.1285375E-004  0.9118800E+02  0.7818608E-02  0.1130116E+00
         25   -1    0    0    0    0  0.00000000000E+00  0.00000000000E+00  0.99999998245E-14  0.12500000000E+03  0.12500000000E+03 0.  0.
        -13    1    3    3    0    0 -0.40234600090E+02 -0.37001164067E+01 -0.19040540145E+02  0.44666175557E+02  0.10566000000E+00 0. -1.
         23    2    1    0    0    0 -0.96924060099E+00 -0.28292095125E+02  0.40003756057E+01  0.96410052835E+02  0.92073412063E+02 0.  0.
         13    1    3    3    0    0  0.39265359489E+02 -0.24591978718E+02  0.23040915751E+02  0.51743877278E+02  0.10566000000E+00 0.  1.
         22    1    1    0    0    0  0.96924060099E+00  0.28292095125E+02 -0.40003756057E+01  0.28589947165E+02  0.00000000000E+00 0.  1.
</event>
<event>
 5    1  0.1285375E-004  0.9118800E+02  0.7818608E-02  0.1130116E+00
         25   -1    0    0    0    0  0.00000000000E+00  0.00000000000E+00  0.99999998245E-14  0.12500000000E+03  0.12500000000E+03 0.  0.
        -13    1    3    3    0    0  0.44743017239E+02 -0.37586959784E+02  0.76699036682E+00  0.58440709918E+02  0.10566000000E+00 0.  1.
         23    2    1    0    0    0  0.22196706351E+02 -0.14700415283E+02 -0.15228214325E+02  0.94329256712E+02  0.89203778945E+02 0.  0.
         13    1    3    3    0    0 -0.22546310889E+02  0.22886544500E+02 -0.15995204691E+02  0.35888546794E+02  0.10566000000E+00 0. -1.
         22    1    1    0    0    0 -0.22196706351E+02  0.14700415283E+02  0.15228214325E+02  0.30670743288E+02  0.00000000000E+00 0.  1.
</event>
<event>
 5    1  0.1285375E-004  0.9118800E+02  0.7818608E-02  0.1130116E+00
         25   -1    0    0    0    0  0.00000000000E+00  0.00000000000E+00  0.99999998245E-14  0.12500000000E+03  0.12500000000E+03 0.  0.
        -13    1    3    3    0    0  0.34384841121E+02  0.25678896371E+02 -0.22109148225E+02  0.48275755996E+02  0.10566000000E+00 0. -1.
         23    2    1    0    0    0 -0.94273098078E+01  0.27965605197E+02 -0.10715459720E+02  0.93603020507E+02  0.88180242270E+02 0.  0.
         13    1    3    3    0    0 -0.43812150929E+02  0.22867088268E+01  0.11393688505E+02  0.45327264511E+02  0.10566000000E+00 0.  1.
         22    1    1    0    0    0  0.94273098078E+01 -0.27965605197E+02  0.10715459720E+02  0.31396979493E+02  0.00000000000E+00 0.  1.
</event>
<event>
 5    1  0.1285375E-004  0.9118800E+02  0.7818608E-02  0.1130116E+00
         25   -1    0    0    0    0  0.00000000000E+00  0.00000000000E+00  0.99999998245E-14  0.12500000000E+03  0.12500000000E+03 0.  0.
        -13    1    3    3    0    0  0.14920289714E+01 -0.34107689409E+02 -0.27986002008E+01  0.34254984373E+02  0.10566000000E+00 0. -1.
         23    2    1    0    0    0 -0.11538165739E+02  0.24683406968E+02  0.10282624620E+02  0.95877290352E+02  0.91347263714E+02 0.  0.
         13    1    3    3    0    0 -0.13030194711E+02  0.58791096377E+02  0.13081224820E+02  0.61622305979E+02  0.10566000000E+00 0.  1.
         22    1    1    0    0    0  0.11538165739E+02 -0.24683406968E+02 -0.10282624620E+02  0.29122709648E+02  0.00000000000E+00 0.  1.
</event>
<event>
 5    1  0.1285375E-004  0.9118800E+02  0.7818608E-02  0.1130116E+00
         25   -1    0    0    0    0  0.00000000000E+00  0.00000000000E+00  0.99999998245E-14  0.12500000000E+03  0.12500000000E+03 0.  0.
        -13    1    3    3    0    0 -0.91076431464E+01  0.26462131725E+02 -0.48491419908E+02  0.55987699969E+02  0.10566000000E+00 0.  1.
         23    2    1    0    0    0  0.81666235336E+01  0.20811235040E+02 -0.45358746718E+02  0.74431065389E+02  0.54614708160E+02 0.  0.
         13    1    3    3    0    0  0.17274266680E+02 -0.56508966850E+01  0.31326731900E+01  0.18443365420E+02  0.10566000000E+00 0. -1.
         22    1    1    0    0    0 -0.81666235336E+01 -0.20811235040E+02  0.45358746718E+02  0.50568934611E+02  0.00000000000E+00 0.  1.
</event>
<event>
 5    1  0.1285375E-004  0.9118800E+02  0.7818608E-02  0.1130116E+00
         25   -1    0    0    0    0  0.00000000000E+00  0.00000000000E+00  0.99999998245E-14  0.12500000000E+03  0.12500000000E+03 0.  0.
        -13    1    3    3    0    0 -0.27296544333E+02  0.25399104240E+02 -0.10973993895E+02  0.38867152387E+02  0.10566000000E+00 0.  1.
         23    2    1    0    0    0  0.26217877189E+02  0.84148760681E+01  0.44858069400E+01  0.97101797774E+02  0.93007792380E+02 0.  0.
         13    1    3    3    0    0  0.53514421522E+02 -0.16984228171E+02  0.15459800835E+02  0.58234645386E+02  0.10566000000E+00 0. -1.
         22    1    1    0    0    0 -0.26217877189E+02 -0.84148760681E+01 -0.44858069400E+01  0.27898202226E+02  0.00000000000E+00 0. -1.
</event>
<event>
 5    1  0.1285375E-004  0.9118800E+02  0.7818608E-02  0.1130116E+00
         25   -1    0    0    0    0  0.00000000000E+00  0.00000000000E+00  0.99999998245E-14  0.12500000000E+03  0.12500000000E+03 0.  0.
        -13    1    3    3    0    0  0.94147356831E+01 -0.24704525511E+02 -0.24819962960E+02  0.36262826063E+02  0.10566000000E+00 0.  1.
         23    2    1    0    0    0  0.23280166238E+02  0.12471915451E+02  0.16747092228E+02  0.93727329612E+02  0.88356281061E+02 0.  0.
         13    1    3    3    0    0  0.13865430555E+02  0.37176440962E+02  0.41567055188E+02  0.57464503549E+02  0.10566000000E+00 0. -1.
         22    1    1    0    0    0 -0.23280166238E+02 -0.12471915451E+02 -0.16747092228E+02  0.31272670388E+02  0.00000000000E+00 0. -1.
</event>
<event>
 5    1  0.1285375E-004  0.9118800E+02  0.7818608E-02  0.1130116E+00
         25   -1    0    0    0    0  0.00000000000E+00  0.00000000000E+00  0.99999998245E-14  0.12500000000E+03  0.12500000000E+03 0.  0.
        -13    1    3    3    0    0 -0.32815472396E+02 -0.15862444876E+02 -0.46374378778E+02  0.58983612615E+02  0.10566000000E+00 0.  1.
         23    2    1    0    0    0 -0.20950256192E+02 -0.14419694759E+02 -0.93285087444E+01  0.97910114307E+02  0.94087876885E+02 0.  0.
         13    1    3    3    0    0  0.11865216204E+02  0.14427501167E+01  0.37045870033E+02  0.38926501693E+02  0.10566000000E+00 0. -1.
         22    1    1    0    0    0  0.20950256192E+02  0.14419694759E+02  0.93285087444E+01  0.27089885693E+02  0.00000000000E+00 0.  1.
</event>
<event>
 5    1  0.1285375E-004  0.9118800E+02  0.7818608E-02  0.1130116E+00
         25   -1    0    0    0    0  0.00000000000E+00  0.00000000000E+00  0.99999998245E-14  0.12500000000E+03  0.12500000000E+03 0.  0.
        -13    1    3    3    0    0  0.32755258109E+02  0.21287299814E+02  0.10937019703E+02  0.40567051054E+02  0.10566000000E+00 0. -1.
         23    2    1    0    0    0 -0.14725413553E+02 -0.61935571092E+01  0.23248931415E+02  0.96791654322E+02  0.92590029596E+02 0.  0.
         13    1    3    3    0    0 -0.47480671662E+02 -0.27480856923E+02  0.12311911711E+02  0.56224603269E+02  0.10566000000E+00 0.  1.
         22    1    1    0    0    0  0.14725413553E+02  0.61935571092E+01 -0.23248931415E+02  0.28208345678E+02  0.00000000000E+00 0.  1.
</event>
<event>
 5    1  0.1285375E-004  0.9118800E+02  0.7818608E-02  0.1130116E+00
         25   -1    0    0    0    0  0.00000000000E+00  0.00000000000E+00  0.99999998245E-14  0.12500000000E+03  0.12500000000E+03 0.  0.
        -13    1    3    3    0    0 -0.12300694739E+02 -0.33906263614E+02 -0.19569006709E+02  0.41035338319E+02  0.10566000000E+00 0.  1.
         23    2    1    0    0    0 -0.22656526483E+01  0.16741959104E+02 -0.26949179518E+02  0.93193009365E+02  0.87597102357E+02 0.  0.
         13    1    3    3    0    0  0.10035042091E+02  0.50648222718E+02 -0.73801728089E+01  0.52157671046E+02  0.10566000000E+00 0. -1.
         22    1    1    0    0    0  0.22656526483E+01 -0.16741959104E+02  0.26949179518E+02  0.31806990635E+02  0.00000000000E+00 0. -1.
</event>
<event>
 5    1  0.1285375E-004  0.9118800E+02  0.7818608E-02  0.1130116E+00
         25   -1    0    0    0    0  0.00000000000E+00  0.00000000000E+00  0.99999998245E-14  0.12500000000E+03  0.12500000000E+03 0.  0.
        -13    1    3    3    0    0  0.32765062276E+02  0.86016207852E+01  0.17919578290E+02  0.38323095337E+02  0.10566000000E+00 0.  1.
         23    2    1    0    0    0 -0.22222791828E+02  0.18520383013E+02  0.59748759808E+01  0.95460937616E+02  0.90775736868E+02 0.  0.
         13    1    3    3    0    0 -0.54987854104E+02  0.99187622274E+01 -0.11944702309E+02  0.57137842279E+02  0.10566000000E+00 0. -1.
         22    1    1    0    0    0  0.22222791828E+02 -0.18520383013E+02 -0.59748759808E+01  0.29539062384E+02  0.00000000000E+00 0. -1.
</event>
<event>
 5    1  0.1285375E-004  0.9118800E+02  0.7818608E-02  0.1130116E+00
         25   -1    0    0    0    0  0.00000000000E+00  0.00000000000E+00  0.99999998245E-14  0.12500000000E+03  0.12500000000E+03 0.  0.
        -13    1    3    3    0    0  0.35117357155E+02 -0.14644765266E+02  0.48621158800E+02  0.61739178568E+02  0.10566000000E+00 0.  1.
         23    2    1    0    0    0  0.94105509154E+01 -0.10464319276E+02  0.13200001157E+02  0.10570491055E+03  0.10392895476E+03 0.  0.
         13    1    3    3    0    0 -0.25706806239E+02  0.41804459906E+01 -0.35421157643E+02  0.43965731979E+02  0.10566000000E+00 0. -1.
         22    1    1    0    0    0 -0.94105509154E+01  0.10464319276E+02 -0.13200001157E+02  0.19295089452E+02  0.00000000000E+00 0.  1.
</event>
<event>
 5    1  0.1285375E-004  0.9118800E+02  0.7818608E-02  0.1130116E+00
         25   -1    0    0    0    0  0.00000000000E+00  0.00000000000E+00  0.99999998245E-14  0.12500000000E+03  0.12500000000E+03 0.  0.
        -13    1    3    3    0    0 -0.51868195468E+02  0.22213002436E+01 -0.27468814415E+02  0.58734919811E+02  0.10566000000E+00 0.  1.
         23    2    1    0    0    0 -0.18515066792E+02 -0.90772245266E+01 -0.22800540131E+02  0.94258036275E+02  0.89103922858E+02 0.  0.
         13    1    3    3    0    0  0.33353128676E+02 -0.11298524770E+02  0.46682742834E+01  0.35523116463E+02  0.10566000000E+00 0. -1.
         22    1    1    0    0    0  0.18515066792E+02  0.90772245266E+01  0.22800540131E+02  0.30741963725E+02  0.00000000000E+00 0.  1.
</event>
<event>
 5    1  0.1285375E-004  0.9118800E+02  0.7818608E-02  0.1130116E+00
         25   -1    0    0    0    0  0.00000000000E+00  0.00000000000E+00  0.99999998245E-14  0.12500000000E+03  0.12500000000E+03 0.  0.
        -13    1    3    3    0    0 -0.10501971037E+02 -0.37180815417E+02  0.17977655047E+02  0.42613515178E+02  0.10566000000E+00 0.  1.
         23    2    1    0    0    0  0.20530130682E+02  0.45624159605E+01  0.21725290641E+02  0.94762768668E+02  0.89809198676E+02 0.  0.
         13    1    3    3    0    0  0.31032101719E+02  0.41743231378E+02  0.37476355934E+01  0.52149253490E+02  0.10566000000E+00 0. -1.
         22    1    1    0    0    0 -0.20530130682E+02 -0.45624159605E+01 -0.21725290641E+02  0.30237231332E+02  0.00000000000E+00 0. -1.
</event>
<event>
 5    1  0.1285375E-004  0.9118800E+02  0.7818608E-02  0.1130116E+00
         25   -1    0    0    0    0  0.00000000000E+00  0.00000000000E+00  0.99999998245E-14  0.12500000000E+03  0.12500000000E+03 0.  0.
        -13    1    3    3    0    0 -0.21614596328E+02  0.25973350301E+02 -0.30307995971E+02  0.45391535380E+02  0.10566000000E+00 0. -1.
         23    2    1    0    0    0  0.23119639545E+02  0.14947223697E+02 -0.11958018822E+02  0.94984479963E+02  0.90117256898E+02 0.  0.
         13    1    3    3    0    0  0.44734235873E+02 -0.11026126604E+02  0.18349977150E+02  0.49592944584E+02  0.10566000000E+00 0.  1.
         22    1    1    0    0    0 -0.23119639545E+02 -0.14947223697E+02  0.11958018822E+02  0.30015520037E+02  0.00000000000E+00 0. -1.
</event>
<event>
 5    1  0.1285375E-004  0.9118800E+02  0.7818608E-02  0.1130116E+00
         25   -1    0    0    0    0  0.00000000000E+00  0.00000000000E+00  0.99999998245E-14  0.12500000000E+03  0.12500000000E+03 0.  0.
        -13    1    3    3    0    0 -0.39816752609E+02 -0.10606596731E+02  0.21858698974E+01  0.41263335709E+02  0.10566000000E+00 0.  1.
         23    2    1    0    0    0  0.13424485442E+02 -0.22018336381E+02 -0.10473600333E+02  0.97166203092E+02  0.93094311174E+02 0.  0.
         13    1    3    3    0    0  0.53241238052E+02 -0.11411739650E+02 -0.12659470230E+02  0.55902867383E+02  0.10566000000E+00 0. -1.
         22    1    1    0    0    0 -0.13424485442E+02  0.22018336381E+02  0.10473600333E+02  0.27833796908E+02  0.00000000000E+00 0. -1.
</event>
<event>
 5    1  0.1285375E-004  0.9118800E+02  0.7818608E-02  0.1130116E+00
         25   -1    0    0    0    0  0.00000000000E+00  0.00000000000E+00  0.99999998245E-14  0.12500000000E+03  0.12500000000E+03 0.  0.
        -13    1    3    3    0    0  0.14555173227E+02 -0.39400480443E+02 -0.13315753538E+02  0.44063265688E+02  0.10566000000E+00 0.  1.
         23    2    1    0    0    0 -0.11011060153E+02  0.60240333673E+01 -0.24588447961E+02  0.97393403019E+02  0.93398879837E+02 0.  0.
         13    1    3    3    0    0 -0.25566233380E+02  0.45424513810E+02 -0.11272694424E+02  0.53330137331E+02  0.10566000000E+00 0. -1.
         22    1    1    0    0    0  0.11011060153E+02 -0.60240333673E+01  0.24588447961E+02  0.27606596981E+02  0.00000000000E+00 0. -1.
</event>
<event>
 5    1  0.1285375E-004  0.9118800E+02  0.7818608E-02  0.1130116E+00
         25   -1    0    0    0    0  0.00000000000E+00  0.00000000000E+00  0.99999998245E-14  0.12500000000E+03  0.12500000000E+03 0.  0.
        -13    1    3    3    0    0  0.67766390389E+01 -0.26370236770E+02 -0.21200272647E+02  0.34507607108E+02  0.10566000000E+00 0. -1.
         23    2    1    0    0    0  0.47734033178E+01  0.70897401807E+01  0.28942135793E+02  0.94822242970E+02  0.89891939252E+02 0.  0.
         13    1    3    3    0    0 -0.20032357211E+01  0.33459976951E+02  0.50142408441E+02  0.60314635862E+02  0.10566000000E+00 0.  1.
         22    1    1    0    0    0 -0.47734033178E+01 -0.70897401807E+01 -0.28942135793E+02  0.30177757030E+02  0.00000000000E+00 0.  1.
</event>
<event>
 5    1  0.1285375E-004  0.9118800E+02  0.7818608E-02  0.1130116E+00
         25   -1    0    0    0    0  0.00000000000E+00  0.00000000000E+00  0.99999998245E-14  0.12500000000E+03  0.12500000000E+03 0.  0.
        -13    1    3    3    0    0  0.37720747636E+02  0.32182286442E+02 -0.14754597924E+02  0.51732617242E+02  0.10566000000E+00 0. -1.
         23    2    1    0    0    0 -0.92977500979E+00  0.24806988711E+02 -0.22103710995E+02  0.91761088914E+02  0.85529364714E+02 0.  0.
         13    1    3    3    0    0 -0.38650522645E+02 -0.73752977308E+01 -0.73491130706E+01  0.40028471671E+02  0.10566000000E+00 0.  1.
         22    1    1    0    0    0  0.92977500979E+00 -0.24806988711E+02  0.22103710995E+02  0.33238911086E+02  0.00000000000E+00 0.  1.
</event>
<event>
 5    1  0.1285375E-004  0.9118800E+02  0.7818608E-02  0.1130116E+00
         25   -1    0    0    0    0  0.00000000000E+00  0.00000000000E+00  0.99999998245E-14  0.12500000000E+03  0.12500000000E+03 0.  0.
        -13    1    3    3    0    0 -0.23053639251E+02  0.22628381627E+02 -0.13808220789E+02  0.35131069769E+02  0.10566000000E+00 0. -1.
         23    2    1    0    0    0  0.23144898368E+02 -0.15648532061E+02 -0.10280533370E+02  0.95230011043E+02  0.90457187446E+02 0.  0.
         13    1    3    3    0    0  0.46198537619E+02 -0.38276913688E+02  0.35276874190E+01  0.60098941273E+02  0.10566000000E+00 0.  1.
         22    1    1    0    0    0 -0.23144898368E+02  0.15648532061E+02  0.10280533370E+02  0.29769988957E+02  0.00000000000E+00 0.  1.
</event>
<event>
 5    1  0.1285375E-004  0.9118800E+02  0.7818608E-02  0.1130116E+00
         25   -1    0    0    0    0  0.00000000000E+00  0.00000000000E+00  0.99999998245E-14  0.12500000000E+03  0.12500000000E+03 0.  0.
        -13    1    3    3    0    0  0.16725083768E+02 -0.47063689245E+02 -0.32368598918E+02  0.59518540241E+02  0.10566000000E+00 0. -1.
         23    2    1    0    0    0  0.12846918170E+02 -0.11056340769E+02 -0.22074537086E+02  0.97168881351E+02  0.93097907269E+02 0.  0.
         13    1    3    3    0    0 -0.38781655979E+01  0.36007348476E+02  0.10294061833E+02  0.37650341111E+02  0.10566000000E+00 0.  1.
         22    1    1    0    0    0 -0.12846918170E+02  0.11056340769E+02  0.22074537086E+02  0.27831118649E+02  0.00000000000E+00 0. -1.
</event>
<event>
 5    1  0.1285375E-004  0.9118800E+02  0.7818608E-02  0.1130116E+00
         25   -1    0    0    0    0  0.00000000000E+00  0.00000000000E+00  0.99999998245E-14  0.12500000000E+03  0.12500000000E+03 0.  0.
        -13    1    3    3    0    0  0.37838464712E+02  0.29738301928E+02 -0.14419272172E+02  0.50239850590E+02  0.10566000000E+00 0.  1.
         23    2    1    0    0    0  0.14976909231E+02 -0.75783818044E+01 -0.24645323243E+02  0.95181689541E+02  0.90390388789E+02 0.  0.
         13    1    3    3    0    0 -0.22861555481E+02 -0.37316683732E+02 -0.10226051071E+02  0.44941838952E+02  0.10566000000E+00 0. -1.
         22    1    1    0    0    0 -0.14976909231E+02  0.75783818044E+01  0.24645323243E+02  0.29818310459E+02  0.00000000000E+00 0. -1.
</event>
<event>
 5    1  0.1285375E-004  0.9118800E+02  0.7818608E-02  0.1130116E+00
         25   -1    0    0    0    0  0.00000000000E+00  0.00000000000E+00  0.99999998245E-14  0.12500000000E+03  0.12500000000E+03 0.  0.
        -13    1    3    3    0    0  0.49302066757E+02  0.86907493638E+01 -0.29115272352E+02  0.57913151867E+02  0.10566000000E+00 0. -1.
         23    2    1    0    0    0  0.12929145155E+02  0.16460806777E+02 -0.19645365939E+02  0.96293531093E+02  0.91915084580E+02 0.  0.
         13    1    3    3    0    0 -0.36372921602E+02  0.77700574136E+01  0.94699064131E+01  0.38380379226E+02  0.10566000000E+00 0.  1.
         22    1    1    0    0    0 -0.12929145155E+02 -0.16460806777E+02  0.19645365939E+02  0.28706468907E+02  0.00000000000E+00 0. -1.
</event>
<event>
 5    1  0.1285375E-004  0.9118800E+02  0.7818608E-02  0.1130116E+00
         25   -1    0    0    0    0  0.00000000000E+00  0.00000000000E+00  0.99999998245E-14  0.12500000000E+03  0.12500000000E+03 0.  0.
        -13    1    3    3    0    0 -0.23797969808E+02 -0.44337414708E+02 -0.31834699379E+02  0.59545016236E+02  0.10566000000E+00 0.  1.
         23    2    1    0    0    0 -0.67332979559E+01 -0.14831189624E+02 -0.26282056223E+02  0.94079974672E+02  0.88853776892E+02 0.  0.
         13    1    3    3    0    0  0.17064671852E+02  0.29506225084E+02  0.55526431561E+01  0.34534958436E+02  0.10566000000E+00 0. -1.
         22    1    1    0    0    0  0.67332979559E+01  0.14831189624E+02  0.26282056223E+02  0.30920025328E+02  0.00000000000E+00 0.  1.
</event>
<event>
 5    1  0.1285375E-004  0.9118800E+02  0.7818608E-02  0.1130116E+00
         25   -1    0    0    0    0  0.00000000000E+00  0.00000000000E+00  0.99999998245E-14  0.12500000000E+03  0.12500000000E+03 0.  0.
        -13    1    3    3    0    0  0.49453222096E+02 -0.28256735700E+02  0.14244301499E+02  0.58710949382E+02  0.10566000000E+00 0. -1.
         23    2    1    0    0    0  0.20160915348E+02 -0.88552285585E+01  0.21093314299E+02  0.94507287943E+02  0.89452903730E+02 0.  0.
         13    1    3    3    0    0 -0.29292306748E+02  0.19401507141E+02  0.68490127999E+01  0.35796338561E+02  0.10566000000E+00 0.  1.
         22    1    1    0    0    0 -0.20160915348E+02  0.88552285585E+01 -0.21093314299E+02  0.30492712057E+02  0.00000000000E+00 0. -1.
</event>
<event>
 5    1  0.1285375E-004  0.9118800E+02  0.7818608E-02  0.1130116E+00
         25   -1    0    0    0    0  0.00000000000E+00  0.00000000000E+00  0.99999998245E-14  0.12500000000E+03  0.12500000000E+03 0.  0.
        -13    1    3    3    0    0  0.65063996684E+01 -0.23021190744E+01  0.60561935477E+02  0.60954016944E+02  0.10566000000E+00 0.  1.
         23    2    1    0    0    0 -0.49896375186E+01 -0.62175008048E+01  0.32596535403E+02  0.91442766516E+02  0.85062868686E+02 0.  0.
         13    1    3    3    0    0 -0.11496037187E+02 -0.39153817303E+01 -0.27965400074E+02  0.30488749572E+02  0.10566000000E+00 0. -1.
         22    1    1    0    0    0  0.49896375186E+01  0.62175008048E+01 -0.32596535403E+02  0.33557233484E+02  0.00000000000E+00 0.  1.
</event>
<event>
 5    1  0.1285375E-004  0.9118800E+02  0.7818608E-02  0.1130116E+00
         25   -1    0    0    0    0  0.00000000000E+00  0.00000000000E+00  0.99999998245E-14  0.12500000000E+03  0.12500000000E+03 0.  0.
        -13    1    3    3    0    0  0.29585711845E+01  0.45915997250E+02  0.30249979128E+01  0.46110668216E+02  0.10566000000E+00 0.  1.
         23    2    1    0    0    0 -0.14383201740E+02  0.63516682887E+01  0.25679809593E+02  0.94888991995E+02  0.89984709805E+02 0.  0.
         13    1    3    3    0    0 -0.17341772924E+02 -0.39564328962E+02  0.22654811680E+02  0.48778323779E+02  0.10566000000E+00 0. -1.
         22    1    1    0    0    0  0.14383201740E+02 -0.63516682887E+01 -0.25679809593E+02  0.30111008005E+02  0.00000000000E+00 0. -1.
</event>
<event>
 5    1  0.1285375E-004  0.9118800E+02  0.7818608E-02  0.1130116E+00
         25   -1    0    0    0    0  0.00000000000E+00  0.00000000000E+00  0.99999998245E-14  0.12500000000E+03  0.12500000000E+03 0.  0.
        -13    1    3    3    0    0 -0.13594825894E+01 -0.31532439858E+01 -0.36072681270E+02  0.36235902619E+02  0.10566000000E+00 0.  1.
         23    2    1    0    0    0 -0.20454170713E+02 -0.95301480360E+01  0.19395644775E+02  0.95244532311E+02  0.90477251714E+02 0.  0.
         13    1    3    3    0    0 -0.19094688123E+02 -0.63769040502E+01  0.55468326046E+02  0.59008629692E+02  0.10566000000E+00 0. -1.
         22    1    1    0    0    0  0.20454170713E+02  0.95301480360E+01 -0.19395644775E+02  0.29755467689E+02  0.00000000000E+00 0. -1.
</event>
<event>
 5    1  0.1285375E-004  0.9118800E+02  0.7818608E-02  0.1130116E+00
         25   -1    0    0    0    0  0.00000000000E+00  0.00000000000E+00  0.99999998245E-14  0.12500000000E+03  0.12500000000E+03 0.  0.
        -13    1    3    3    0    0 -0.48029583613E+02 -0.89414165256E+01  0.32665551190E+02  0.58769373232E+02  0.10566000000E+00 0.  1.
         23    2    1    0    0    0 -0.16345593580E+02  0.72622666388E+01  0.23407465686E+02  0.95541072727E+02  0.90886017526E+02 0.  0.
         13    1    3    3    0    0  0.31683990033E+02  0.16203683164E+02 -0.92580855042E+01  0.36771699495E+02  0.10566000000E+00 0. -1.
         22    1    1    0    0    0  0.16345593580E+02 -0.72622666388E+01 -0.23407465686E+02  0.29458927273E+02  0.00000000000E+00 0.  1.
</event>
<event>
 5    1  0.1285375E-004  0.9118800E+02  0.7818608E-02  0.1130116E+00
         25   -1    0    0    0    0  0.00000000000E+00  0.00000000000E+00  0.99999998245E-14  0.12500000000E+03  0.12500000000E+03 0.  0.
        -13    1    3    3    0    0 -0.24433282389E+02 -0.21255419694E+02 -0.48243830974E+02  0.58105563811E+02  0.10566000000E+00 0.  1.
         23    2    1    0    0    0 -0.78737882134E+01  0.53120351259E+01 -0.28114383573E+02  0.95324541761E+02  0.90587722349E+02 0.  0.
         13    1    3    3    0    0  0.16559494176E+02  0.26567454820E+02  0.20129447401E+02  0.37218977951E+02  0.10566000000E+00 0. -1.
         22    1    1    0    0    0  0.78737882134E+01 -0.53120351259E+01  0.28114383573E+02  0.29675458239E+02  0.00000000000E+00 0.  1.
</event>
<event>
 5    1  0.1285375E-004  0.9118800E+02  0.7818608E-02  0.1130116E+00
         25   -1    0    0    0    0  0.00000000000E+00  0.00000000000E+00  0.99999998245E-14  0.12500000000E+03  0.12500000000E+03 0.  0.
        -13    1    3    3    0    0 -0.30616372288E+02  0.35509623810E+02  0.15243443038E+02  0.49301818982E+02  0.10566000000E+00 0. -1.
         23    2    1    0    0    0 -0.29514650750E+02 -0.74598472658E+01  0.11534635048E+02  0.92445250180E+02  0.86523479733E+02 0.  0.
         13    1    3    3    0    0  0.11017215381E+01 -0.42969471075E+02 -0.37088079904E+01  0.43143431199E+02  0.10566000000E+00 0.  1.
         22    1    1    0    0    0  0.29514650750E+02  0.74598472658E+01 -0.11534635048E+02  0.32554749820E+02  0.00000000000E+00 0. -1.
</event>
<event>
 5    1  0.1285375E-004  0.9118800E+02  0.7818608E-02  0.1130116E+00
         25   -1    0    0    0    0  0.00000000000E+00  0.00000000000E+00  0.99999998245E-14  0.12500000000E+03  0.12500000000E+03 0.  0.
        -13    1    3    3    0    0 -0.18683694070E+02  0.96085403625E+00 -0.36808591666E+02  0.41290280322E+02  0.10566000000E+00 0.  1.
         23    2    1    0    0    0  0.11232802723E+02  0.26504979748E+02  0.14654777849E+01  0.96175749211E+02  0.91754767193E+02 0.  0.
         13    1    3    3    0    0  0.29916496793E+02  0.25544125711E+02  0.38274069451E+02  0.54885468889E+02  0.10566000000E+00 0. -1.
         22    1    1    0    0    0 -0.11232802723E+02 -0.26504979748E+02 -0.14654777849E+01  0.28824250789E+02  0.00000000000E+00 0. -1.
</event>
<event>
 5    1  0.1285375E-004  0.9118800E+02  0.7818608E-02  0.1130116E+00
         25   -1    0    0    0    0  0.00000000000E+00  0.00000000000E+00  0.99999998245E-14  0.12500000000E+03  0.12500000000E+03 0.  0.
        -13    1    3    3    0    0  0.24315412666E+01 -0.36288822676E+02 -0.48843606357E+02  0.60897455531E+02  0.10566000000E+00 0.  1.
         23    2    1    0    0    0  0.91695459018E+01 -0.20928405335E+02 -0.18371104474E+02  0.95681469998E+02  0.91078908093E+02 0.  0.
         13    1    3    3    0    0  0.67380046352E+01  0.15360417341E+02  0.30472501883E+02  0.34784014467E+02  0.10566000000E+00 0. -1.
         22    1    1    0    0    0 -0.91695459018E+01  0.20928405335E+02  0.18371104474E+02  0.29318530002E+02  0.00000000000E+00 0.  1.
</event>
<event>
 5    1  0.1285375E-004  0.9118800E+02  0.7818608E-02  0.1130116E+00
         25   -1    0    0    0    0  0.00000000000E+00  0.00000000000E+00  0.99999998245E-14  0.12500000000E+03  0.12500000000E+03 0.  0.
        -13    1    3    3    0    0  0.56463729987E+02  0.21899043932E+02 -0.71107265349E+01  0.60977819943E+02  0.10566000000E+00 0. -1.
         23    2    1    0    0    0  0.26363276371E+02  0.69829292756E+01 -0.12497121145E+02  0.95000638686E+02  0.90139667581E+02 0.  0.
         13    1    3    3    0    0 -0.30100453615E+02 -0.14916114657E+02 -0.53863946104E+01  0.34022818743E+02  0.10566000000E+00 0.  1.
         22    1    1    0    0    0 -0.26363276371E+02 -0.69829292756E+01  0.12497121145E+02  0.29999361314E+02  0.00000000000E+00 0. -1.
</event>
<event>
 5    1  0.1285375E-004  0.9118800E+02  0.7818608E-02  0.1130116E+00
         25   -1    0    0    0    0  0.00000000000E+00  0.00000000000E+00  0.99999998245E-14  0.12500000000E+03  0.12500000000E+03 0.  0.
        -13    1    3    3    0    0  0.34702891077E+02  0.96219909557E+01 -0.49924331820E+01  0.36356690061E+02  0.10566000000E+00 0. -1.
         23    2    1    0    0    0 -0.23443872634E+02  0.87894295966E+01 -0.15644141030E+02  0.95476985498E+02  0.90797832433E+02 0.  0.
         13    1    3    3    0    0 -0.58146763711E+02 -0.83256135904E+00 -0.10651707848E+02  0.59120295437E+02  0.10566000000E+00 0.  1.
         22    1    1    0    0    0  0.23443872634E+02 -0.87894295966E+01  0.15644141030E+02  0.29523014502E+02  0.00000000000E+00 0.  1.
</event>
<event>
 5    1  0.1285375E-004  0.9118800E+02  0.7818608E-02  0.1130116E+00
         25   -1    0    0    0    0  0.00000000000E+00  0.00000000000E+00  0.99999998245E-14  0.12500000000E+03  0.12500000000E+03 0.  0.
        -13    1    3    3    0    0 -0.37272954441E+02 -0.31413242362E+02 -0.18140231508E+02  0.52010999718E+02  0.10566000000E+00 0.  1.
         23    2    1    0    0    0 -0.32666565338E+02 -0.36439923165E+02  0.46895381367E+01  0.75837369281E+02  0.57743764340E+02 0.  0.
         13    1    3    3    0    0  0.46063891025E+01 -0.50266808030E+01  0.22829769645E+02  0.23826369563E+02  0.10566000000E+00 0. -1.
         22    1    1    0    0    0  0.32666565338E+02  0.36439923165E+02 -0.46895381367E+01  0.49162630719E+02  0.00000000000E+00 0.  1.
</event>
<event>
 5    1  0.1285375E-004  0.9118800E+02  0.7818608E-02  0.1130116E+00
         25   -1    0    0    0    0  0.00000000000E+00  0.00000000000E+00  0.99999998245E-14  0.12500000000E+03  0.12500000000E+03 0.  0.
        -13    1    3    3    0    0  0.32975690437E+02  0.21145194486E+02 -0.30521759134E+02  0.49659886773E+02  0.10566000000E+00 0. -1.
         23    2    1    0    0    0  0.56667337694E+01  0.29497470046E+02  0.42590161202E+01  0.94662699048E+02  0.89669809646E+02 0.  0.
         13    1    3    3    0    0 -0.27308956668E+02  0.83522755604E+01  0.34780775254E+02  0.45002812275E+02  0.10566000000E+00 0.  1.
         22    1    1    0    0    0 -0.56667337694E+01 -0.29497470046E+02 -0.42590161202E+01  0.30337300952E+02  0.00000000000E+00 0. -1.
</event>
<event>
 5    1  0.1285375E-004  0.9118800E+02  0.7818608E-02  0.1130116E+00
         25   -1    0    0    0    0  0.00000000000E+00  0.00000000000E+00  0.99999998245E-14  0.12500000000E+03  0.12500000000E+03 0.  0.
        -13    1    3    3    0    0  0.45860187020E+02 -0.16881004789E+02 -0.32653850294E+00  0.48869651805E+02  0.10566000000E+00 0. -1.
         23    2    1    0    0    0  0.17395354535E+02  0.16040780053E+02  0.17157752824E+02  0.95771700938E+02  0.91202660237E+02 0.  0.
         13    1    3    3    0    0 -0.28464832484E+02  0.32921784842E+02  0.17484291327E+02  0.46902049132E+02  0.10566000000E+00 0.  1.
         22    1    1    0    0    0 -0.17395354535E+02 -0.16040780053E+02 -0.17157752824E+02  0.29228299062E+02  0.00000000000E+00 0. -1.
</event>
<event>
 5    1  0.1285375E-004  0.9118800E+02  0.7818608E-02  0.1130116E+00
         25   -1    0    0    0    0  0.00000000000E+00  0.00000000000E+00  0.99999998245E-14  0.12500000000E+03  0.12500000000E+03 0.  0.
        -13    1    3    3    0    0  0.48543635013E+02  0.30488935967E+01 -0.15626442681E+02  0.51087935242E+02  0.10566000000E+00 0.  1.
         23    2    1    0    0    0  0.77851411781E+01  0.16597045090E+02 -0.23950866808E+02  0.94838528720E+02  0.89914582689E+02 0.  0.
         13    1    3    3    0    0 -0.40758493835E+02  0.13548151493E+02 -0.83244241275E+01  0.43750593478E+02  0.10566000000E+00 0. -1.
         22    1    1    0    0    0 -0.77851411781E+01 -0.16597045090E+02  0.23950866808E+02  0.30161471280E+02  0.00000000000E+00 0.  1.
</event>
<event>
 5    1  0.1285375E-004  0.9118800E+02  0.7818608E-02  0.1130116E+00
         25   -1    0    0    0    0  0.00000000000E+00  0.00000000000E+00  0.99999998245E-14  0.12500000000E+03  0.12500000000E+03 0.  0.
        -13    1    3    3    0    0  0.18576703311E+02 -0.22074909516E+02 -0.38308292926E+02  0.47957606352E+02  0.10566000000E+00 0. -1.
         23    2    1    0    0    0  0.12962482471E+01  0.19380349798E+02 -0.21784551283E+02  0.95813618032E+02  0.91260092636E+02 0.  0.
         13    1    3    3    0    0 -0.17280455064E+02  0.41455259314E+02  0.16523741643E+02  0.47856011680E+02  0.10566000000E+00 0.  1.
         22    1    1    0    0    0 -0.12962482471E+01 -0.19380349798E+02  0.21784551283E+02  0.29186381968E+02  0.00000000000E+00 0. -1.
</event>
<event>
 5    1  0.1285375E-004  0.9118800E+02  0.7818608E-02  0.1130116E+00
         25   -1    0    0    0    0  0.00000000000E+00  0.00000000000E+00  0.99999998245E-14  0.12500000000E+03  0.12500000000E+03 0.  0.
        -13    1    3    3    0    0  0.41885928943E+02  0.14982977703E+02  0.30751737881E+02  0.54079582200E+02  0.10566000000E+00 0.  1.
         23    2    1    0    0    0  0.42399843492E+01 -0.10946423350E+01  0.29648372930E+02  0.95029986211E+02  0.90180355692E+02 0.  0.
         13    1    3    3    0    0 -0.37645944593E+02 -0.16077620038E+02 -0.11033649512E+01  0.40950404011E+02  0.10566000000E+00 0. -1.
         22    1    1    0    0    0 -0.42399843492E+01  0.10946423350E+01 -0.29648372930E+02  0.29970013789E+02  0.00000000000E+00 0.  1.
</event>
<event>
 5    1  0.1285375E-004  0.9118800E+02  0.7818608E-02  0.1130116E+00
         25   -1    0    0    0    0  0.00000000000E+00  0.00000000000E+00  0.99999998245E-14  0.12500000000E+03  0.12500000000E+03 0.  0.
        -13    1    3    3    0    0  0.19660833426E+02  0.38883857339E+02 -0.36075189006E+02  0.56567951690E+02  0.10566000000E+00 0. -1.
         23    2    1    0    0    0  0.21920069955E+02  0.19912432538E+02 -0.23957985130E+01  0.95289155399E+02  0.90538880320E+02 0.  0.
         13    1    3    3    0    0  0.22592365295E+01 -0.18971424801E+02  0.33679390492E+02  0.38721203709E+02  0.10566000000E+00 0.  1.
         22    1    1    0    0    0 -0.21920069955E+02 -0.19912432538E+02  0.23957985130E+01  0.29710844601E+02  0.00000000000E+00 0. -1.
</event>
<event>
 5    1  0.1285375E-004  0.9118800E+02  0.7818608E-02  0.1130116E+00
         25   -1    0    0    0    0  0.00000000000E+00  0.00000000000E+00  0.99999998245E-14  0.12500000000E+03  0.12500000000E+03 0.  0.
        -13    1    3    3    0    0 -0.49342614563E+02  0.15890698553E+02 -0.22755370710E+02  0.56612948806E+02  0.10566000000E+00 0. -1.
         23    2    1    0    0    0 -0.18503161523E+02  0.43684650374E+01 -0.29196693401E+02  0.90158969897E+02  0.83154930546E+02 0.  0.
         13    1    3    3    0    0  0.30839453040E+02 -0.11522233515E+02 -0.64413226911E+01  0.33546021091E+02  0.10566000000E+00 0.  1.
         22    1    1    0    0    0  0.18503161523E+02 -0.43684650374E+01  0.29196693401E+02  0.34841030103E+02  0.00000000000E+00 0.  1.
</event>
<event>
 5    1  0.1285375E-004  0.9118800E+02  0.7818608E-02  0.1130116E+00
         25   -1    0    0    0    0  0.00000000000E+00  0.00000000000E+00  0.99999998245E-14  0.12500000000E+03  0.12500000000E+03 0.  0.
        -13    1    3    3    0    0  0.46070664762E+01 -0.38842849411E+02 -0.31418488421E+02  0.50170953655E+02  0.10566000000E+00 0.  1.
         23    2    1    0    0    0 -0.24546454076E+02 -0.12690811606E+02 -0.64289381134E+01  0.96628952219E+02  0.92370114510E+02 0.  0.
         13    1    3    3    0    0 -0.29153520553E+02  0.26152037805E+02  0.24989550308E+02  0.46457998564E+02  0.10566000000E+00 0. -1.
         22    1    1    0    0    0  0.24546454076E+02  0.12690811606E+02  0.64289381134E+01  0.28371047781E+02  0.00000000000E+00 0.  1.
</event>
<event>
 5    1  0.1285375E-004  0.9118800E+02  0.7818608E-02  0.1130116E+00
         25   -1    0    0    0    0  0.00000000000E+00  0.00000000000E+00  0.99999998245E-14  0.12500000000E+03  0.12500000000E+03 0.  0.
        -13    1    3    3    0    0 -0.38332246792E+02  0.23560625868E+02 -0.23227873643E+02  0.50636049545E+02  0.10566000000E+00 0. -1.
         23    2    1    0    0    0 -0.24926551857E+02 -0.63535966170E+00  0.13523430112E+02  0.96634178465E+02  0.92377186666E+02 0.  0.
         13    1    3    3    0    0  0.13405694935E+02 -0.24195985530E+02  0.36751303755E+02  0.45998128920E+02  0.10566000000E+00 0.  1.
         22    1    1    0    0    0  0.24926551857E+02  0.63535966170E+00 -0.13523430112E+02  0.28365821535E+02  0.00000000000E+00 0.  1.
</event>
<event>
 5    1  0.1285375E-004  0.9118800E+02  0.7818608E-02  0.1130116E+00
         25   -1    0    0    0    0  0.00000000000E+00  0.00000000000E+00  0.99999998245E-14  0.12500000000E+03  0.12500000000E+03 0.  0.
        -13    1    3    3    0    0  0.32148224895E+02 -0.33548803737E+02  0.21619124936E+02  0.51248690940E+02  0.10566000000E+00 0.  1.
         23    2    1    0    0    0  0.27128590266E+02  0.76901739866E+01  0.34477184808E+01  0.96592501897E+02  0.92320774879E+02 0.  0.
         13    1    3    3    0    0 -0.50196346293E+01  0.41238977723E+02 -0.18171406455E+02  0.45343810957E+02  0.10566000000E+00 0. -1.
         22    1    1    0    0    0 -0.27128590266E+02 -0.76901739866E+01 -0.34477184808E+01  0.28407498103E+02  0.00000000000E+00 0.  1.
</event>
<event>
 5    1  0.1285375E-004  0.9118800E+02  0.7818608E-02  0.1130116E+00
         25   -1    0    0    0    0  0.00000000000E+00  0.00000000000E+00  0.99999998245E-14  0.12500000000E+03  0.12500000000E+03 0.  0.
        -13    1    3    3    0    0 -0.16112803740E+01  0.41088131772E+02 -0.45939680017E+02  0.61654652388E+02  0.10566000000E+00 0. -1.
         23    2    1    0    0    0  0.43525890972E+01  0.15684234700E+02 -0.25259191956E+02  0.94950590218E+02  0.90070236785E+02 0.  0.
         13    1    3    3    0    0  0.59638694712E+01 -0.25403897072E+02  0.20680488061E+02  0.33295937830E+02  0.10566000000E+00 0.  1.
         22    1    1    0    0    0 -0.43525890972E+01 -0.15684234700E+02  0.25259191956E+02  0.30049409782E+02  0.00000000000E+00 0. -1.
</event>
<event>
 5    1  0.1285375E-004  0.9118800E+02  0.7818608E-02  0.1130116E+00
         25   -1    0    0    0    0  0.00000000000E+00  0.00000000000E+00  0.99999998245E-14  0.12500000000E+03  0.12500000000E+03 0.  0.
        -13    1    3    3    0    0  0.23646235030E+02  0.20024544300E+02  0.21802409171E+02  0.37887768676E+02  0.10566000000E+00 0. -1.
         23    2    1    0    0    0  0.25091148810E+02 -0.16552689700E+02 -0.16367240859E+02  0.90773637964E+02  0.84073833569E+02 0.  0.
         13    1    3    3    0    0  0.14449137795E+01 -0.36577234000E+02 -0.38169650030E+02  0.52885869288E+02  0.10566000000E+00 0.  1.
         22    1    1    0    0    0 -0.25091148810E+02  0.16552689700E+02  0.16367240859E+02  0.34226362036E+02  0.00000000000E+00 0.  1.
</event>
<event>
 5    1  0.1285375E-004  0.9118800E+02  0.7818608E-02  0.1130116E+00
         25   -1    0    0    0    0  0.00000000000E+00  0.00000000000E+00  0.99999998245E-14  0.12500000000E+03  0.12500000000E+03 0.  0.
        -13    1    3    3    0    0  0.52917687445E+02 -0.22941769553E+02 -0.23295457836E+02  0.62203665121E+02  0.10566000000E+00 0. -1.
         23    2    1    0    0    0  0.33528425991E+02 -0.10337872986E+02 -0.15862579962E+02  0.86494826187E+02  0.77451317269E+02 0.  0.
         13    1    3    3    0    0 -0.19389261454E+02  0.12603896567E+02  0.74328778734E+01  0.24291161065E+02  0.10566000000E+00 0.  1.
         22    1    1    0    0    0 -0.33528425991E+02  0.10337872986E+02  0.15862579962E+02  0.38505173813E+02  0.00000000000E+00 0. -1.
</event>
<event>
 5    1  0.1285375E-004  0.9118800E+02  0.7818608E-02  0.1130116E+00
         25   -1    0    0    0    0  0.00000000000E+00  0.00000000000E+00  0.99999998245E-14  0.12500000000E+03  0.12500000000E+03 0.  0.
        -13    1    3    3    0    0 -0.10845445271E+02  0.23212670797E+02  0.43273938562E+02  0.50290125187E+02  0.10566000000E+00 0. -1.
         23    2    1    0    0    0  0.97999634778E+01 -0.14719160551E+02  0.13670657489E+02  0.10264871709E+03  0.10018572390E+03 0.  0.
         13    1    3    3    0    0  0.20645408749E+02 -0.37931831348E+02 -0.29603281073E+02  0.52358591903E+02  0.10566000000E+00 0.  1.
         22    1    1    0    0    0 -0.97999634778E+01  0.14719160551E+02 -0.13670657489E+02  0.22351282909E+02  0.00000000000E+00 0. -1.
</event>
<event>
 5    1  0.1285375E-004  0.9118800E+02  0.7818608E-02  0.1130116E+00
         25   -1    0    0    0    0  0.00000000000E+00  0.00000000000E+00  0.99999998245E-14  0.12500000000E+03  0.12500000000E+03 0.  0.
        -13    1    3    3    0    0 -0.19823850597E+01  0.18499436926E+02  0.31004760064E+02  0.36158890024E+02  0.10566000000E+00 0. -1.
         23    2    1    0    0    0 -0.10291316227E+02 -0.27653921758E+02 -0.47282787185E+01  0.95116773971E+02  0.90300573048E+02 0.  0.
         13    1    3    3    0    0 -0.83089311676E+01 -0.46153358683E+02 -0.35733038782E+02  0.58957883947E+02  0.10566000000E+00 0.  1.
         22    1    1    0    0    0  0.10291316227E+02  0.27653921758E+02  0.47282787185E+01  0.29883226029E+02  0.00000000000E+00 0.  1.
</event>
<event>
 5    1  0.1285375E-004  0.9118800E+02  0.7818608E-02  0.1130116E+00
         25   -1    0    0    0    0  0.00000000000E+00  0.00000000000E+00  0.99999998245E-14  0.12500000000E+03  0.12500000000E+03 0.  0.
        -13    1    3    3    0    0  0.26555513358E+02 -0.43320393567E+02  0.19322710223E+02  0.54362027950E+02  0.10566000000E+00 0.  1.
         23    2    1    0    0    0 -0.76531057852E+00 -0.15793999864E+02  0.26822225924E+02  0.93863719947E+02  0.88549025894E+02 0.  0.
         13    1    3    3    0    0 -0.27320823936E+02  0.27526393703E+02  0.74995157015E+01  0.39501691997E+02  0.10566000000E+00 0. -1.
         22    1    1    0    0    0  0.76531057852E+00  0.15793999864E+02 -0.26822225924E+02  0.31136280053E+02  0.00000000000E+00 0.  1.
</event>
<event>
 5    1  0.1285375E-004  0.9118800E+02  0.7818608E-02  0.1130116E+00
         25   -1    0    0    0    0  0.00000000000E+00  0.00000000000E+00  0.99999998245E-14  0.12500000000E+03  0.12500000000E+03 0.  0.
        -13    1    3    3    0    0 -0.13749045337E+02 -0.25832105123E+02 -0.96218455158E+01  0.30804625917E+02  0.10566000000E+00 0. -1.
         23    2    1    0    0    0  0.22477026724E+02  0.69505241615E+01  0.24988426221E+02  0.90678753497E+02  0.83932641888E+02 0.  0.
         13    1    3    3    0    0  0.36226072061E+02  0.32782629284E+02  0.34610271737E+02  0.59874127580E+02  0.10566000000E+00 0.  1.
         22    1    1    0    0    0 -0.22477026724E+02 -0.69505241615E+01 -0.24988426221E+02  0.34321246503E+02  0.00000000000E+00 0.  1.
</event>
<event>
 5    1  0.1285375E-004  0.9118800E+02  0.7818608E-02  0.1130116E+00
         25   -1    0    0    0    0  0.00000000000E+00  0.00000000000E+00  0.99999998245E-14  0.12500000000E+03  0.12500000000E+03 0.  0.
        -13    1    3    3    0    0  0.41787786222E+02  0.24011557355E+01 -0.37850946055E+02  0.56433056869E+02  0.10566000000E+00 0. -1.
         23    2    1    0    0    0  0.80369255103E+01 -0.13048933712E+02 -0.24928707099E+02  0.95737271482E+02  0.91155459906E+02 0.  0.
         13    1    3    3    0    0 -0.33750860712E+02 -0.15450089447E+02  0.12922238956E+02  0.39304214614E+02  0.10566000000E+00 0.  1.
         22    1    1    0    0    0 -0.80369255103E+01  0.13048933712E+02  0.24928707099E+02  0.29262728518E+02  0.00000000000E+00 0. -1.
</event>
<event>
 5    1  0.1285375E-004  0.9118800E+02  0.7818608E-02  0.1130116E+00
         25   -1    0    0    0    0  0.00000000000E+00  0.00000000000E+00  0.99999998245E-14  0.12500000000E+03  0.12500000000E+03 0.  0.
        -13    1    3    3    0    0 -0.17893756214E+01 -0.58250783744E+01 -0.39818621558E+02  0.40282343402E+02  0.10566000000E+00 0. -1.
         23    2    1    0    0    0 -0.25625740249E+02 -0.74054938752E+01  0.10774470427E+02  0.96231803743E+02  0.91831100047E+02 0.  0.
         13    1    3    3    0    0 -0.23836364628E+02 -0.15804155008E+01  0.50593091985E+02  0.55949460341E+02  0.10566000000E+00 0.  1.
         22    1    1    0    0    0  0.25625740249E+02  0.74054938752E+01 -0.10774470427E+02  0.28768196257E+02  0.00000000000E+00 0.  1.
</event>
<event>
 5    1  0.1285375E-004  0.9118800E+02  0.7818608E-02  0.1130116E+00
         25   -1    0    0    0    0  0.00000000000E+00  0.00000000000E+00  0.99999998245E-14  0.12500000000E+03  0.12500000000E+03 0.  0.
        -13    1    3    3    0    0 -0.48295963137E+02  0.36491992441E+02 -0.25503481558E+01  0.60586145342E+02  0.10566000000E+00 0.  1.
         23    2    1    0    0    0 -0.27700385011E+02  0.74720245190E+01 -0.28041715448E+01  0.96172827779E+02  0.91750787162E+02 0.  0.
         13    1    3    3    0    0  0.20595578126E+02 -0.29019967922E+02 -0.25382338910E+00  0.35586682437E+02  0.10566000000E+00 0. -1.
         22    1    1    0    0    0  0.27700385011E+02 -0.74720245190E+01  0.28041715448E+01  0.28827172221E+02  0.00000000000E+00 0.  1.
</event>
<event>
 5    1  0.1285375E-004  0.9118800E+02  0.7818608E-02  0.1130116E+00
         25   -1    0    0    0    0  0.00000000000E+00  0.00000000000E+00  0.99999998245E-14  0.12500000000E+03  0.12500000000E+03 0.  0.
        -13    1    3    3    0    0  0.19827198104E+02  0.56201952176E+01  0.58752135532E+02  0.62261777781E+02  0.10566000000E+00 0. -1.
         23    2    1    0    0    0  0.10020417189E+02 -0.10144336366E+01  0.29908693057E+02  0.93441043163E+02  0.87950331385E+02 0.  0.
         13    1    3    3    0    0 -0.98067809143E+01 -0.66346288542E+01 -0.28843442474E+02  0.31179265382E+02  0.10566000000E+00 0.  1.
         22    1    1    0    0    0 -0.10020417189E+02  0.10144336366E+01 -0.29908693057E+02  0.31558956837E+02  0.00000000000E+00 0. -1.
</event>
<event>
 5    1  0.1285375E-004  0.9118800E+02  0.7818608E-02  0.1130116E+00
         25   -1    0    0    0    0  0.00000000000E+00  0.00000000000E+00  0.99999998245E-14  0.12500000000E+03  0.12500000000E+03 0.  0.
        -13    1    3    3    0    0 -0.35149855737E+02  0.12831598288E+02  0.26387724297E+02  0.45787393796E+02  0.10566000000E+00 0. -1.
         23    2    1    0    0    0 -0.18329318603E+02  0.16411815075E+02 -0.18734606601E+02  0.94075946595E+02  0.88848109989E+02 0.  0.
         13    1    3    3    0    0  0.16820537134E+02  0.35802167868E+01 -0.45122330898E+02  0.48288552799E+02  0.10566000000E+00 0.  1.
         22    1    1    0    0    0  0.18329318603E+02 -0.16411815075E+02  0.18734606601E+02  0.30924053405E+02  0.00000000000E+00 0.  1.
</event>
<event>
 5    1  0.1285375E-004  0.9118800E+02  0.7818608E-02  0.1130116E+00
         25   -1    0    0    0    0  0.00000000000E+00  0.00000000000E+00  0.99999998245E-14  0.12500000000E+03  0.12500000000E+03 0.  0.
        -13    1    3    3    0    0  0.26142988969E+02 -0.75892755881E+01  0.43547289005E+02  0.51355920009E+02  0.10566000000E+00 0.  1.
         23    2    1    0    0    0  0.28534912744E+02  0.13868530564E+02  0.91284623785E+01  0.91986272390E+02  0.85857836552E+02 0.  0.
         13    1    3    3    0    0  0.23919237752E+01  0.21457806153E+02 -0.34418826627E+02  0.40630352381E+02  0.10566000000E+00 0. -1.
         22    1    1    0    0    0 -0.28534912744E+02 -0.13868530564E+02 -0.91284623785E+01  0.33013727610E+02  0.00000000000E+00 0.  1.
</event>
<event>
 5    1  0.1285375E-004  0.9118800E+02  0.7818608E-02  0.1130116E+00
         25   -1    0    0    0    0  0.00000000000E+00  0.00000000000E+00  0.99999998245E-14  0.12500000000E+03  0.12500000000E+03 0.  0.
        -13    1    3    3    0    0 -0.11850297127E+02  0.23851211872E+02  0.33640741131E+02  0.42907114534E+02  0.10566000000E+00 0. -1.
         23    2    1    0    0    0 -0.21146653402E+02 -0.19571309160E+02  0.49807992288E+01  0.95759181727E+02  0.91185500118E+02 0.  0.
         13    1    3    3    0    0 -0.92963562753E+01 -0.43422521031E+02 -0.28659941902E+02  0.52852067193E+02  0.10566000000E+00 0.  1.
         22    1    1    0    0    0  0.21146653402E+02  0.19571309160E+02 -0.49807992288E+01  0.29240818273E+02  0.00000000000E+00 0.  1.
</event>
<event>
 5    1  0.1285375E-004  0.9118800E+02  0.7818608E-02  0.1130116E+00
         25   -1    0    0    0    0  0.00000000000E+00  0.00000000000E+00  0.99999998245E-14  0.12500000000E+03  0.12500000000E+03 0.  0.
        -13    1    3    3    0    0 -0.13277903398E+02 -0.65578642991E+01 -0.40810021558E+02  0.43414022233E+02  0.10566000000E+00 0. -1.
         23    2    1    0    0    0  0.26621169382E+02 -0.98285189995E+01 -0.71046421893E+01  0.95746583352E+02  0.91168228226E+02 0.  0.
         13    1    3    3    0    0  0.39899072780E+02 -0.32706547005E+01  0.33705379369E+02  0.52332561119E+02  0.10566000000E+00 0.  1.
         22    1    1    0    0    0 -0.26621169382E+02  0.98285189995E+01  0.71046421893E+01  0.29253416648E+02  0.00000000000E+00 0. -1.
</event>
<event>
 5    1  0.1285375E-004  0.9118800E+02  0.7818608E-02  0.1130116E+00
         25   -1    0    0    0    0  0.00000000000E+00  0.00000000000E+00  0.99999998245E-14  0.12500000000E+03  0.12500000000E+03 0.  0.
        -13    1    3    3    0    0  0.31304519779E+02  0.50614484459E+02 -0.12171355969E+02  0.60744975643E+02  0.10566000000E+00 0. -1.
         23    2    1    0    0    0  0.15675251538E+02  0.21195353828E+02 -0.15816819666E+02  0.94257060664E+02  0.89102554206E+02 0.  0.
         13    1    3    3    0    0 -0.15629268241E+02 -0.29419130632E+02 -0.36454636966E+01  0.33512085021E+02  0.10566000000E+00 0.  1.
         22    1    1    0    0    0 -0.15675251538E+02 -0.21195353828E+02  0.15816819666E+02  0.30742939336E+02  0.00000000000E+00 0. -1.
</event>
<event>
 5    1  0.1285375E-004  0.9118800E+02  0.7818608E-02  0.1130116E+00
         25   -1    0    0    0    0  0.00000000000E+00  0.00000000000E+00  0.99999998245E-14  0.12500000000E+03  0.12500000000E+03 0.  0.
        -13    1    3    3    0    0 -0.43804196975E+02 -0.22388622948E+02 -0.19017662794E+02  0.52742210537E+02  0.10566000000E+00 0. -1.
         23    2    1    0    0    0 -0.20404101501E+02 -0.91391052133E+01  0.16443826479E+02  0.97246621261E+02  0.93202228059E+02 0.  0.
         13    1    3    3    0    0  0.23400095474E+02  0.13249517734E+02  0.35461489273E+02  0.44504410724E+02  0.10566000000E+00 0.  1.
         22    1    1    0    0    0  0.20404101501E+02  0.91391052133E+01 -0.16443826479E+02  0.27753378739E+02  0.00000000000E+00 0. -1.
</event>
<event>
 5    1  0.1285375E-004  0.9118800E+02  0.7818608E-02  0.1130116E+00
         25   -1    0    0    0    0  0.00000000000E+00  0.00000000000E+00  0.99999998245E-14  0.12500000000E+03  0.12500000000E+03 0.  0.
        -13    1    3    3    0    0 -0.17319801707E+02  0.40439455022E+02 -0.19579098356E+02  0.48152645931E+02  0.10566000000E+00 0.  1.
         23    2    1    0    0    0 -0.27826829034E+02  0.50244346315E+01  0.95046256731E+01  0.95168552388E+02  0.90372219719E+02 0.  0.
         13    1    3    3    0    0 -0.10507027327E+02 -0.35415020391E+02  0.29083724029E+02  0.47015906457E+02  0.10566000000E+00 0. -1.
         22    1    1    0    0    0  0.27826829034E+02 -0.50244346315E+01 -0.95046256731E+01  0.29831447612E+02  0.00000000000E+00 0. -1.
</event>
<event>
 5    1  0.1285375E-004  0.9118800E+02  0.7818608E-02  0.1130116E+00
         25   -1    0    0    0    0  0.00000000000E+00  0.00000000000E+00  0.99999998245E-14  0.12500000000E+03  0.12500000000E+03 0.  0.
        -13    1    3    3    0    0 -0.13829887935E+02 -0.34687641257E+02 -0.26712964260E+02  0.45913961709E+02  0.10566000000E+00 0. -1.
         23    2    1    0    0    0  0.18523297012E+02  0.34046460149E+01 -0.21888991205E+02  0.96123849241E+02  0.91684035198E+02 0.  0.
         13    1    3    3    0    0  0.32353184947E+02  0.38092287272E+02  0.48239730550E+01  0.50209887532E+02  0.10566000000E+00 0.  1.
         22    1    1    0    0    0 -0.18523297012E+02 -0.34046460149E+01  0.21888991205E+02  0.28876150759E+02  0.00000000000E+00 0.  1.
</event>
<event>
 5    1  0.1285375E-004  0.9118800E+02  0.7818608E-02  0.1130116E+00
         25   -1    0    0    0    0  0.00000000000E+00  0.00000000000E+00  0.99999998245E-14  0.12500000000E+03  0.12500000000E+03 0.  0.
        -13    1    3    3    0    0 -0.11374951889E+02 -0.10378378159E+02  0.35102675478E+02  0.38331569932E+02  0.10566000000E+00 0.  1.
         23    2    1    0    0    0 -0.91736065494E+01  0.26396157517E+02 -0.88550421674E+01  0.95685772046E+02  0.91084812189E+02 0.  0.
         13    1    3    3    0    0  0.22013453400E+01  0.36774535676E+02 -0.43957717646E+02  0.57354202114E+02  0.10566000000E+00 0. -1.
         22    1    1    0    0    0  0.91736065494E+01 -0.26396157517E+02  0.88550421674E+01  0.29314227954E+02  0.00000000000E+00 0. -1.
</event>
<event>
 5    1  0.1285375E-004  0.9118800E+02  0.7818608E-02  0.1130116E+00
         25   -1    0    0    0    0  0.00000000000E+00  0.00000000000E+00  0.99999998245E-14  0.12500000000E+03  0.12500000000E+03 0.  0.
        -13    1    3    3    0    0  0.39067853743E+02 -0.55939983428E+01 -0.26574289838E+02  0.47579344867E+02  0.10566000000E+00 0.  1.
         23    2    1    0    0    0  0.20683267712E+01 -0.28268190291E+02 -0.43816314162E+01  0.96319566742E+02  0.91950484966E+02 0.  0.
         13    1    3    3    0    0 -0.36999526971E+02 -0.22674191949E+02  0.22192658422E+02  0.48740221876E+02  0.10566000000E+00 0. -1.
         22    1    1    0    0    0 -0.20683267712E+01  0.28268190291E+02  0.43816314162E+01  0.28680433258E+02  0.00000000000E+00 0. -1.
</event>
<event>
 5    1  0.1285375E-004  0.9118800E+02  0.7818608E-02  0.1130116E+00
         25   -1    0    0    0    0  0.00000000000E+00  0.00000000000E+00  0.99999998245E-14  0.12500000000E+03  0.12500000000E+03 0.  0.
        -13    1    3    3    0    0 -0.51286276065E+02 -0.22842848987E+02 -0.48317006844E+01  0.56350992520E+02  0.10566000000E+00 0.  1.
         23    2    1    0    0    0 -0.13595509876E+02 -0.21596129757E+02 -0.14986275235E+02  0.95405758083E+02  0.90699721723E+02 0.  0.
         13    1    3    3    0    0  0.37690766190E+02  0.12467192300E+01 -0.10154574551E+02  0.39054765562E+02  0.10566000000E+00 0. -1.
         22    1    1    0    0    0  0.13595509876E+02  0.21596129757E+02  0.14986275235E+02  0.29594241917E+02  0.00000000000E+00 0.  1.
</event>
<event>
 5    1  0.1285375E-004  0.9118800E+02  0.7818608E-02  0.1130116E+00
         25   -1    0    0    0    0  0.00000000000E+00  0.00000000000E+00  0.99999998245E-14  0.12500000000E+03  0.12500000000E+03 0.  0.
        -13    1    3    3    0    0 -0.78148147811E+01 -0.20330065335E+02  0.26290190598E+02  0.34140418455E+02  0.10566000000E+00 0.  1.
         23    2    1    0    0    0  0.12174674448E+02  0.77887552336E+01 -0.25099459045E+02  0.96036743098E+02  0.91565199582E+02 0.  0.
         13    1    3    3    0    0  0.19989489229E+02  0.28118820569E+02 -0.51389649643E+02  0.61896324643E+02  0.10566000000E+00 0. -1.
         22    1    1    0    0    0 -0.12174674448E+02 -0.77887552336E+01  0.25099459045E+02  0.28963256902E+02  0.00000000000E+00 0. -1.
</event>
<event>
 5    1  0.1285375E-004  0.9118800E+02  0.7818608E-02  0.1130116E+00
         25   -1    0    0    0    0  0.00000000000E+00  0.00000000000E+00  0.99999998245E-14  0.12500000000E+03  0.12500000000E+03 0.  0.
        -13    1    3    3    0    0 -0.33093519693E+02  0.38177669208E+02  0.15674844049E+02  0.52900164195E+02  0.10566000000E+00 0.  1.
         23    2    1    0    0    0 -0.18215261616E+02  0.15840582947E+02 -0.17214948501E+02  0.95350813237E+02  0.90623966528E+02 0.  0.
         13    1    3    3    0    0  0.14878258077E+02 -0.22337086261E+02 -0.32889792550E+02  0.42450649042E+02  0.10566000000E+00 0. -1.
         22    1    1    0    0    0  0.18215261616E+02 -0.15840582947E+02  0.17214948501E+02  0.29649186763E+02  0.00000000000E+00 0. -1.
</event>
<event>
 5    1  0.1285375E-004  0.9118800E+02  0.7818608E-02  0.1130116E+00
         25   -1    0    0    0    0  0.00000000000E+00  0.00000000000E+00  0.99999998245E-14  0.12500000000E+03  0.12500000000E+03 0.  0.
        -13    1    3    3    0    0 -0.22802887158E+02 -0.26980160705E+02  0.18532165992E+02  0.39891767005E+02  0.10566000000E+00 0.  1.
         23    2    1    0    0    0 -0.85941326557E+01  0.26351115388E+02  0.86765537434E+01  0.95956532866E+02  0.91455635237E+02 0.  0.
         13    1    3    3    0    0  0.14208754502E+02  0.53331276093E+02 -0.98556122487E+01  0.56064765861E+02  0.10566000000E+00 0. -1.
         22    1    1    0    0    0  0.85941326557E+01 -0.26351115388E+02 -0.86765537434E+01  0.29043467134E+02  0.00000000000E+00 0. -1.
</event>
<event>
 5    1  0.1285375E-004  0.9118800E+02  0.7818608E-02  0.1130116E+00
         25   -1    0    0    0    0  0.00000000000E+00  0.00000000000E+00  0.99999998245E-14  0.12500000000E+03  0.12500000000E+03 0.  0.
        -13    1    3    3    0    0  0.12634678521E+02 -0.26001711962E+02 -0.26963328580E+02  0.39531713579E+02  0.10566000000E+00 0.  1.
         23    2    1    0    0    0 -0.24126928896E+02 -0.13340765828E+02  0.12319947161E+02  0.94802883766E+02  0.89865015114E+02 0.  0.
         13    1    3    3    0    0 -0.36761607417E+02  0.12660946134E+02  0.39283275741E+02  0.55271170187E+02  0.10566000000E+00 0. -1.
         22    1    1    0    0    0  0.24126928896E+02  0.13340765828E+02 -0.12319947161E+02  0.30197116234E+02  0.00000000000E+00 0. -1.
</event>
<event>
 5    1  0.1285375E-004  0.9118800E+02  0.7818608E-02  0.1130116E+00
         25   -1    0    0    0    0  0.00000000000E+00  0.00000000000E+00  0.99999998245E-14  0.12500000000E+03  0.12500000000E+03 0.  0.
        -13    1    3    3    0    0 -0.17252732680E+02  0.45460880100E+02 -0.32030880120E+02  0.58226599159E+02  0.10566000000E+00 0. -1.
         23    2    1    0    0    0  0.31506760292E+01  0.28599072000E+02 -0.54934073887E+01  0.95708171729E+02  0.91115547149E+02 0.  0.
         13    1    3    3    0    0  0.20403408709E+02 -0.16861808100E+02  0.26537472731E+02  0.37481572570E+02  0.10566000000E+00 0.  1.
         22    1    1    0    0    0 -0.31506760292E+01 -0.28599072000E+02  0.54934073887E+01  0.29291828271E+02  0.00000000000E+00 0. -1.
</event>
<event>
 5    1  0.1285375E-004  0.9118800E+02  0.7818608E-02  0.1130116E+00
         25   -1    0    0    0    0  0.00000000000E+00  0.00000000000E+00  0.99999998245E-14  0.12500000000E+03  0.12500000000E+03 0.  0.
        -13    1    3    3    0    0 -0.30874509876E+02  0.48687190570E+02 -0.20051509504E+02  0.61038939072E+02  0.10566000000E+00 0.  1.
         23    2    1    0    0    0 -0.16070200630E+02  0.16532987211E+02 -0.16567183775E+02  0.96608758522E+02  0.92342783316E+02 0.  0.
         13    1    3    3    0    0  0.14804309247E+02 -0.32154203358E+02  0.34843257291E+01  0.35569819450E+02  0.10566000000E+00 0. -1.
         22    1    1    0    0    0  0.16070200630E+02 -0.16532987211E+02  0.16567183775E+02  0.28391241478E+02  0.00000000000E+00 0.  1.
</event>
<event>
 5    1  0.1285375E-004  0.9118800E+02  0.7818608E-02  0.1130116E+00
         25   -1    0    0    0    0  0.00000000000E+00  0.00000000000E+00  0.99999998245E-14  0.12500000000E+03  0.12500000000E+03 0.  0.
        -13    1    3    3    0    0 -0.10991709648E+02 -0.55769288293E+02  0.12123133101E+01  0.56855185035E+02  0.10566000000E+00 0.  1.
         23    2    1    0    0    0 -0.20150562928E+02 -0.19146852964E+02  0.97209854310E+01  0.95552678858E+02  0.90901978606E+02 0.  0.
         13    1    3    3    0    0 -0.91588532798E+01  0.36622435330E+02  0.85086721209E+01  0.38697493823E+02  0.10566000000E+00 0. -1.
         22    1    1    0    0    0  0.20150562928E+02  0.19146852964E+02 -0.97209854310E+01  0.29447321142E+02  0.00000000000E+00 0.  1.
</event>
<event>
 5    1  0.1285375E-004  0.9118800E+02  0.7818608E-02  0.1130116E+00
         25   -1    0    0    0    0  0.00000000000E+00  0.00000000000E+00  0.99999998245E-14  0.12500000000E+03  0.12500000000E+03 0.  0.
        -13    1    3    3    0    0  0.11891654981E+02  0.30436886978E+02 -0.32672219762E+02  0.46209313512E+02  0.10566000000E+00 0.  1.
         23    2    1    0    0    0 -0.14979603192E+02 -0.86639352776E+01 -0.25485559432E+02  0.94194707827E+02  0.89015037813E+02 0.  0.
         13    1    3    3    0    0 -0.26871258173E+02 -0.39100822255E+02  0.71866603299E+01  0.47985394315E+02  0.10566000000E+00 0. -1.
         22    1    1    0    0    0  0.14979603192E+02  0.86639352776E+01  0.25485559432E+02  0.30805292173E+02  0.00000000000E+00 0. -1.
</event>
<event>
 5    1  0.1285375E-004  0.9118800E+02  0.7818608E-02  0.1130116E+00
         25   -1    0    0    0    0  0.00000000000E+00  0.00000000000E+00  0.99999998245E-14  0.12500000000E+03  0.12500000000E+03 0.  0.
        -13    1    3    3    0    0  0.32502105360E+02  0.80673202716E+01  0.23657814960E+02  0.41002096067E+02  0.10566000000E+00 0. -1.
         23    2    1    0    0    0 -0.21947539494E+02  0.11435478755E+02  0.14493435627E+02  0.96320314847E+02  0.91951501955E+02 0.  0.
         13    1    3    3    0    0 -0.54449644855E+02  0.33681584830E+01 -0.91643793330E+01  0.55318218780E+02  0.10566000000E+00 0.  1.
         22    1    1    0    0    0  0.21947539494E+02 -0.11435478755E+02 -0.14493435627E+02  0.28679685153E+02  0.00000000000E+00 0.  1.
</event>
<event>
 5    1  0.1285375E-004  0.9118800E+02  0.7818608E-02  0.1130116E+00
         25   -1    0    0    0    0  0.00000000000E+00  0.00000000000E+00  0.99999998245E-14  0.12500000000E+03  0.12500000000E+03 0.  0.
        -13    1    3    3    0    0  0.29213643634E+02 -0.39940912318E+01 -0.21016414428E+02  0.36208984777E+02  0.10566000000E+00 0. -1.
         23    2    1    0    0    0 -0.27937087918E+02  0.45960755949E+01 -0.94836535933E+01  0.95141257935E+02  0.90334459006E+02 0.  0.
         13    1    3    3    0    0 -0.57150731552E+02  0.85901668267E+01  0.11532760835E+02  0.58932273158E+02  0.10566000000E+00 0.  1.
         22    1    1    0    0    0  0.27937087918E+02 -0.45960755949E+01  0.94836535933E+01  0.29858742065E+02  0.00000000000E+00 0.  1.
</event>
<event>
 5    1  0.1285375E-004  0.9118800E+02  0.7818608E-02  0.1130116E+00
         25   -1    0    0    0    0  0.00000000000E+00  0.00000000000E+00  0.99999998245E-14  0.12500000000E+03  0.12500000000E+03 0.  0.
        -13    1    3    3    0    0 -0.20298691580E+01 -0.30981126674E+02 -0.17316291605E+02  0.35550185623E+02  0.10566000000E+00 0. -1.
         23    2    1    0    0    0  0.14324624065E+02  0.92640233205E+01  0.24035298376E+02  0.95526069982E+02  0.90865381172E+02 0.  0.
         13    1    3    3    0    0  0.16354493223E+02  0.40245149995E+02  0.41351589981E+02  0.59975884359E+02  0.10566000000E+00 0.  1.
         22    1    1    0    0    0 -0.14324624065E+02 -0.92640233205E+01 -0.24035298376E+02  0.29473930018E+02  0.00000000000E+00 0.  1.
</event>
<event>
 5    1  0.1285375E-004  0.9118800E+02  0.7818608E-02  0.1130116E+00
         25   -1    0    0    0    0  0.00000000000E+00  0.00000000000E+00  0.99999998245E-14  0.12500000000E+03  0.12500000000E+03 0.  0.
        -13    1    3    3    0    0 -0.21388489702E+02 -0.29751973317E+02  0.60909195781E+01  0.37145092183E+02  0.10566000000E+00 0. -1.
         23    2    1    0    0    0  0.18117656976E+02 -0.49475048055E+00 -0.24107165924E+02  0.94839600115E+02  0.89916072138E+02 0.  0.
         13    1    3    3    0    0  0.39506146678E+02  0.29257222836E+02 -0.30198085502E+02  0.57694507932E+02  0.10566000000E+00 0.  1.
         22    1    1    0    0    0 -0.18117656976E+02  0.49475048055E+00  0.24107165924E+02  0.30160399885E+02  0.00000000000E+00 0.  1.
</event>
<event>
 5    1  0.1285375E-004  0.9118800E+02  0.7818608E-02  0.1130116E+00
         25   -1    0    0    0    0  0.00000000000E+00  0.00000000000E+00  0.99999998245E-14  0.12500000000E+03  0.12500000000E+03 0.  0.
        -13    1    3    3    0    0 -0.13279218452E+02  0.20826209701E+02 -0.27278846332E+02  0.36799664054E+02  0.10566000000E+00 0. -1.
         23    2    1    0    0    0  0.79223513858E+01 -0.28263741609E+02 -0.31039735593E+01  0.95483269268E+02  0.90806482792E+02 0.  0.
         13    1    3    3    0    0  0.21201569838E+02 -0.49089951311E+02  0.24174872773E+02  0.58683605214E+02  0.10566000000E+00 0.  1.
         22    1    1    0    0    0 -0.79223513858E+01  0.28263741609E+02  0.31039735593E+01  0.29516730732E+02  0.00000000000E+00 0.  1.
</event>
<event>
 5    1  0.1285375E-004  0.9118800E+02  0.7818608E-02  0.1130116E+00
         25   -1    0    0    0    0  0.00000000000E+00  0.00000000000E+00  0.99999998245E-14  0.12500000000E+03  0.12500000000E+03 0.  0.
        -13    1    3    3    0    0 -0.84219554526E+01  0.47089635806E+02 -0.26311073256E+02  0.54595300841E+02  0.10566000000E+00 0.  1.
         23    2    1    0    0    0 -0.12324223706E+02  0.22161109017E+02  0.90849104332E+01  0.98064208933E+02  0.94292376326E+02 0.  0.
         13    1    3    3    0    0 -0.39022682530E+01 -0.24928526789E+02  0.35395983689E+02  0.43468908092E+02  0.10566000000E+00 0. -1.
         22    1    1    0    0    0  0.12324223706E+02 -0.22161109017E+02 -0.90849104332E+01  0.26935791067E+02  0.00000000000E+00 0.  1.
</event>
<event>
 5    1  0.1285375E-004  0.9118800E+02  0.7818608E-02  0.1130116E+00
         25   -1    0    0    0    0  0.00000000000E+00  0.00000000000E+00  0.99999998245E-14  0.12500000000E+03  0.12500000000E+03 0.  0.
        -13    1    3    3    0    0  0.94515835047E+01  0.38714090776E+02 -0.45822715853E+02  0.60727635452E+02  0.10566000000E+00 0. -1.
         23    2    1    0    0    0  0.38962174528E+01  0.66886401800E+01 -0.23756967795E+02  0.10001376506E+03  0.96842352635E+02 0.  0.
         13    1    3    3    0    0 -0.55553660518E+01 -0.32025450596E+02  0.22065748058E+02  0.39286129604E+02  0.10566000000E+00 0.  1.
         22    1    1    0    0    0 -0.38962174528E+01 -0.66886401800E+01  0.23756967795E+02  0.24986234944E+02  0.00000000000E+00 0. -1.
</event>
<event>
 5    1  0.1285375E-004  0.9118800E+02  0.7818608E-02  0.1130116E+00
         25   -1    0    0    0    0  0.00000000000E+00  0.00000000000E+00  0.99999998245E-14  0.12500000000E+03  0.12500000000E+03 0.  0.
        -13    1    3    3    0    0  0.33237880843E+02 -0.25362478014E+02 -0.30397800626E+02  0.51691870356E+02  0.10566000000E+00 0. -1.
         23    2    1    0    0    0  0.28971768925E+02  0.49593934333E+01  0.10543251855E+01  0.95587917798E+02  0.90950423031E+02 0.  0.
         13    1    3    3    0    0 -0.42661119176E+01  0.30321871447E+02  0.31452125811E+02  0.43896047442E+02  0.10566000000E+00 0.  1.
         22    1    1    0    0    0 -0.28971768925E+02 -0.49593934333E+01 -0.10543251855E+01  0.29412082202E+02  0.00000000000E+00 0. -1.
</event>
<event>
 5    1  0.1285375E-004  0.9118800E+02  0.7818608E-02  0.1130116E+00
         25   -1    0    0    0    0  0.00000000000E+00  0.00000000000E+00  0.99999998245E-14  0.12500000000E+03  0.12500000000E+03 0.  0.
        -13    1    3    3    0    0  0.49015439159E+02 -0.15337448476E+02 -0.22970719634E+02  0.56262027392E+02  0.10566000000E+00 0.  1.
         23    2    1    0    0    0  0.27720985023E+02 -0.29284005119E+01  0.81476748925E+01  0.95958423832E+02  0.91458219740E+02 0.  0.
         13    1    3    3    0    0 -0.21294454137E+02  0.12409047964E+02  0.31118394527E+02  0.39696396440E+02  0.10566000000E+00 0. -1.
         22    1    1    0    0    0 -0.27720985023E+02  0.29284005119E+01 -0.81476748925E+01  0.29041576168E+02  0.00000000000E+00 0.  1.
</event>
<event>
 5    1  0.1285375E-004  0.9118800E+02  0.7818608E-02  0.1130116E+00
         25   -1    0    0    0    0  0.00000000000E+00  0.00000000000E+00  0.99999998245E-14  0.12500000000E+03  0.12500000000E+03 0.  0.
        -13    1    3    3    0    0 -0.35239998866E+02  0.13737340006E+02 -0.36240513068E+01  0.37996275376E+02  0.10566000000E+00 0.  1.
         23    2    1    0    0    0  0.15518237176E+02 -0.67345250707E+01  0.21018684711E+02  0.98019365835E+02  0.94232910699E+02 0.  0.
         13    1    3    3    0    0  0.50758236042E+02 -0.20471865077E+02  0.24642736017E+02  0.60023090459E+02  0.10566000000E+00 0. -1.
         22    1    1    0    0    0 -0.15518237176E+02  0.67345250707E+01 -0.21018684711E+02  0.26980634165E+02  0.00000000000E+00 0. -1.
</event>
<event>
 5    1  0.1285375E-004  0.9118800E+02  0.7818608E-02  0.1130116E+00
         25   -1    0    0    0    0  0.00000000000E+00  0.00000000000E+00  0.99999998245E-14  0.12500000000E+03  0.12500000000E+03 0.  0.
        -13    1    3    3    0    0  0.21322651830E+02 -0.33790504475E+02  0.72235370692E+01  0.40603501395E+02  0.10566000000E+00 0.  1.
         23    2    1    0    0    0  0.23280489233E+02  0.19729555869E+02  0.33802528517E+01  0.94297188027E+02  0.89158830223E+02 0.  0.
         13    1    3    3    0    0  0.19578374023E+01  0.53520060344E+02 -0.38432842175E+01  0.53693686632E+02  0.10566000000E+00 0. -1.
         22    1    1    0    0    0 -0.23280489233E+02 -0.19729555869E+02 -0.33802528517E+01  0.30702811973E+02  0.00000000000E+00 0. -1.
</event>
<event>
 5    1  0.1285375E-004  0.9118800E+02  0.7818608E-02  0.1130116E+00
         25   -1    0    0    0    0  0.00000000000E+00  0.00000000000E+00  0.99999998245E-14  0.12500000000E+03  0.12500000000E+03 0.  0.
        -13    1    3    3    0    0 -0.35251577450E+02 -0.16313287837E+02  0.34311296433E+02  0.51827341237E+02  0.10566000000E+00 0.  1.
         23    2    1    0    0    0  0.51984507724E+01  0.71804471428E+00  0.28407236622E+02  0.96112103379E+02  0.91668019750E+02 0.  0.
         13    1    3    3    0    0  0.40450028223E+02  0.17031332552E+02 -0.59040598105E+01  0.44284762142E+02  0.10566000000E+00 0. -1.
         22    1    1    0    0    0 -0.51984507724E+01 -0.71804471428E+00 -0.28407236622E+02  0.28887896621E+02  0.00000000000E+00 0. -1.
</event>
<event>
 5    1  0.1285375E-004  0.9118800E+02  0.7818608E-02  0.1130116E+00
         25   -1    0    0    0    0  0.00000000000E+00  0.00000000000E+00  0.99999998245E-14  0.12500000000E+03  0.12500000000E+03 0.  0.
        -13    1    3    3    0    0 -0.17663011934E+02 -0.50754789720E+02  0.11057551143E+01  0.53751879302E+02  0.10566000000E+00 0. -1.
         23    2    1    0    0    0 -0.22989419912E+02 -0.10862360738E+02  0.13949786004E+02  0.95998261462E+02  0.91512651395E+02 0.  0.
         13    1    3    3    0    0 -0.53264079776E+01  0.39892428982E+02  0.12844030890E+02  0.42246382159E+02  0.10566000000E+00 0.  1.
         22    1    1    0    0    0  0.22989419912E+02  0.10862360738E+02 -0.13949786004E+02  0.29001738538E+02  0.00000000000E+00 0.  1.
</event>
<event>
 5    1  0.1285375E-004  0.9118800E+02  0.7818608E-02  0.1130116E+00
         25   -1    0    0    0    0  0.00000000000E+00  0.00000000000E+00  0.99999998245E-14  0.12500000000E+03  0.12500000000E+03 0.  0.
        -13    1    3    3    0    0 -0.13609159162E+02  0.51726211661E+01  0.36114965785E+02  0.38939275038E+02  0.10566000000E+00 0.  1.
         23    2    1    0    0    0  0.99540372121E+01 -0.29037136678E+02 -0.48152264927E+00  0.94300325289E+02  0.89163228532E+02 0.  0.
         13    1    3    3    0    0  0.23563196374E+02 -0.34209757844E+02 -0.36596488434E+02  0.55361050251E+02  0.10566000000E+00 0. -1.
         22    1    1    0    0    0 -0.99540372121E+01  0.29037136678E+02  0.48152264927E+00  0.30699674711E+02  0.00000000000E+00 0. -1.
</event>
<event>
 5    1  0.1285375E-004  0.9118800E+02  0.7818608E-02  0.1130116E+00
         25   -1    0    0    0    0  0.00000000000E+00  0.00000000000E+00  0.99999998245E-14  0.12500000000E+03  0.12500000000E+03 0.  0.
        -13    1    3    3    0    0  0.41285236844E+02 -0.29076676596E+02  0.32757261811E+02  0.60191139452E+02  0.10566000000E+00 0. -1.
         23    2    1    0    0    0  0.16136279944E+02 -0.61724943491E+01  0.24198158218E+02  0.95267356692E+02  0.90508779536E+02 0.  0.
         13    1    3    3    0    0 -0.25148956900E+02  0.22904182246E+02 -0.85591035934E+01  0.35076217241E+02  0.10566000000E+00 0.  1.
         22    1    1    0    0    0 -0.16136279944E+02  0.61724943491E+01 -0.24198158218E+02  0.29732643308E+02  0.00000000000E+00 0. -1.
</event>
<event>
 5    1  0.1285375E-004  0.9118800E+02  0.7818608E-02  0.1130116E+00
         25   -1    0    0    0    0  0.00000000000E+00  0.00000000000E+00  0.99999998245E-14  0.12500000000E+03  0.12500000000E+03 0.  0.
        -13    1    3    3    0    0  0.13283453446E+02  0.50594566594E+01  0.38711200003E+02  0.41238530609E+02  0.10566000000E+00 0.  1.
         23    2    1    0    0    0  0.25536865466E+02 -0.42377144456E+01 -0.13596136199E+02  0.95760563598E+02  0.91187394412E+02 0.  0.
         13    1    3    3    0    0  0.12253412020E+02 -0.92971711049E+01 -0.52307336202E+02  0.54522032989E+02  0.10566000000E+00 0. -1.
         22    1    1    0    0    0 -0.25536865466E+02  0.42377144456E+01  0.13596136199E+02  0.29239436402E+02  0.00000000000E+00 0. -1.
</event>
<event>
 5    1  0.1285375E-004  0.9118800E+02  0.7818608E-02  0.1130116E+00
         25   -1    0    0    0    0  0.00000000000E+00  0.00000000000E+00  0.99999998245E-14  0.12500000000E+03  0.12500000000E+03 0.  0.
        -13    1    3    3    0    0  0.10571526166E+02  0.25364584197E+02  0.39702949530E+02  0.48285139146E+02  0.10566000000E+00 0.  1.
         23    2    1    0    0    0  0.28045433021E+02 -0.56480917782E+01  0.98491648186E+01  0.94743541158E+02  0.89782433078E+02 0.  0.
         13    1    3    3    0    0  0.17473906855E+02 -0.31012675975E+02 -0.29853784711E+02  0.46458402012E+02  0.10566000000E+00 0. -1.
         22    1    1    0    0    0 -0.28045433021E+02  0.56480917782E+01 -0.98491648186E+01  0.30256458842E+02  0.00000000000E+00 0.  1.
</event>
<event>
 5    1  0.1285375E-004  0.9118800E+02  0.7818608E-02  0.1130116E+00
         25   -1    0    0    0    0  0.00000000000E+00  0.00000000000E+00  0.99999998245E-14  0.12500000000E+03  0.12500000000E+03 0.  0.
        -13    1    3    3    0    0  0.23459816834E+02 -0.21081220595E+02 -0.34921799403E+02  0.47056605330E+02  0.10566000000E+00 0.  1.
         23    2    1    0    0    0  0.26072761360E+02 -0.61138888242E+01  0.11465424902E+02  0.95868839885E+02  0.91335699325E+02 0.  0.
         13    1    3    3    0    0  0.26129445259E+01  0.14967331771E+02  0.46387224305E+02  0.48812234554E+02  0.10566000000E+00 0. -1.
         22    1    1    0    0    0 -0.26072761360E+02  0.61138888242E+01 -0.11465424902E+02  0.29131160115E+02  0.00000000000E+00 0.  1.
</event>
<event>
 5    1  0.1285375E-004  0.9118800E+02  0.7818608E-02  0.1130116E+00
         25   -1    0    0    0    0  0.00000000000E+00  0.00000000000E+00  0.99999998245E-14  0.12500000000E+03  0.12500000000E+03 0.  0.
        -13    1    3    3    0    0  0.18684687723E+02 -0.29116327827E+02  0.21333663864E+02  0.40644980986E+02  0.10566000000E+00 0. -1.
         23    2    1    0    0    0 -0.27945264776E+02 -0.34695211256E+01  0.43555548530E+01  0.96505329300E+02  0.92202669836E+02 0.  0.
         13    1    3    3    0    0 -0.46629952500E+02  0.25646806701E+02 -0.16978109011E+02  0.55860348314E+02  0.10566000000E+00 0.  1.
         22    1    1    0    0    0  0.27945264776E+02  0.34695211256E+01 -0.43555548530E+01  0.28494670700E+02  0.00000000000E+00 0. -1.
</event>
<event>
 5    1  0.1285375E-004  0.9118800E+02  0.7818608E-02  0.1130116E+00
         25   -1    0    0    0    0  0.00000000000E+00  0.00000000000E+00  0.99999998245E-14  0.12500000000E+03  0.12500000000E+03 0.  0.
        -13    1    3    3    0    0 -0.13638195693E+02 -0.26271036150E+02  0.13044438676E+02  0.32347121457E+02  0.10566000000E+00 0. -1.
         23    2    1    0    0    0 -0.73895784701E+01  0.30336092815E+02 -0.74969375547E+01  0.92889433672E+02  0.87162827042E+02 0.  0.
         13    1    3    3    0    0  0.62486172234E+01  0.56607128964E+02 -0.20541376231E+02  0.60542312215E+02  0.10566000000E+00 0.  1.
         22    1    1    0    0    0  0.73895784701E+01 -0.30336092815E+02  0.74969375547E+01  0.32110566328E+02  0.00000000000E+00 0.  1.
</event>
<event>
 5    1  0.1285375E-004  0.9118800E+02  0.7818608E-02  0.1130116E+00
         25   -1    0    0    0    0  0.00000000000E+00  0.00000000000E+00  0.99999998245E-14  0.12500000000E+03  0.12500000000E+03 0.  0.
        -13    1    3    3    0    0 -0.20179426608E+02 -0.37834179105E+02 -0.27049345061E+02  0.50698250453E+02  0.10566000000E+00 0. -1.
         23    2    1    0    0    0 -0.14239069323E+02  0.67072516317E+01 -0.24719885260E+02  0.95694521896E+02  0.91096819231E+02 0.  0.
         13    1    3    3    0    0  0.59403572845E+01  0.44541430736E+02  0.23294598014E+01  0.44996271442E+02  0.10566000000E+00 0.  1.
         22    1    1    0    0    0  0.14239069323E+02 -0.67072516317E+01  0.24719885260E+02  0.29305478104E+02  0.00000000000E+00 0. -1.
</event>
<event>
 5    1  0.1285375E-004  0.9118800E+02  0.7818608E-02  0.1130116E+00
         25   -1    0    0    0    0  0.00000000000E+00  0.00000000000E+00  0.99999998245E-14  0.12500000000E+03  0.12500000000E+03 0.  0.
        -13    1    3    3    0    0  0.36996954176E+02  0.13360517531E+02  0.57543120987E+01  0.39754261642E+02  0.10566000000E+00 0.  1.
         23    2    1    0    0    0  0.42523530163E+01 -0.29794583202E+02  0.76045079771E+01  0.93957638042E+02  0.88681506024E+02 0.  0.
         13    1    3    3    0    0 -0.32744601159E+02 -0.43155100733E+02  0.18501958784E+01  0.54203376400E+02  0.10566000000E+00 0. -1.
         22    1    1    0    0    0 -0.42523530163E+01  0.29794583202E+02 -0.76045079771E+01  0.31042361958E+02  0.00000000000E+00 0. -1.
</event>
<event>
 5    1  0.1285375E-004  0.9118800E+02  0.7818608E-02  0.1130116E+00
         25   -1    0    0    0    0  0.00000000000E+00  0.00000000000E+00  0.99999998245E-14  0.12500000000E+03  0.12500000000E+03 0.  0.
        -13    1    3    3    0    0  0.13929570801E+01  0.14974945038E+02 -0.36690373626E+02  0.39653297330E+02  0.10566000000E+00 0.  1.
         23    2    1    0    0    0 -0.30323489544E+02 -0.59514515105E+01  0.21929280740E+01  0.94020285237E+02  0.88769765739E+02 0.  0.
         13    1    3    3    0    0 -0.31716446624E+02 -0.20926396549E+02  0.38883301700E+02  0.54366987907E+02  0.10566000000E+00 0. -1.
         22    1    1    0    0    0  0.30323489544E+02  0.59514515105E+01 -0.21929280740E+01  0.30979714763E+02  0.00000000000E+00 0. -1.
</event>
<event>
 5    1  0.1285375E-004  0.9118800E+02  0.7818608E-02  0.1130116E+00
         25   -1    0    0    0    0  0.00000000000E+00  0.00000000000E+00  0.99999998245E-14  0.12500000000E+03  0.12500000000E+03 0.  0.
        -13    1    3    3    0    0 -0.38318658458E+02  0.32411123390E+02 -0.80447005309E+01  0.50828425867E+02  0.10566000000E+00 0.  1.
         23    2    1    0    0    0  0.16879326880E+00  0.15085676544E+02 -0.24580101764E+02  0.96159273056E+02  0.91732318536E+02 0.  0.
         13    1    3    3    0    0  0.38487451727E+02 -0.17325446846E+02 -0.16535401233E+02  0.45330847189E+02  0.10566000000E+00 0. -1.
         22    1    1    0    0    0 -0.16879326880E+00 -0.15085676544E+02  0.24580101764E+02  0.28840726944E+02  0.00000000000E+00 0.  1.
</event>
<event>
 5    1  0.1285375E-004  0.9118800E+02  0.7818608E-02  0.1130116E+00
         25   -1    0    0    0    0  0.00000000000E+00  0.00000000000E+00  0.99999998245E-14  0.12500000000E+03  0.12500000000E+03 0.  0.
        -13    1    3    3    0    0  0.45040293955E+02 -0.19055457643E+02  0.32898483887E+01  0.49016046475E+02  0.10566000000E+00 0.  1.
         23    2    1    0    0    0  0.20585933462E+02  0.20570135006E+02 -0.17116219851E+01  0.95847971589E+02  0.91307134974E+02 0.  0.
         13    1    3    3    0    0 -0.24454360493E+02  0.39625592649E+02 -0.50014703738E+01  0.46831925114E+02  0.10566000000E+00 0. -1.
         22    1    1    0    0    0 -0.20585933462E+02 -0.20570135006E+02  0.17116219851E+01  0.29152028411E+02  0.00000000000E+00 0.  1.
</event>
<event>
 5    1  0.1285375E-004  0.9118800E+02  0.7818608E-02  0.1130116E+00
         25   -1    0    0    0    0  0.00000000000E+00  0.00000000000E+00  0.99999998245E-14  0.12500000000E+03  0.12500000000E+03 0.  0.
        -13    1    3    3    0    0 -0.17036837804E+02  0.12398305285E+02  0.45397350834E+02  0.50049000420E+02  0.10566000000E+00 0.  1.
         23    2    1    0    0    0 -0.25571655075E+01 -0.21820849204E+02  0.12232193513E+02  0.99854123329E+02  0.96636074177E+02 0.  0.
         13    1    3    3    0    0  0.14479672297E+02 -0.34219154489E+02 -0.33165157321E+02  0.49805122909E+02  0.10566000000E+00 0. -1.
         22    1    1    0    0    0  0.25571655075E+01  0.21820849204E+02 -0.12232193513E+02  0.25145876671E+02  0.00000000000E+00 0. -1.
</event>
<event>
 5    1  0.1285375E-004  0.9118800E+02  0.7818608E-02  0.1130116E+00
         25   -1    0    0    0    0  0.00000000000E+00  0.00000000000E+00  0.99999998245E-14  0.12500000000E+03  0.12500000000E+03 0.  0.
        -13    1    3    3    0    0  0.19713888258E+02  0.26389858368E+02 -0.19336032741E+02  0.38196273917E+02  0.10566000000E+00 0.  1.
         23    2    1    0    0    0 -0.21933042175E+02 -0.10717468530E+02  0.66009075886E+01  0.99711772467E+02  0.96451765752E+02 0.  0.
         13    1    3    3    0    0 -0.41646930434E+02 -0.37107326899E+02  0.25936940329E+02  0.61515498550E+02  0.10566000000E+00 0. -1.
         22    1    1    0    0    0  0.21933042175E+02  0.10717468530E+02 -0.66009075886E+01  0.25288227533E+02  0.00000000000E+00 0. -1.
</event>
<event>
 5    1  0.1285375E-004  0.9118800E+02  0.7818608E-02  0.1130116E+00
         25   -1    0    0    0    0  0.00000000000E+00  0.00000000000E+00  0.99999998245E-14  0.12500000000E+03  0.12500000000E+03 0.  0.
        -13    1    3    3    0    0 -0.17654058626E+00  0.17309490063E+02  0.20358904999E+01  0.17430020854E+02  0.10566000000E+00 0.  1.
         23    2    1    0    0    0 -0.25265935920E+02 -0.74569761192E+01 -0.42968629836E+02  0.74598837705E+02  0.54997358356E+02 0.  0.
         13    1    3    3    0    0 -0.25089395334E+02 -0.24766466182E+02 -0.45004520336E+02  0.57168816850E+02  0.10566000000E+00 0. -1.
         22    1    1    0    0    0  0.25265935920E+02  0.74569761192E+01  0.42968629836E+02  0.50401162295E+02  0.00000000000E+00 0. -1.
</event>
<event>
 5    1  0.1285375E-004  0.9118800E+02  0.7818608E-02  0.1130116E+00
         25   -1    0    0    0    0  0.00000000000E+00  0.00000000000E+00  0.99999998245E-14  0.12500000000E+03  0.12500000000E+03 0.  0.
        -13    1    3    3    0    0  0.34718762839E+02  0.14179527494E+02  0.40254286662E+02  0.55016999661E+02  0.10566000000E+00 0.  1.
         23    2    1    0    0    0  0.25444926875E+02 -0.33654679220E+01  0.63858656967E+00  0.99325528811E+02  0.95949894231E+02 0.  0.
         13    1    3    3    0    0 -0.92738359645E+01 -0.17544995416E+02 -0.39615700092E+02  0.44308529150E+02  0.10566000000E+00 0. -1.
         22    1    1    0    0    0 -0.25444926875E+02  0.33654679220E+01 -0.63858656967E+00  0.25674471189E+02  0.00000000000E+00 0. -1.
</event>
<event>
 5    1  0.1285375E-004  0.9118800E+02  0.7818608E-02  0.1130116E+00
         25   -1    0    0    0    0  0.00000000000E+00  0.00000000000E+00  0.99999998245E-14  0.12500000000E+03  0.12500000000E+03 0.  0.
        -13    1    3    3    0    0  0.22816997898E+02 -0.42218910531E+02  0.10173702594E+02  0.49056775149E+02  0.10566000000E+00 0.  1.
         23    2    1    0    0    0 -0.17980825862E+02 -0.22725557488E+02 -0.22086094496E+01  0.95937326043E+02  0.91429379910E+02 0.  0.
         13    1    3    3    0    0 -0.40797823761E+02  0.19493353043E+02 -0.12382312043E+02  0.46880550893E+02  0.10566000000E+00 0. -1.
         22    1    1    0    0    0  0.17980825862E+02  0.22725557488E+02  0.22086094496E+01  0.29062673957E+02  0.00000000000E+00 0.  1.
</event>
<event>
 5    1  0.1285375E-004  0.9118800E+02  0.7818608E-02  0.1130116E+00
         25   -1    0    0    0    0  0.00000000000E+00  0.00000000000E+00  0.99999998245E-14  0.12500000000E+03  0.12500000000E+03 0.  0.
        -13    1    3    3    0    0  0.38254274177E+02 -0.22900620441E+02  0.15013352295E+02  0.47045082852E+02  0.10566000000E+00 0.  1.
         23    2    1    0    0    0 -0.68101739677E+01 -0.27042348353E+02 -0.52404797047E+01  0.96625192486E+02  0.92365026506E+02 0.  0.
         13    1    3    3    0    0 -0.45064448144E+02 -0.41417279118E+01 -0.20253831999E+02  0.49580109634E+02  0.10566000000E+00 0. -1.
         22    1    1    0    0    0  0.68101739677E+01  0.27042348353E+02  0.52404797047E+01  0.28374807514E+02  0.00000000000E+00 0.  1.
</event>
<event>
 5    1  0.1285375E-004  0.9118800E+02  0.7818608E-02  0.1130116E+00
         25   -1    0    0    0    0  0.00000000000E+00  0.00000000000E+00  0.99999998245E-14  0.12500000000E+03  0.12500000000E+03 0.  0.
        -13    1    3    3    0    0 -0.45313425283E+02 -0.98296237526E+01 -0.31688774166E+02  0.56161531195E+02  0.10566000000E+00 0.  1.
         23    2    1    0    0    0 -0.14087445845E+02 -0.23062107131E+02 -0.11495552511E+02  0.95632251648E+02  0.91011333976E+02 0.  0.
         13    1    3    3    0    0  0.31225979439E+02 -0.13232483378E+02  0.20193221655E+02  0.39470720453E+02  0.10566000000E+00 0. -1.
         22    1    1    0    0    0  0.14087445845E+02  0.23062107131E+02  0.11495552511E+02  0.29367748352E+02  0.00000000000E+00 0.  1.
</event>
<event>
 5    1  0.1285375E-004  0.9118800E+02  0.7818608E-02  0.1130116E+00
         25   -1    0    0    0    0  0.00000000000E+00  0.00000000000E+00  0.99999998245E-14  0.12500000000E+03  0.12500000000E+03 0.  0.
        -13    1    3    3    0    0  0.35735694555E+02  0.17440859509E+02 -0.27247391609E+02  0.48204304364E+02  0.10566000000E+00 0.  1.
         23    2    1    0    0    0 -0.90935780155E+01  0.24552629814E+02 -0.12929765210E+02  0.95798910632E+02  0.91239945518E+02 0.  0.
         13    1    3    3    0    0 -0.44829272570E+02  0.71117703046E+01  0.14317626399E+02  0.47594606268E+02  0.10566000000E+00 0. -1.
         22    1    1    0    0    0  0.90935780155E+01 -0.24552629814E+02  0.12929765210E+02  0.29201089368E+02  0.00000000000E+00 0. -1.
</event>
<event>
 5    1  0.1285375E-004  0.9118800E+02  0.7818608E-02  0.1130116E+00
         25   -1    0    0    0    0  0.00000000000E+00  0.00000000000E+00  0.99999998245E-14  0.12500000000E+03  0.12500000000E+03 0.  0.
        -13    1    3    3    0    0  0.61687328796E+01 -0.47329672286E+02  0.38312797525E+02  0.61204842637E+02  0.10566000000E+00 0.  1.
         23    2    1    0    0    0 -0.47604339490E+01 -0.25321865962E+02  0.14441293755E+02  0.95463419418E+02  0.90779154294E+02 0.  0.
         13    1    3    3    0    0 -0.10929166829E+02  0.22007806324E+02 -0.23871503769E+02  0.34258576780E+02  0.10566000000E+00 0. -1.
         22    1    1    0    0    0  0.47604339490E+01  0.25321865962E+02 -0.14441293755E+02  0.29536580582E+02  0.00000000000E+00 0.  1.
</event>
<event>
 5    1  0.1285375E-004  0.9118800E+02  0.7818608E-02  0.1130116E+00
         25   -1    0    0    0    0  0.00000000000E+00  0.00000000000E+00  0.99999998245E-14  0.12500000000E+03  0.12500000000E+03 0.  0.
        -13    1    3    3    0    0 -0.17049458132E+02  0.24174471866E+02 -0.23043620258E+02  0.37498116102E+02  0.10566000000E+00 0.  1.
         23    2    1    0    0    0  0.15539985172E+02 -0.22065155207E+02 -0.13341366765E+02  0.94894281597E+02  0.89992057423E+02 0.  0.
         13    1    3    3    0    0  0.32589443303E+02 -0.46239627072E+02  0.97022534927E+01  0.57396165495E+02  0.10566000000E+00 0. -1.
         22    1    1    0    0    0 -0.15539985172E+02  0.22065155207E+02  0.13341366765E+02  0.30105718403E+02  0.00000000000E+00 0. -1.
</event>
<event>
 5    1  0.1285375E-004  0.9118800E+02  0.7818608E-02  0.1130116E+00
         25   -1    0    0    0    0  0.00000000000E+00  0.00000000000E+00  0.99999998245E-14  0.12500000000E+03  0.12500000000E+03 0.  0.
        -13    1    3    3    0    0 -0.33961514631E+02 -0.83862350198E+01  0.29065784278E+02  0.45481253210E+02  0.10566000000E+00 0.  1.
         23    2    1    0    0    0 -0.21858213351E+02  0.68776274191E+01 -0.17636873826E+02  0.96083870104E+02  0.91629512309E+02 0.  0.
         13    1    3    3    0    0  0.12103301280E+02  0.15263862439E+02 -0.46702658104E+02  0.50602616893E+02  0.10566000000E+00 0. -1.
         22    1    1    0    0    0  0.21858213351E+02 -0.68776274191E+01  0.17636873826E+02  0.28916129896E+02  0.00000000000E+00 0. -1.
</event>
<event>
 5    1  0.1285375E-004  0.9118800E+02  0.7818608E-02  0.1130116E+00
         25   -1    0    0    0    0  0.00000000000E+00  0.00000000000E+00  0.99999998245E-14  0.12500000000E+03  0.12500000000E+03 0.  0.
        -13    1    3    3    0    0 -0.36210904949E+02  0.31877144583E+02  0.30435897880E+02  0.57041537740E+02  0.10566000000E+00 0. -1.
         23    2    1    0    0    0 -0.26758257034E+02  0.13057651897E+02 -0.13770949171E+01  0.95193910304E+02  0.90407287184E+02 0.  0.
         13    1    3    3    0    0  0.94526479143E+01 -0.18819492685E+02 -0.31812992797E+02  0.38152372564E+02  0.10566000000E+00 0.  1.
         22    1    1    0    0    0  0.26758257034E+02 -0.13057651897E+02  0.13770949171E+01  0.29806089696E+02  0.00000000000E+00 0. -1.
</event>
<event>
 5    1  0.1285375E-004  0.9118800E+02  0.7818608E-02  0.1130116E+00
         25   -1    0    0    0    0  0.00000000000E+00  0.00000000000E+00  0.99999998245E-14  0.12500000000E+03  0.12500000000E+03 0.  0.
        -13    1    3    3    0    0 -0.33335328829E+02 -0.79847767842E+01  0.46184544865E+02  0.57515425382E+02  0.10566000000E+00 0. -1.
         23    2    1    0    0    0 -0.24068509724E+02 -0.14002851031E+02  0.98972488700E+01  0.95447867547E+02  0.90757737338E+02 0.  0.
         13    1    3    3    0    0  0.92668191047E+01 -0.60180742469E+01 -0.36287295995E+02  0.37932442165E+02  0.10566000000E+00 0.  1.
         22    1    1    0    0    0  0.24068509724E+02  0.14002851031E+02 -0.98972488700E+01  0.29552132453E+02  0.00000000000E+00 0. -1.
</event>
<event>
 5    1  0.1285375E-004  0.9118800E+02  0.7818608E-02  0.1130116E+00
         25   -1    0    0    0    0  0.00000000000E+00  0.00000000000E+00  0.99999998245E-14  0.12500000000E+03  0.12500000000E+03 0.  0.
        -13    1    3    3    0    0 -0.21423186164E+02 -0.12407744739E+02 -0.55678905078E+01  0.25375531594E+02  0.10566000000E+00 0. -1.
         23    2    1    0    0    0 -0.71948872103E+01  0.41778820296E+02  0.47486482569E+01  0.82341051494E+02  0.70429133699E+02 0.  0.
         13    1    3    3    0    0  0.14228298954E+02  0.54186565035E+02  0.10316538765E+02  0.56965519901E+02  0.10566000000E+00 0.  1.
         22    1    1    0    0    0  0.71948872103E+01 -0.41778820296E+02 -0.47486482569E+01  0.42658948506E+02  0.00000000000E+00 0.  1.
</event>
<event>
 5    1  0.1285375E-004  0.9118800E+02  0.7818608E-02  0.1130116E+00
         25   -1    0    0    0    0  0.00000000000E+00  0.00000000000E+00  0.99999998245E-14  0.12500000000E+03  0.12500000000E+03 0.  0.
        -13    1    3    3    0    0 -0.34922801199E+02  0.76810299639E+01 -0.12427759093E+02  0.37855787206E+02  0.10566000000E+00 0. -1.
         23    2    1    0    0    0  0.12184800618E+02  0.14392854180E+02  0.21578999386E+02  0.96342072091E+02  0.91981074263E+02 0.  0.
         13    1    3    3    0    0  0.47107601817E+02  0.67118242166E+01  0.34006758479E+02  0.58486284884E+02  0.10566000000E+00 0.  1.
         22    1    1    0    0    0 -0.12184800618E+02 -0.14392854180E+02 -0.21578999386E+02  0.28657927909E+02  0.00000000000E+00 0.  1.
</event>
<event>
 5    1  0.1285375E-004  0.9118800E+02  0.7818608E-02  0.1130116E+00
         25   -1    0    0    0    0  0.00000000000E+00  0.00000000000E+00  0.99999998245E-14  0.12500000000E+03  0.12500000000E+03 0.  0.
        -13    1    3    3    0    0 -0.39774091112E+02  0.13471585473E+02  0.43850349816E+02  0.60715123997E+02  0.10566000000E+00 0. -1.
         23    2    1    0    0    0 -0.13846429130E+02  0.26263834135E+01  0.29577737193E+02  0.92236239121E+02  0.86220993849E+02 0.  0.
         13    1    3    3    0    0  0.25927661982E+02 -0.10845202060E+02 -0.14272612623E+02  0.31521115124E+02  0.10566000000E+00 0.  1.
         22    1    1    0    0    0  0.13846429130E+02 -0.26263834135E+01 -0.29577737193E+02  0.32763760879E+02  0.00000000000E+00 0. -1.
</event>
<event>
 5    1  0.1285375E-004  0.9118800E+02  0.7818608E-02  0.1130116E+00
         25   -1    0    0    0    0  0.00000000000E+00  0.00000000000E+00  0.99999998245E-14  0.12500000000E+03  0.12500000000E+03 0.  0.
        -13    1    3    3    0    0  0.23806134005E+02 -0.42412184458E+02 -0.36358805811E+02  0.60724783498E+02  0.10566000000E+00 0.  1.
         23    2    1    0    0    0  0.15629820311E+02 -0.21161227855E+02 -0.71920293277E+01  0.97727043924E+02  0.93844344427E+02 0.  0.
         13    1    3    3    0    0 -0.81763136946E+01  0.21250956603E+02  0.29166776484E+02  0.37002260426E+02  0.10566000000E+00 0. -1.
         22    1    1    0    0    0 -0.15629820311E+02  0.21161227855E+02  0.71920293277E+01  0.27272956076E+02  0.00000000000E+00 0.  1.
</event>
<event>
 5    1  0.1285375E-004  0.9118800E+02  0.7818608E-02  0.1130116E+00
         25   -1    0    0    0    0  0.00000000000E+00  0.00000000000E+00  0.99999998245E-14  0.12500000000E+03  0.12500000000E+03 0.  0.
        -13    1    3    3    0    0 -0.39502776916E+02  0.37614611463E+02  0.33310506138E+01  0.54648288553E+02  0.10566000000E+00 0.  1.
         23    2    1    0    0    0 -0.69493419317E+00  0.30489228100E+02  0.47744940649E+01  0.94131379084E+02  0.88926063508E+02 0.  0.
         13    1    3    3    0    0  0.38807842723E+02 -0.71253833634E+01  0.14434434511E+01  0.39483090531E+02  0.10566000000E+00 0. -1.
         22    1    1    0    0    0  0.69493419317E+00 -0.30489228100E+02 -0.47744940649E+01  0.30868620916E+02  0.00000000000E+00 0.  1.
</event>
<event>
 5    1  0.1285375E-004  0.9118800E+02  0.7818608E-02  0.1130116E+00
         25   -1    0    0    0    0  0.00000000000E+00  0.00000000000E+00  0.99999998245E-14  0.12500000000E+03  0.12500000000E+03 0.  0.
        -13    1    3    3    0    0 -0.59344857670E+01  0.33546776845E+02  0.28765900562E+02  0.44588031547E+02  0.10566000000E+00 0.  1.
         23    2    1    0    0    0 -0.11304832883E+02 -0.15621060384E+02  0.23905999674E+02  0.94286589339E+02  0.89143969705E+02 0.  0.
         13    1    3    3    0    0 -0.53703471162E+01 -0.49167837229E+02 -0.48599008882E+01  0.49698557792E+02  0.10566000000E+00 0. -1.
         22    1    1    0    0    0  0.11304832883E+02  0.15621060384E+02 -0.23905999674E+02  0.30713410661E+02  0.00000000000E+00 0. -1.
</event>
<event>
 5    1  0.1285375E-004  0.9118800E+02  0.7818608E-02  0.1130116E+00
         25   -1    0    0    0    0  0.00000000000E+00  0.00000000000E+00  0.99999998245E-14  0.12500000000E+03  0.12500000000E+03 0.  0.
        -13    1    3    3    0    0  0.10625943316E+02 -0.79519627350E+01  0.40733557979E+02  0.42841315250E+02  0.10566000000E+00 0.  1.
         23    2    1    0    0    0 -0.17070925844E+02  0.22681161798E+02  0.80914750733E+01  0.95481809362E+02  0.90804473131E+02 0.  0.
         13    1    3    3    0    0 -0.27696869159E+02  0.30633124533E+02 -0.32642082906E+02  0.52640494112E+02  0.10566000000E+00 0. -1.
         22    1    1    0    0    0  0.17070925844E+02 -0.22681161798E+02 -0.80914750733E+01  0.29518190638E+02  0.00000000000E+00 0.  1.
</event>
<event>
 5    1  0.1285375E-004  0.9118800E+02  0.7818608E-02  0.1130116E+00
         25   -1    0    0    0    0  0.00000000000E+00  0.00000000000E+00  0.99999998245E-14  0.12500000000E+03  0.12500000000E+03 0.  0.
        -13    1    3    3    0    0 -0.26520570111E+02 -0.14006483324E+02  0.25820379199E+02  0.39575565190E+02  0.10566000000E+00 0.  1.
         23    2    1    0    0    0 -0.25623896771E+01  0.28995642730E+02 -0.14590164550E+01  0.95854813996E+02  0.91316501789E+02 0.  0.
         13    1    3    3    0    0  0.23958180433E+02  0.43002126054E+02 -0.27279395654E+02  0.56279248806E+02  0.10566000000E+00 0. -1.
         22    1    1    0    0    0  0.25623896771E+01 -0.28995642730E+02  0.14590164550E+01  0.29145186004E+02  0.00000000000E+00 0. -1.
</event>
<event>
 5    1  0.1285375E-004  0.9118800E+02  0.7818608E-02  0.1130116E+00
         25   -1    0    0    0    0  0.00000000000E+00  0.00000000000E+00  0.99999998245E-14  0.12500000000E+03  0.12500000000E+03 0.  0.
        -13    1    3    3    0    0  0.36906783797E+02  0.24454867219E+02 -0.14740750998E+02  0.46663177399E+02  0.10566000000E+00 0.  1.
         23    2    1    0    0    0 -0.83818028483E+01  0.10488381570E+02 -0.26322490950E+02  0.95451154054E+02  0.90762263708E+02 0.  0.
         13    1    3    3    0    0 -0.45288586645E+02 -0.13966485650E+02 -0.11581739951E+02  0.48787976655E+02  0.10566000000E+00 0. -1.
         22    1    1    0    0    0  0.83818028483E+01 -0.10488381570E+02  0.26322490950E+02  0.29548845946E+02  0.00000000000E+00 0. -1.
</event>
<event>
 5    1  0.1285375E-004  0.9118800E+02  0.7818608E-02  0.1130116E+00
         25   -1    0    0    0    0  0.00000000000E+00  0.00000000000E+00  0.99999998245E-14  0.12500000000E+03  0.12500000000E+03 0.  0.
        -13    1    3    3    0    0 -0.21306964112E+02 -0.72154393813E+01 -0.53940397458E+02  0.58443365125E+02  0.10566000000E+00 0. -1.
         23    2    1    0    0    0 -0.98471913962E+01  0.12554213093E+02 -0.19049721427E+02  0.10015111006E+03  0.97019469773E+02 0.  0.
         13    1    3    3    0    0  0.11459772715E+02  0.19769652475E+02  0.34890676031E+02  0.41707744936E+02  0.10566000000E+00 0.  1.
         22    1    1    0    0    0  0.98471913962E+01 -0.12554213093E+02  0.19049721427E+02  0.24848889940E+02  0.00000000000E+00 0. -1.
</event>
<event>
 5    1  0.1285375E-004  0.9118800E+02  0.7818608E-02  0.1130116E+00
         25   -1    0    0    0    0  0.00000000000E+00  0.00000000000E+00  0.99999998245E-14  0.12500000000E+03  0.12500000000E+03 0.  0.
        -13    1    3    3    0    0 -0.49575846729E+02  0.35086634838E+02  0.13121749705E+02  0.62137170860E+02  0.10566000000E+00 0.  1.
         23    2    1    0    0    0 -0.20657335543E+02  0.17466727196E+02  0.10055944132E+02  0.96139402586E+02  0.91705237836E+02 0.  0.
         13    1    3    3    0    0  0.28918511186E+02 -0.17619907642E+02 -0.30658055727E+01  0.34002231726E+02  0.10566000000E+00 0. -1.
         22    1    1    0    0    0  0.20657335543E+02 -0.17466727196E+02 -0.10055944132E+02  0.28860597414E+02  0.00000000000E+00 0.  1.
</event>
<event>
 5    1  0.1285375E-004  0.9118800E+02  0.7818608E-02  0.1130116E+00
         25   -1    0    0    0    0  0.00000000000E+00  0.00000000000E+00  0.99999998245E-14  0.12500000000E+03  0.12500000000E+03 0.  0.
        -13    1    3    3    0    0 -0.15711072883E+02  0.19294964622E+02  0.32586207756E+02  0.41000067937E+02  0.10566000000E+00 0. -1.
         23    2    1    0    0    0 -0.12434338828E+02 -0.25263547758E+02 -0.88874950291E+00  0.96828214414E+02  0.92639373937E+02 0.  0.
         13    1    3    3    0    0  0.32767340546E+01 -0.44558512380E+02 -0.33474957259E+02  0.55828146477E+02  0.10566000000E+00 0.  1.
         22    1    1    0    0    0  0.12434338828E+02  0.25263547758E+02  0.88874950291E+00  0.28171785586E+02  0.00000000000E+00 0.  1.
</event>
<event>
 5    1  0.1285375E-004  0.9118800E+02  0.7818608E-02  0.1130116E+00
         25   -1    0    0    0    0  0.00000000000E+00  0.00000000000E+00  0.99999998245E-14  0.12500000000E+03  0.12500000000E+03 0.  0.
        -13    1    3    3    0    0 -0.14539099453E+02  0.29314965268E+02  0.15731257270E+02  0.36307522924E+02  0.10566000000E+00 0. -1.
         23    2    1    0    0    0  0.89845794797E+01 -0.25750569718E+02  0.26578125652E+01  0.97597838099E+02  0.93672085088E+02 0.  0.
         13    1    3    3    0    0  0.23523678932E+02 -0.55065534986E+02 -0.13073444705E+02  0.61290315175E+02  0.10566000000E+00 0.  1.
         22    1    1    0    0    0 -0.89845794797E+01  0.25750569718E+02 -0.26578125652E+01  0.27402161901E+02  0.00000000000E+00 0.  1.
</event>
<event>
 5    1  0.1285375E-004  0.9118800E+02  0.7818608E-02  0.1130116E+00
         25   -1    0    0    0    0  0.00000000000E+00  0.00000000000E+00  0.99999998245E-14  0.12500000000E+03  0.12500000000E+03 0.  0.
        -13    1    3    3    0    0  0.41107606730E+02 -0.14406501446E+02  0.22641163255E+01  0.43617886259E+02  0.10566000000E+00 0.  1.
         23    2    1    0    0    0 -0.81851261512E+01 -0.27725505656E+02  0.80142519285E+01  0.95001196891E+02  0.90140441661E+02 0.  0.
         13    1    3    3    0    0 -0.49292732881E+02 -0.13319004210E+02  0.57501356030E+01  0.51383310632E+02  0.10566000000E+00 0. -1.
         22    1    1    0    0    0  0.81851261512E+01  0.27725505656E+02 -0.80142519285E+01  0.29998803109E+02  0.00000000000E+00 0. -1.
</event>
<event>
 5    1  0.1285375E-004  0.9118800E+02  0.7818608E-02  0.1130116E+00
         25   -1    0    0    0    0  0.00000000000E+00  0.00000000000E+00  0.99999998245E-14  0.12500000000E+03  0.12500000000E+03 0.  0.
        -13    1    3    3    0    0 -0.59418832409E+00 -0.27476497617E+00  0.35481513901E+02  0.35487709821E+02  0.10566000000E+00 0. -1.
         23    2    1    0    0    0  0.17664099356E+02 -0.11692302328E+02 -0.20532698636E+02  0.95498778787E+02  0.90827829968E+02 0.  0.
         13    1    3    3    0    0  0.18258287680E+02 -0.11417537352E+02 -0.56014212538E+02  0.60011068966E+02  0.10566000000E+00 0.  1.
         22    1    1    0    0    0 -0.17664099356E+02  0.11692302328E+02  0.20532698636E+02  0.29501221213E+02  0.00000000000E+00 0.  1.
</event>
<event>
 5    1  0.1285375E-004  0.9118800E+02  0.7818608E-02  0.1130116E+00
         25   -1    0    0    0    0  0.00000000000E+00  0.00000000000E+00  0.99999998245E-14  0.12500000000E+03  0.12500000000E+03 0.  0.
        -13    1    3    3    0    0  0.25116067245E+02 -0.40529961353E+02  0.35452275777E+02  0.59416913610E+02  0.10566000000E+00 0. -1.
         23    2    1    0    0    0  0.12403846412E+02 -0.69506007504E+01  0.24000106209E+02  0.97104277127E+02  0.93011124505E+02 0.  0.
         13    1    3    3    0    0 -0.12712220833E+02  0.33579360603E+02 -0.11452169568E+02  0.37687363517E+02  0.10566000000E+00 0.  1.
         22    1    1    0    0    0 -0.12403846412E+02  0.69506007504E+01 -0.24000106209E+02  0.27895722873E+02  0.00000000000E+00 0. -1.
</event>
<event>
 5    1  0.1285375E-004  0.9118800E+02  0.7818608E-02  0.1130116E+00
         25   -1    0    0    0    0  0.00000000000E+00  0.00000000000E+00  0.99999998245E-14  0.12500000000E+03  0.12500000000E+03 0.  0.
        -13    1    3    3    0    0  0.18054958972E+02  0.14255334776E+02  0.33624368057E+02  0.40740709423E+02  0.10566000000E+00 0. -1.
         23    2    1    0    0    0 -0.19081770542E+02 -0.19303361162E+02  0.10201823070E+02  0.96003260302E+02  0.91519479214E+02 0.  0.
         13    1    3    3    0    0 -0.37136729514E+02 -0.33558695937E+02 -0.23422544987E+02  0.55262550879E+02  0.10566000000E+00 0.  1.
         22    1    1    0    0    0  0.19081770542E+02  0.19303361162E+02 -0.10201823070E+02  0.28996739698E+02  0.00000000000E+00 0.  1.
</event>
<event>
 5    1  0.1285375E-004  0.9118800E+02  0.7818608E-02  0.1130116E+00
         25   -1    0    0    0    0  0.00000000000E+00  0.00000000000E+00  0.99999998245E-14  0.12500000000E+03  0.12500000000E+03 0.  0.
        -13    1    3    3    0    0 -0.22797151838E+02  0.18335356660E+02  0.63057520562E+01  0.29927731434E+02  0.10566000000E+00 0.  1.
         23    2    1    0    0    0  0.11558227026E+02  0.48061099184E+02  0.30554617325E+01  0.75474272210E+02  0.56952331406E+02 0.  0.
         13    1    3    3    0    0  0.34355378864E+02  0.29725742524E+02 -0.32502903237E+01  0.45546540776E+02  0.10566000000E+00 0. -1.
         22    1    1    0    0    0 -0.11558227026E+02 -0.48061099184E+02 -0.30554617325E+01  0.49525727790E+02  0.00000000000E+00 0. -1.
</event>
<event>
 5    1  0.1285375E-004  0.9118800E+02  0.7818608E-02  0.1130116E+00
         25   -1    0    0    0    0  0.00000000000E+00  0.00000000000E+00  0.99999998245E-14  0.12500000000E+03  0.12500000000E+03 0.  0.
        -13    1    3    3    0    0  0.30068058755E+02  0.30997586579E+02  0.12638272231E+02  0.44996395634E+02  0.10566000000E+00 0. -1.
         23    2    1    0    0    0  0.14420304921E+02  0.55042208027E+00 -0.25161728931E+02  0.95993780645E+02  0.91506530702E+02 0.  0.
         13    1    3    3    0    0 -0.15647753834E+02 -0.30447164499E+02 -0.37800001162E+02  0.50997385011E+02  0.10566000000E+00 0.  1.
         22    1    1    0    0    0 -0.14420304921E+02 -0.55042208027E+00  0.25161728931E+02  0.29006219355E+02  0.00000000000E+00 0.  1.
</event>
<event>
 5    1  0.1285375E-004  0.9118800E+02  0.7818608E-02  0.1130116E+00
         25   -1    0    0    0    0  0.00000000000E+00  0.00000000000E+00  0.99999998245E-14  0.12500000000E+03  0.12500000000E+03 0.  0.
        -13    1    3    3    0    0 -0.18460307428E+02  0.39999286079E+02 -0.40862318987E+02  0.60087154319E+02  0.10566000000E+00 0.  1.
         23    2    1    0    0    0 -0.19991993355E+02  0.14599379891E+02 -0.17016321918E+02  0.94960411069E+02  0.90083865189E+02 0.  0.
         13    1    3    3    0    0 -0.15316859270E+01 -0.25399906188E+02  0.23845997068E+02  0.34873256750E+02  0.10566000000E+00 0. -1.
         22    1    1    0    0    0  0.19991993355E+02 -0.14599379891E+02  0.17016321918E+02  0.30039588931E+02  0.00000000000E+00 0.  1.
</event>
<event>
 5    1  0.1285375E-004  0.9118800E+02  0.7818608E-02  0.1130116E+00
         25   -1    0    0    0    0  0.00000000000E+00  0.00000000000E+00  0.99999998245E-14  0.12500000000E+03  0.12500000000E+03 0.  0.
        -13    1    3    3    0    0  0.36616450243E+02 -0.21363080555E-01  0.10323645156E+02  0.38044102015E+02  0.10566000000E+00 0.  1.
         23    2    1    0    0    0 -0.19676700451E+02 -0.40746317469E+01 -0.15020455575E+02  0.99912368581E+02  0.96711385810E+02 0.  0.
         13    1    3    3    0    0 -0.56293150694E+02 -0.40532686664E+01 -0.25344100731E+02  0.61868266566E+02  0.10566000000E+00 0. -1.
         22    1    1    0    0    0  0.19676700451E+02  0.40746317469E+01  0.15020455575E+02  0.25087631419E+02  0.00000000000E+00 0. -1.
</event>
<event>
 5    1  0.1285375E-004  0.9118800E+02  0.7818608E-02  0.1130116E+00
         25   -1    0    0    0    0  0.00000000000E+00  0.00000000000E+00  0.99999998245E-14  0.12500000000E+03  0.12500000000E+03 0.  0.
        -13    1    3    3    0    0  0.98936156771E+01 -0.31276634671E+01 -0.35749189406E+02  0.37224744689E+02  0.10566000000E+00 0. -1.
         23    2    1    0    0    0 -0.49684406210E+01 -0.23197179167E+02  0.17152840907E+02  0.95725190441E+02  0.91138891865E+02 0.  0.
         13    1    3    3    0    0 -0.14862056298E+02 -0.20069515700E+02  0.52902030313E+02  0.58500445752E+02  0.10566000000E+00 0.  1.
         22    1    1    0    0    0  0.49684406210E+01  0.23197179167E+02 -0.17152840907E+02  0.29274809559E+02  0.00000000000E+00 0.  1.
</event>
<event>
 4    1  0.1285375E-004  0.9118800E+02  0.7818608E-02  0.1130116E+00
         25   -1    0    0    0    0  0.00000000000E+00  0.00000000000E+00  0.99999998245E-14  0.12500000000E+03  0.12500000000E+03 0.  0.
        -13    1    1    0    0    0 -0.12723377152E+02 -0.52830360580E+02  0.17726268327E+02  0.57159103194E+02  0.10566000000E+00 0.  1.
         13    1    1    0    0    0  0.50187043604E+01  0.77837760067E+01  0.10597705585E+02  0.14074696803E+02  0.10566000000E+00 0. -1.
         22    1    1    0    0    0  0.77046727915E+01  0.45046584573E+02 -0.28323973913E+02  0.53766200003E+02  0.00000000000E+00 0.  1.
</event>
<event>
 5    1  0.1285375E-004  0.9118800E+02  0.7818608E-02  0.1130116E+00
         25   -1    0    0    0    0  0.00000000000E+00  0.00000000000E+00  0.99999998245E-14  0.12500000000E+03  0.12500000000E+03 0.  0.
        -13    1    3    3    0    0  0.12994364397E+02  0.34446566776E+02 -0.28557537569E+02  0.46593600256E+02  0.10566000000E+00 0.  1.
         23    2    1    0    0    0 -0.49696245190E+01  0.27465426515E+02  0.14338944660E+02  0.93620832460E+02  0.88205488010E+02 0.  0.
         13    1    3    3    0    0 -0.17963988916E+02 -0.69811402612E+01  0.42896482229E+02  0.47027232204E+02  0.10566000000E+00 0. -1.
         22    1    1    0    0    0  0.49696245190E+01 -0.27465426515E+02 -0.14338944660E+02  0.31379167540E+02  0.00000000000E+00 0.  1.
</event>
<event>
 5    1  0.1285375E-004  0.9118800E+02  0.7818608E-02  0.1130116E+00
         25   -1    0    0    0    0  0.00000000000E+00  0.00000000000E+00  0.99999998245E-14  0.12500000000E+03  0.12500000000E+03 0.  0.
        -13    1    3    3    0    0  0.35160207104E+02 -0.23572565274E+02 -0.86211029046E+01  0.43200006673E+02  0.10566000000E+00 0.  1.
         23    2    1    0    0    0 -0.11258057761E+02 -0.19854792066E+02  0.17175676533E+02  0.96434977737E+02  0.92107244200E+02 0.  0.
         13    1    3    3    0    0 -0.46418264865E+02  0.37177732085E+01  0.25796779438E+02  0.53234971063E+02  0.10566000000E+00 0. -1.
         22    1    1    0    0    0  0.11258057761E+02  0.19854792066E+02 -0.17175676533E+02  0.28565022263E+02  0.00000000000E+00 0.  1.
</event>
<event>
 5    1  0.1285375E-004  0.9118800E+02  0.7818608E-02  0.1130116E+00
         25   -1    0    0    0    0  0.00000000000E+00  0.00000000000E+00  0.99999998245E-14  0.12500000000E+03  0.12500000000E+03 0.  0.
        -13    1    3    3    0    0  0.44282709515E+02  0.37171449237E+02 -0.90432416649E+01  0.58518940389E+02  0.10566000000E+00 0. -1.
         23    2    1    0    0    0  0.11629014468E+02  0.24859940000E+02  0.66152424877E+01  0.96768598557E+02  0.92558898217E+02 0.  0.
         13    1    3    3    0    0 -0.32653695047E+02 -0.12311509238E+02  0.15658484153E+02  0.38249658167E+02  0.10566000000E+00 0.  1.
         22    1    1    0    0    0 -0.11629014468E+02 -0.24859940000E+02 -0.66152424877E+01  0.28231401443E+02  0.00000000000E+00 0. -1.
</event>
<event>
 5    1  0.1285375E-004  0.9118800E+02  0.7818608E-02  0.1130116E+00
         25   -1    0    0    0    0  0.00000000000E+00  0.00000000000E+00  0.99999998245E-14  0.12500000000E+03  0.12500000000E+03 0.  0.
        -13    1    3    3    0    0 -0.20114447295E+02 -0.24927732358E+02  0.37963010055E+01  0.32255323527E+02  0.10566000000E+00 0.  1.
         23    2    1    0    0    0  0.20384785724E+02  0.21823430358E+02  0.74663668167E+01  0.94217728560E+02  0.89047358972E+02 0.  0.
         13    1    3    3    0    0  0.40499233019E+02  0.46751162715E+02  0.36700658112E+01  0.61962405033E+02  0.10566000000E+00 0. -1.
         22    1    1    0    0    0 -0.20384785724E+02 -0.21823430358E+02 -0.74663668167E+01  0.30782271440E+02  0.00000000000E+00 0. -1.
</event>
<event>
 5    1  0.1285375E-004  0.9118800E+02  0.7818608E-02  0.1130116E+00
         25   -1    0    0    0    0  0.00000000000E+00  0.00000000000E+00  0.99999998245E-14  0.12500000000E+03  0.12500000000E+03 0.  0.
        -13    1    3    3    0    0  0.30700177716E+02 -0.20218996422E+02 -0.19622604950E+02  0.41669731427E+02  0.10566000000E+00 0.  1.
         23    2    1    0    0    0  0.16946141211E+02  0.32799893048E+01  0.25402794020E+02  0.94287918081E+02  0.89145832882E+02 0.  0.
         13    1    3    3    0    0 -0.13754036505E+02  0.23498985727E+02  0.45025398970E+02  0.52618186655E+02  0.10566000000E+00 0. -1.
         22    1    1    0    0    0 -0.16946141211E+02 -0.32799893048E+01 -0.25402794020E+02  0.30712081919E+02  0.00000000000E+00 0.  1.
</event>
<event>
 5    1  0.1285375E-004  0.9118800E+02  0.7818608E-02  0.1130116E+00
         25   -1    0    0    0    0  0.00000000000E+00  0.00000000000E+00  0.99999998245E-14  0.12500000000E+03  0.12500000000E+03 0.  0.
        -13    1    3    3    0    0 -0.22856211835E+02  0.28407434098E+02 -0.59497983485E+01  0.36943199589E+02  0.10566000000E+00 0. -1.
         23    2    1    0    0    0  0.21056366795E+02 -0.24518776562E+01  0.19367524388E+02  0.96286182986E+02  0.91905090971E+02 0.  0.
         13    1    3    3    0    0  0.43912578630E+02 -0.30859311754E+02  0.25317322736E+02  0.59342983396E+02  0.10566000000E+00 0.  1.
         22    1    1    0    0    0 -0.21056366795E+02  0.24518776562E+01 -0.19367524388E+02  0.28713817014E+02  0.00000000000E+00 0.  1.
</event>
<event>
 5    1  0.1285375E-004  0.9118800E+02  0.7818608E-02  0.1130116E+00
         25   -1    0    0    0    0  0.00000000000E+00  0.00000000000E+00  0.99999998245E-14  0.12500000000E+03  0.12500000000E+03 0.  0.
        -13    1    3    3    0    0  0.30046570292E+02 -0.43847451464E+02 -0.24937359340E+02  0.58713528603E+02  0.10566000000E+00 0.  1.
         23    2    1    0    0    0 -0.11882298172E+00 -0.25375726929E+02 -0.15274876064E+02  0.95381366088E+02  0.90666099077E+02 0.  0.
         13    1    3    3    0    0 -0.30165393274E+02  0.18471724535E+02  0.96624832762E+01  0.36667837484E+02  0.10566000000E+00 0. -1.
         22    1    1    0    0    0  0.11882298172E+00  0.25375726929E+02  0.15274876064E+02  0.29618633912E+02  0.00000000000E+00 0.  1.
</event>
<event>
 5    1  0.1285375E-004  0.9118800E+02  0.7818608E-02  0.1130116E+00
         25   -1    0    0    0    0  0.00000000000E+00  0.00000000000E+00  0.99999998245E-14  0.12500000000E+03  0.12500000000E+03 0.  0.
        -13    1    3    3    0    0  0.20738042163E+02 -0.37764782926E+02  0.33352984570E+00  0.43085584926E+02  0.10566000000E+00 0.  1.
         23    2    1    0    0    0 -0.11728403755E+02 -0.53438541369E+00 -0.24097110474E+02  0.98194930413E+02  0.94465510125E+02 0.  0.
         13    1    3    3    0    0 -0.32466445918E+02  0.37230397513E+02 -0.24430640319E+02  0.55109345486E+02  0.10566000000E+00 0. -1.
         22    1    1    0    0    0  0.11728403755E+02  0.53438541369E+00  0.24097110474E+02  0.26805069587E+02  0.00000000000E+00 0. -1.
</event>
<event>
 5    1  0.1285375E-004  0.9118800E+02  0.7818608E-02  0.1130116E+00
         25   -1    0    0    0    0  0.00000000000E+00  0.00000000000E+00  0.99999998245E-14  0.12500000000E+03  0.12500000000E+03 0.  0.
        -13    1    3    3    0    0 -0.21506495270E+02  0.19838619048E+02 -0.28011018784E+02  0.40505906753E+02  0.10566000000E+00 0. -1.
         23    2    1    0    0    0  0.13752202562E+02  0.91909199256E+01  0.18728198052E+02  0.10001317374E+03  0.96841589384E+02 0.  0.
         13    1    3    3    0    0  0.35258697832E+02 -0.10647699122E+02  0.46739216837E+02  0.59507266984E+02  0.10566000000E+00 0.  1.
         22    1    1    0    0    0 -0.13752202562E+02 -0.91909199256E+01 -0.18728198052E+02  0.24986826263E+02  0.00000000000E+00 0.  1.
</event>
<event>
 5    1  0.1285375E-004  0.9118800E+02  0.7818608E-02  0.1130116E+00
         25   -1    0    0    0    0  0.00000000000E+00  0.00000000000E+00  0.99999998245E-14  0.12500000000E+03  0.12500000000E+03 0.  0.
        -13    1    3    3    0    0 -0.39497433391E+02 -0.12237629326E+02  0.69489398624E+01  0.41929771585E+02  0.10566000000E+00 0.  1.
         23    2    1    0    0    0  0.40465840501E+01  0.23229277756E+02  0.12408952284E+02  0.98354995134E+02  0.94677076336E+02 0.  0.
         13    1    3    3    0    0  0.43544017441E+02  0.35466907081E+02  0.54600124216E+01  0.56425223548E+02  0.10566000000E+00 0. -1.
         22    1    1    0    0    0 -0.40465840501E+01 -0.23229277756E+02 -0.12408952284E+02  0.26645004866E+02  0.00000000000E+00 0. -1.
</event>
<event>
 5    1  0.1285375E-004  0.9118800E+02  0.7818608E-02  0.1130116E+00
         25   -1    0    0    0    0  0.00000000000E+00  0.00000000000E+00  0.99999998245E-14  0.12500000000E+03  0.12500000000E+03 0.  0.
        -13    1    3    3    0    0  0.50537623040E+00 -0.27567921864E+02 -0.31320419408E+02  0.41727994883E+02  0.10566000000E+00 0.  1.
         23    2    1    0    0    0 -0.17911046775E+02  0.17119178437E+02  0.15430143503E+01  0.10017556123E+03  0.97050967578E+02 0.  0.
         13    1    3    3    0    0 -0.18416423005E+02  0.44687100301E+02  0.32863433758E+02  0.58447566348E+02  0.10566000000E+00 0. -1.
         22    1    1    0    0    0  0.17911046775E+02 -0.17119178437E+02 -0.15430143503E+01  0.24824438769E+02  0.00000000000E+00 0. -1.
</event>
<event>
 5    1  0.1285375E-004  0.9118800E+02  0.7818608E-02  0.1130116E+00
         25   -1    0    0    0    0  0.00000000000E+00  0.00000000000E+00  0.99999998245E-14  0.12500000000E+03  0.12500000000E+03 0.  0.
        -13    1    3    3    0    0 -0.45687326429E+01  0.28295262572E+02  0.14670352000E+02  0.32198223457E+02  0.10566000000E+00 0.  1.
         23    2    1    0    0    0  0.98079660777E+00 -0.18785415949E+02 -0.24791328516E+02  0.93879849230E+02  0.88571791828E+02 0.  0.
         13    1    3    3    0    0  0.55495292507E+01 -0.47080678521E+02 -0.39461680515E+02  0.61681625773E+02  0.10566000000E+00 0. -1.
         22    1    1    0    0    0 -0.98079660777E+00  0.18785415949E+02  0.24791328516E+02  0.31120150770E+02  0.00000000000E+00 0. -1.
</event>
<event>
 5    1  0.1285375E-004  0.9118800E+02  0.7818608E-02  0.1130116E+00
         25   -1    0    0    0    0  0.00000000000E+00  0.00000000000E+00  0.99999998245E-14  0.12500000000E+03  0.12500000000E+03 0.  0.
        -13    1    3    3    0    0 -0.24472946465E+02  0.32344270976E+02  0.27596969019E+02  0.49057933474E+02  0.10566000000E+00 0.  1.
         23    2    1    0    0    0 -0.73164840826E+00 -0.79589111458E+01  0.28047202158E+02  0.95836236099E+02  0.91291067606E+02 0.  0.
         13    1    3    3    0    0  0.23741298056E+02 -0.40303182122E+02  0.45023313869E+00  0.46778302625E+02  0.10566000000E+00 0. -1.
         22    1    1    0    0    0  0.73164840826E+00  0.79589111458E+01 -0.28047202158E+02  0.29163763901E+02  0.00000000000E+00 0. -1.
</event>
<event>
 5    1  0.1285375E-004  0.9118800E+02  0.7818608E-02  0.1130116E+00
         25   -1    0    0    0    0  0.00000000000E+00  0.00000000000E+00  0.99999998245E-14  0.12500000000E+03  0.12500000000E+03 0.  0.
        -13    1    3    3    0    0  0.19289399361E+02  0.51299849973E+02 -0.17983861641E+01  0.54836127615E+02  0.10566000000E+00 0. -1.
         23    2    1    0    0    0  0.13134298802E+02  0.12763693394E+02  0.18622284859E+02  0.98880827589E+02  0.95368794148E+02 0.  0.
         13    1    3    3    0    0 -0.61551005591E+01 -0.38536156579E+02  0.20420671023E+02  0.44044699975E+02  0.10566000000E+00 0.  1.
         22    1    1    0    0    0 -0.13134298802E+02 -0.12763693394E+02 -0.18622284859E+02  0.26119172411E+02  0.00000000000E+00 0.  1.
</event>
<event>
 5    1  0.1285375E-004  0.9118800E+02  0.7818608E-02  0.1130116E+00
         25   -1    0    0    0    0  0.00000000000E+00  0.00000000000E+00  0.99999998245E-14  0.12500000000E+03  0.12500000000E+03 0.  0.
        -13    1    3    3    0    0 -0.31747275547E+01  0.61078670798E+02 -0.11638114764E+02  0.62258652417E+02  0.10566000000E+00 0.  1.
         23    2    1    0    0    0  0.16443452739E+01  0.30832134246E+02 -0.36675803712E+01  0.93906986005E+02  0.88610081262E+02 0.  0.
         13    1    3    3    0    0  0.48190728286E+01 -0.30246536552E+02  0.79705343925E+01  0.31648333588E+02  0.10566000000E+00 0. -1.
         22    1    1    0    0    0 -0.16443452739E+01 -0.30832134246E+02  0.36675803712E+01  0.31093013995E+02  0.00000000000E+00 0.  1.
</event>
<event>
 5    1  0.1285375E-004  0.9118800E+02  0.7818608E-02  0.1130116E+00
         25   -1    0    0    0    0  0.00000000000E+00  0.00000000000E+00  0.99999998245E-14  0.12500000000E+03  0.12500000000E+03 0.  0.
        -13    1    3    3    0    0  0.19421518389E+02  0.43171361483E+02 -0.22735190054E+02  0.52515348800E+02  0.10566000000E+00 0. -1.
         23    2    1    0    0    0 -0.93117864570E+01  0.27471562096E+02  0.51697530723E+01  0.95536082442E+02  0.90879153883E+02 0.  0.
         13    1    3    3    0    0 -0.28733304846E+02 -0.15699799386E+02  0.27904943126E+02  0.43020733642E+02  0.10566000000E+00 0.  1.
         22    1    1    0    0    0  0.93117864570E+01 -0.27471562096E+02 -0.51697530723E+01  0.29463917558E+02  0.00000000000E+00 0. -1.
</event>
<event>
 5    1  0.1285375E-004  0.9118800E+02  0.7818608E-02  0.1130116E+00
         25   -1    0    0    0    0  0.00000000000E+00  0.00000000000E+00  0.99999998245E-14  0.12500000000E+03  0.12500000000E+03 0.  0.
        -13    1    3    3    0    0 -0.68336888168E+01 -0.67794521097E+00  0.34692386945E+02  0.35365686598E+02  0.10566000000E+00 0.  1.
         23    2    1    0    0    0 -0.11948092762E+02  0.23062891350E+01 -0.25972087089E+02  0.96318556557E+02  0.91949111682E+02 0.  0.
         13    1    3    3    0    0 -0.51144039448E+01  0.29842343460E+01 -0.60664474034E+02  0.60952869959E+02  0.10566000000E+00 0. -1.
         22    1    1    0    0    0  0.11948092762E+02 -0.23062891350E+01  0.25972087089E+02  0.28681443443E+02  0.00000000000E+00 0. -1.
</event>
<event>
 5    1  0.1285375E-004  0.9118800E+02  0.7818608E-02  0.1130116E+00
         25   -1    0    0    0    0  0.00000000000E+00  0.00000000000E+00  0.99999998245E-14  0.12500000000E+03  0.12500000000E+03 0.  0.
        -13    1    3    3    0    0  0.37716289977E+02 -0.14068169606E+01  0.22399491449E+02  0.43889019639E+02  0.10566000000E+00 0. -1.
         23    2    1    0    0    0 -0.11781323946E+02  0.12030098238E+02  0.24558354410E+02  0.95223572597E+02  0.90448289919E+02 0.  0.
         13    1    3    3    0    0 -0.49497613923E+02  0.13436915199E+02  0.21588629609E+01  0.51334552958E+02  0.10566000000E+00 0.  1.
         22    1    1    0    0    0  0.11781323946E+02 -0.12030098238E+02 -0.24558354410E+02  0.29776427403E+02  0.00000000000E+00 0. -1.
</event>
<event>
 5    1  0.1285375E-004  0.9118800E+02  0.7818608E-02  0.1130116E+00
         25   -1    0    0    0    0  0.00000000000E+00  0.00000000000E+00  0.99999998245E-14  0.12500000000E+03  0.12500000000E+03 0.  0.
        -13    1    3    3    0    0 -0.12676707150E+02 -0.56054700094E+02 -0.43571857537E+01  0.57635271653E+02  0.10566000000E+00 0. -1.
         23    2    1    0    0    0 -0.13633777748E+02 -0.20932829218E+02  0.13016320731E+02  0.96831083796E+02  0.92643245566E+02 0.  0.
         13    1    3    3    0    0 -0.95707059813E+00  0.35121870876E+02  0.17373506485E+02  0.39195812143E+02  0.10566000000E+00 0.  1.
         22    1    1    0    0    0  0.13633777748E+02  0.20932829218E+02 -0.13016320731E+02  0.28168916204E+02  0.00000000000E+00 0.  1.
</event>
<event>
 5    1  0.1285375E-004  0.9118800E+02  0.7818608E-02  0.1130116E+00
         25   -1    0    0    0    0  0.00000000000E+00  0.00000000000E+00  0.99999998245E-14  0.12500000000E+03  0.12500000000E+03 0.  0.
        -13    1    3    3    0    0 -0.27569110214E+02  0.13728063032E+02  0.46926568135E+02  0.56130468674E+02  0.10566000000E+00 0.  1.
         23    2    1    0    0    0 -0.67949373295E+01  0.23981987401E+02  0.13936804319E+02  0.96442314386E+02  0.92117200329E+02 0.  0.
         13    1    3    3    0    0  0.20774172884E+02  0.10253924369E+02 -0.32989763816E+02  0.40311845712E+02  0.10566000000E+00 0. -1.
         22    1    1    0    0    0  0.67949373295E+01 -0.23981987401E+02 -0.13936804319E+02  0.28557685614E+02  0.00000000000E+00 0.  1.
</event>
<event>
 5    1  0.1285375E-004  0.9118800E+02  0.7818608E-02  0.1130116E+00
         25   -1    0    0    0    0  0.00000000000E+00  0.00000000000E+00  0.99999998245E-14  0.12500000000E+03  0.12500000000E+03 0.  0.
        -13    1    3    3    0    0  0.38768487309E+02 -0.18848721307E+02 -0.24060892438E+02  0.49368082929E+02  0.10566000000E+00 0.  1.
         23    2    1    0    0    0  0.24149539664E+02  0.17414678362E+02 -0.98313313452E-01  0.95226169982E+02  0.90451879447E+02 0.  0.
         13    1    3    3    0    0 -0.14618947645E+02  0.36263399669E+02  0.23962579125E+02  0.45858087053E+02  0.10566000000E+00 0. -1.
         22    1    1    0    0    0 -0.24149539664E+02 -0.17414678362E+02  0.98313313452E-01  0.29773830018E+02  0.00000000000E+00 0. -1.
</event>
<event>
 5    1  0.1285375E-004  0.9118800E+02  0.7818608E-02  0.1130116E+00
         25   -1    0    0    0    0  0.00000000000E+00  0.00000000000E+00  0.99999998245E-14  0.12500000000E+03  0.12500000000E+03 0.  0.
        -13    1    3    3    0    0 -0.18302788005E+02 -0.35326892620E+02  0.48109163883E+01  0.40076644963E+02  0.10566000000E+00 0. -1.
         23    2    1    0    0    0  0.13535439846E+02  0.18029696505E+02  0.31796524548E+01  0.10223185827E+03  0.99664259234E+02 0.  0.
         13    1    3    3    0    0  0.31838227852E+02  0.53356589125E+02 -0.16312639335E+01  0.62155213312E+02  0.10566000000E+00 0.  1.
         22    1    1    0    0    0 -0.13535439846E+02 -0.18029696505E+02 -0.31796524548E+01  0.22768141725E+02  0.00000000000E+00 0.  1.
</event>
<event>
 5    1  0.1285375E-004  0.9118800E+02  0.7818608E-02  0.1130116E+00
         25   -1    0    0    0    0  0.00000000000E+00  0.00000000000E+00  0.99999998245E-14  0.12500000000E+03  0.12500000000E+03 0.  0.
        -13    1    3    3    0    0 -0.14081911047E+02  0.86539010643E+01 -0.34200050318E+02  0.37984797329E+02  0.10566000000E+00 0.  1.
         23    2    1    0    0    0  0.10660139851E+02  0.22870594299E+02  0.15566270844E+02  0.95351872687E+02  0.90625427843E+02 0.  0.
         13    1    3    3    0    0  0.24742050897E+02  0.14216693234E+02  0.49766321161E+02  0.57367075358E+02  0.10566000000E+00 0. -1.
         22    1    1    0    0    0 -0.10660139851E+02 -0.22870594299E+02 -0.15566270844E+02  0.29648127313E+02  0.00000000000E+00 0. -1.
</event>
<event>
 5    1  0.1285375E-004  0.9118800E+02  0.7818608E-02  0.1130116E+00
         25   -1    0    0    0    0  0.00000000000E+00  0.00000000000E+00  0.99999998245E-14  0.12500000000E+03  0.12500000000E+03 0.  0.
        -13    1    3    3    0    0 -0.13877778083E+02  0.32769093611E+02 -0.29647124221E+02  0.46318132078E+02  0.10566000000E+00 0.  1.
         23    2    1    0    0    0  0.24761522940E+02  0.18133633295E+02 -0.18693898895E+02  0.89063618287E+02  0.81491745421E+02 0.  0.
         13    1    3    3    0    0  0.38639301023E+02 -0.14635460316E+02  0.10953225326E+02  0.42745486209E+02  0.10566000000E+00 0. -1.
         22    1    1    0    0    0 -0.24761522940E+02 -0.18133633295E+02  0.18693898895E+02  0.35936381713E+02  0.00000000000E+00 0. -1.
</event>
<event>
 5    1  0.1285375E-004  0.9118800E+02  0.7818608E-02  0.1130116E+00
         25   -1    0    0    0    0  0.00000000000E+00  0.00000000000E+00  0.99999998245E-14  0.12500000000E+03  0.12500000000E+03 0.  0.
        -13    1    3    3    0    0  0.57249990823E+02 -0.22886236112E+02 -0.80658712782E+01  0.62180468768E+02  0.10566000000E+00 0.  1.
         23    2    1    0    0    0  0.22656976876E+02 -0.11440510238E+02 -0.71544180515E+01  0.98629380490E+02  0.95038650677E+02 0.  0.
         13    1    3    3    0    0 -0.34593013947E+02  0.11445725874E+02  0.91145322666E+00  0.36448911722E+02  0.10566000000E+00 0. -1.
         22    1    1    0    0    0 -0.22656976876E+02  0.11440510238E+02  0.71544180515E+01  0.26370619510E+02  0.00000000000E+00 0.  1.
</event>
<event>
 5    1  0.1285375E-004  0.9118800E+02  0.7818608E-02  0.1130116E+00
         25   -1    0    0    0    0  0.00000000000E+00  0.00000000000E+00  0.99999998245E-14  0.12500000000E+03  0.12500000000E+03 0.  0.
        -13    1    3    3    0    0  0.84407372274E+01  0.60919138704E+00 -0.33334627419E+02  0.34392233255E+02  0.10566000000E+00 0.  1.
         23    2    1    0    0    0 -0.10421700979E+02  0.14743315683E+02  0.23175901608E+02  0.95621442786E+02  0.90996487275E+02 0.  0.
         13    1    3    3    0    0 -0.18862438207E+02  0.14134124296E+02  0.56510529027E+02  0.61229209530E+02  0.10566000000E+00 0. -1.
         22    1    1    0    0    0  0.10421700979E+02 -0.14743315683E+02 -0.23175901608E+02  0.29378557214E+02  0.00000000000E+00 0. -1.
</event>
<event>
 5    1  0.1285375E-004  0.9118800E+02  0.7818608E-02  0.1130116E+00
         25   -1    0    0    0    0  0.00000000000E+00  0.00000000000E+00  0.99999998245E-14  0.12500000000E+03  0.12500000000E+03 0.  0.
        -13    1    3    3    0    0 -0.33324827214E+02 -0.80974768670E+01  0.22499162107E+02  0.41016297980E+02  0.10566000000E+00 0.  1.
         23    2    1    0    0    0  0.15640124381E+02 -0.24638988757E+02  0.67571929882E+01  0.95044150576E+02  0.90199986940E+02 0.  0.
         13    1    3    3    0    0  0.48964951595E+02 -0.16541511890E+02 -0.15741969119E+02  0.54027852596E+02  0.10566000000E+00 0. -1.
         22    1    1    0    0    0 -0.15640124381E+02  0.24638988757E+02 -0.67571929882E+01  0.29955849424E+02  0.00000000000E+00 0. -1.
</event>
<event>
 5    1  0.1285375E-004  0.9118800E+02  0.7818608E-02  0.1130116E+00
         25   -1    0    0    0    0  0.00000000000E+00  0.00000000000E+00  0.99999998245E-14  0.12500000000E+03  0.12500000000E+03 0.  0.
        -13    1    3    3    0    0  0.11372018495E+02  0.71351905824E+00  0.59899737838E+02  0.60973942559E+02  0.10566000000E+00 0.  1.
         23    2    1    0    0    0  0.54915324019E+01 -0.93929271431E+01  0.26984045281E+02  0.95904936704E+02  0.91385087274E+02 0.  0.
         13    1    3    3    0    0 -0.58804860929E+01 -0.10106446201E+02 -0.32915692556E+02  0.34930994146E+02  0.10566000000E+00 0. -1.
         22    1    1    0    0    0 -0.54915324019E+01  0.93929271431E+01 -0.26984045281E+02  0.29095063296E+02  0.00000000000E+00 0.  1.
</event>
<event>
 5    1  0.1285375E-004  0.9118800E+02  0.7818608E-02  0.1130116E+00
         25   -1    0    0    0    0  0.00000000000E+00  0.00000000000E+00  0.99999998245E-14  0.12500000000E+03  0.12500000000E+03 0.  0.
        -13    1    3    3    0    0 -0.16479785877E+02  0.57109092369E+02 -0.65637490723E+01  0.59800716883E+02  0.10566000000E+00 0. -1.
         23    2    1    0    0    0 -0.14924294237E+01  0.25895994225E+02 -0.14443318115E+02  0.95310956556E+02  0.90568974483E+02 0.  0.
         13    1    3    3    0    0  0.14987356453E+02 -0.31213098145E+02 -0.78795690431E+01  0.35510239673E+02  0.10566000000E+00 0.  1.
         22    1    1    0    0    0  0.14924294237E+01 -0.25895994225E+02  0.14443318115E+02  0.29689043444E+02  0.00000000000E+00 0. -1.
</event>
<event>
 5    1  0.1285375E-004  0.9118800E+02  0.7818608E-02  0.1130116E+00
         25   -1    0    0    0    0  0.00000000000E+00  0.00000000000E+00  0.99999998245E-14  0.12500000000E+03  0.12500000000E+03 0.  0.
        -13    1    3    3    0    0 -0.94560686172E+01  0.32871046052E+02  0.10195090677E+02  0.35691370668E+02  0.10566000000E+00 0.  1.
         23    2    1    0    0    0  0.20079915232E+02 -0.12207543650E+02 -0.16940948948E+02  0.96030656394E+02  0.91556889957E+02 0.  0.
         13    1    3    3    0    0  0.29535983849E+02 -0.45078589701E+02 -0.27136039625E+02  0.60339285726E+02  0.10566000000E+00 0. -1.
         22    1    1    0    0    0 -0.20079915232E+02  0.12207543650E+02  0.16940948948E+02  0.28969343606E+02  0.00000000000E+00 0. -1.
</event>
<event>
 4    1  0.1285375E-004  0.9118800E+02  0.7818608E-02  0.1130116E+00
         25   -1    0    0    0    0  0.00000000000E+00  0.00000000000E+00  0.99999998245E-14  0.12500000000E+03  0.12500000000E+03 0.  0.
        -13    1    1    0    0    0 -0.83544718285E+01  0.22519498338E+01  0.29605010930E+01  0.91457207668E+01  0.10566000000E+00 0.  1.
         13    1    1    0    0    0  0.60221322844E+02 -0.12843818771E+02  0.70523068370E+01  0.61978363979E+02  0.10566000000E+00 0. -1.
         22    1    1    0    0    0 -0.51866851016E+02  0.10591868938E+02 -0.10012807930E+02  0.53875915254E+02  0.00000000000E+00 0. -1.
</event>
<event>
 5    1  0.1285375E-004  0.9118800E+02  0.7818608E-02  0.1130116E+00
         25   -1    0    0    0    0  0.00000000000E+00  0.00000000000E+00  0.99999998245E-14  0.12500000000E+03  0.12500000000E+03 0.  0.
        -13    1    3    3    0    0  0.67056486384E+01  0.29473795491E+02  0.46932105069E+02  0.55823865816E+02  0.10566000000E+00 0. -1.
         23    2    1    0    0    0  0.14412464634E+02  0.25819895109E+02  0.99135432331E+01  0.93812431007E+02  0.88476594372E+02 0.  0.
         13    1    3    3    0    0  0.77068159956E+01 -0.36539003820E+01 -0.37018561836E+02  0.37988565191E+02  0.10566000000E+00 0.  1.
         22    1    1    0    0    0 -0.14412464634E+02 -0.25819895109E+02 -0.99135432331E+01  0.31187568993E+02  0.00000000000E+00 0. -1.
</event>
<event>
 5    1  0.1285375E-004  0.9118800E+02  0.7818608E-02  0.1130116E+00
         25   -1    0    0    0    0  0.00000000000E+00  0.00000000000E+00  0.99999998245E-14  0.12500000000E+03  0.12500000000E+03 0.  0.
        -13    1    3    3    0    0  0.45094703011E+02  0.36190496607E+02 -0.11370178603E+02  0.58928570403E+02  0.10566000000E+00 0.  1.
         23    2    1    0    0    0  0.11744532213E+02  0.20686087051E+02 -0.16482095309E+02  0.96060274705E+02  0.91597318063E+02 0.  0.
         13    1    3    3    0    0 -0.33350170798E+02 -0.15504409556E+02 -0.51119167059E+01  0.37131704302E+02  0.10566000000E+00 0. -1.
         22    1    1    0    0    0 -0.11744532213E+02 -0.20686087051E+02  0.16482095309E+02  0.28939725295E+02  0.00000000000E+00 0.  1.
</event>
<event>
 5    1  0.1285375E-004  0.9118800E+02  0.7818608E-02  0.1130116E+00
         25   -1    0    0    0    0  0.00000000000E+00  0.00000000000E+00  0.99999998245E-14  0.12500000000E+03  0.12500000000E+03 0.  0.
        -13    1    3    3    0    0 -0.24004011692E+02 -0.22383622633E+02 -0.27606785909E+02  0.42887817988E+02  0.10566000000E+00 0. -1.
         23    2    1    0    0    0  0.13520998400E+02 -0.24033026814E+02  0.96423929414E+01  0.95787339779E+02  0.91224091909E+02 0.  0.
         13    1    3    3    0    0  0.37525010093E+02 -0.16494041810E+01  0.37249178850E+02  0.52899521791E+02  0.10566000000E+00 0.  1.
         22    1    1    0    0    0 -0.13520998400E+02  0.24033026814E+02 -0.96423929414E+01  0.29212660221E+02  0.00000000000E+00 0.  1.
</event>
<event>
 5    1  0.1285375E-004  0.9118800E+02  0.7818608E-02  0.1130116E+00
         25   -1    0    0    0    0  0.00000000000E+00  0.00000000000E+00  0.99999998245E-14  0.12500000000E+03  0.12500000000E+03 0.  0.
        -13    1    3    3    0    0 -0.24845987694E+02 -0.27742323742E+02 -0.14899654550E+02  0.40111974531E+02  0.10566000000E+00 0. -1.
         23    2    1    0    0    0  0.22260270641E+02  0.12508110119E+01 -0.19178286673E+02  0.95590973207E+02  0.90954622212E+02 0.  0.
         13    1    3    3    0    0  0.47106258335E+02  0.28993134754E+02 -0.42786321237E+01  0.55478998675E+02  0.10566000000E+00 0.  1.
         22    1    1    0    0    0 -0.22260270641E+02 -0.12508110119E+01  0.19178286673E+02  0.29409026793E+02  0.00000000000E+00 0.  1.
</event>
<event>
 5    1  0.1285375E-004  0.9118800E+02  0.7818608E-02  0.1130116E+00
         25   -1    0    0    0    0  0.00000000000E+00  0.00000000000E+00  0.99999998245E-14  0.12500000000E+03  0.12500000000E+03 0.  0.
        -13    1    3    3    0    0  0.14732058188E+02 -0.47227778978E+02 -0.13663028124E+02  0.51324323154E+02  0.10566000000E+00 0.  1.
         23    2    1    0    0    0 -0.16888214158E+02 -0.19762515458E+02 -0.17924716669E+02  0.93423675604E+02  0.87925644160E+02 0.  0.
         13    1    3    3    0    0 -0.31620272346E+02  0.27465263520E+02 -0.42616885455E+01  0.42099352451E+02  0.10566000000E+00 0. -1.
         22    1    1    0    0    0  0.16888214158E+02  0.19762515458E+02  0.17924716669E+02  0.31576324396E+02  0.00000000000E+00 0.  1.
</event>
<event>
 5    1  0.1285375E-004  0.9118800E+02  0.7818608E-02  0.1130116E+00
         25   -1    0    0    0    0  0.00000000000E+00  0.00000000000E+00  0.99999998245E-14  0.12500000000E+03  0.12500000000E+03 0.  0.
        -13    1    3    3    0    0 -0.83921794315E+01  0.32976085199E+02 -0.91249120297E+01  0.35229618991E+02  0.10566000000E+00 0. -1.
         23    2    1    0    0    0  0.12757719356E+02 -0.22304047055E+02 -0.15867625579E+02  0.94800472525E+02  0.89861661075E+02 0.  0.
         13    1    3    3    0    0  0.21149898788E+02 -0.55280132254E+02 -0.67427135497E+01  0.59570853534E+02  0.10566000000E+00 0.  1.
         22    1    1    0    0    0 -0.12757719356E+02  0.22304047055E+02  0.15867625579E+02  0.30199527475E+02  0.00000000000E+00 0.  1.
</event>
<event>
 5    1  0.1285375E-004  0.9118800E+02  0.7818608E-02  0.1130116E+00
         25   -1    0    0    0    0  0.00000000000E+00  0.00000000000E+00  0.99999998245E-14  0.12500000000E+03  0.12500000000E+03 0.  0.
        -13    1    3    3    0    0  0.15201801993E+02  0.42526577116E+02  0.19257834795E+02  0.49096638480E+02  0.10566000000E+00 0. -1.
         23    2    1    0    0    0  0.27718760300E+02  0.89209628897E+00 -0.14023915400E+01  0.97231452858E+02  0.93181882437E+02 0.  0.
         13    1    3    3    0    0  0.12516958307E+02 -0.41634480827E+02 -0.20660226335E+02  0.48134814378E+02  0.10566000000E+00 0.  1.
         22    1    1    0    0    0 -0.27718760300E+02 -0.89209628897E+00  0.14023915400E+01  0.27768547142E+02  0.00000000000E+00 0.  1.
</event>
<event>
 5    1  0.1285375E-004  0.9118800E+02  0.7818608E-02  0.1130116E+00
         25   -1    0    0    0    0  0.00000000000E+00  0.00000000000E+00  0.99999998245E-14  0.12500000000E+03  0.12500000000E+03 0.  0.
        -13    1    3    3    0    0 -0.38471635291E+02  0.25068627248E+02  0.37105711948E+02  0.59036834411E+02  0.10566000000E+00 0.  1.
         23    2    1    0    0    0 -0.27681838292E+02  0.21367813489E+02  0.97179324878E+01  0.88705291896E+02  0.80940243229E+02 0.  0.
         13    1    3    3    0    0  0.10789796999E+02 -0.37008137592E+01 -0.27387779460E+02  0.29668457485E+02  0.10566000000E+00 0. -1.
         22    1    1    0    0    0  0.27681838292E+02 -0.21367813489E+02 -0.97179324878E+01  0.36294708104E+02  0.00000000000E+00 0.  1.
</event>
<event>
 5    1  0.1285375E-004  0.9118800E+02  0.7818608E-02  0.1130116E+00
         25   -1    0    0    0    0  0.00000000000E+00  0.00000000000E+00  0.99999998245E-14  0.12500000000E+03  0.12500000000E+03 0.  0.
        -13    1    3    3    0    0 -0.23756975756E+02 -0.23759395510E+02  0.44872701221E+02  0.56057767089E+02  0.10566000000E+00 0.  1.
         23    2    1    0    0    0 -0.70361493272E+01  0.76866922637E+01  0.27312831269E+02  0.95766741761E+02  0.91195863066E+02 0.  0.
         13    1    3    3    0    0  0.16720826429E+02  0.31446087774E+02 -0.17559869952E+02  0.39708974672E+02  0.10566000000E+00 0. -1.
         22    1    1    0    0    0  0.70361493272E+01 -0.76866922637E+01 -0.27312831269E+02  0.29233258239E+02  0.00000000000E+00 0.  1.
</event>
<event>
 5    1  0.1285375E-004  0.9118800E+02  0.7818608E-02  0.1130116E+00
         25   -1    0    0    0    0  0.00000000000E+00  0.00000000000E+00  0.99999998245E-14  0.12500000000E+03  0.12500000000E+03 0.  0.
        -13    1    3    3    0    0 -0.45978459478E+02 -0.22863028269E+02 -0.20444851388E+02  0.55269701555E+02  0.10566000000E+00 0. -1.
         23    2    1    0    0    0 -0.10952805474E+02 -0.28125936770E+02 -0.15615820493E+02  0.91016384586E+02  0.84433975073E+02 0.  0.
         13    1    3    3    0    0  0.35025654005E+02 -0.52629085008E+01  0.48290308955E+01  0.35746683032E+02  0.10566000000E+00 0.  1.
         22    1    1    0    0    0  0.10952805474E+02  0.28125936770E+02  0.15615820493E+02  0.33983615414E+02  0.00000000000E+00 0. -1.
</event>
<event>
 5    1  0.1285375E-004  0.9118800E+02  0.7818608E-02  0.1130116E+00
         25   -1    0    0    0    0  0.00000000000E+00  0.00000000000E+00  0.99999998245E-14  0.12500000000E+03  0.12500000000E+03 0.  0.
        -13    1    3    3    0    0 -0.28739455667E+02 -0.43759878327E+02 -0.21768164199E+02  0.56698742489E+02  0.10566000000E+00 0. -1.
         23    2    1    0    0    0 -0.24574156274E+02 -0.15255563695E+02  0.45522947975E+01  0.95719549728E+02  0.91131155111E+02 0.  0.
         13    1    3    3    0    0  0.41652993927E+01  0.28504314632E+02  0.26320458997E+02  0.39020807238E+02  0.10566000000E+00 0.  1.
         22    1    1    0    0    0  0.24574156274E+02  0.15255563695E+02 -0.45522947975E+01  0.29280450272E+02  0.00000000000E+00 0. -1.
</event>
<event>
 5    1  0.1285375E-004  0.9118800E+02  0.7818608E-02  0.1130116E+00
         25   -1    0    0    0    0  0.00000000000E+00  0.00000000000E+00  0.99999998245E-14  0.12500000000E+03  0.12500000000E+03 0.  0.
        -13    1    3    3    0    0  0.41931389507E+02 -0.39958656533E+02 -0.94786357416E+01  0.58692344965E+02  0.10566000000E+00 0. -1.
         23    2    1    0    0    0  0.20800427707E+02 -0.10975855533E+02 -0.17789842945E+02  0.95510922200E+02  0.90844540563E+02 0.  0.
         13    1    3    3    0    0 -0.21130961801E+02  0.28982800999E+02 -0.83112072039E+01  0.36818577235E+02  0.10566000000E+00 0.  1.
         22    1    1    0    0    0 -0.20800427707E+02  0.10975855533E+02  0.17789842945E+02  0.29489077800E+02  0.00000000000E+00 0. -1.
</event>
<event>
 5    1  0.1285375E-004  0.9118800E+02  0.7818608E-02  0.1130116E+00
         25   -1    0    0    0    0  0.00000000000E+00  0.00000000000E+00  0.99999998245E-14  0.12500000000E+03  0.12500000000E+03 0.  0.
        -13    1    3    3    0    0  0.26815442014E+02  0.27716107983E+02  0.97059154920E+01  0.39767656854E+02  0.10566000000E+00 0.  1.
         23    2    1    0    0    0 -0.24075902676E+02  0.16042707789E+02 -0.81384991096E+01  0.94945836717E+02  0.90063639607E+02 0.  0.
         13    1    3    3    0    0 -0.50891344690E+02 -0.11673400194E+02 -0.17844414602E+02  0.55178179863E+02  0.10566000000E+00 0. -1.
         22    1    1    0    0    0  0.24075902676E+02 -0.16042707789E+02  0.81384991096E+01  0.30054163283E+02  0.00000000000E+00 0. -1.
</event>
<event>
 5    1  0.1285375E-004  0.9118800E+02  0.7818608E-02  0.1130116E+00
         25   -1    0    0    0    0  0.00000000000E+00  0.00000000000E+00  0.99999998245E-14  0.12500000000E+03  0.12500000000E+03 0.  0.
        -13    1    3    3    0    0 -0.34364203338E+02 -0.18077412393E+02  0.77043752882E+01  0.39586107065E+02  0.10566000000E+00 0.  1.
         23    2    1    0    0    0  0.24232862854E+02 -0.29434870395E+01  0.43560461321E-01  0.10058898495E+03  0.97581997512E+02 0.  0.
         13    1    3    3    0    0  0.58597066192E+02  0.15133925354E+02 -0.76608148268E+01  0.61002877890E+02  0.10566000000E+00 0. -1.
         22    1    1    0    0    0 -0.24232862854E+02  0.29434870395E+01 -0.43560461321E-01  0.24411015046E+02  0.00000000000E+00 0. -1.
</event>
<event>
 5    1  0.1285375E-004  0.9118800E+02  0.7818608E-02  0.1130116E+00
         25   -1    0    0    0    0  0.00000000000E+00  0.00000000000E+00  0.99999998245E-14  0.12500000000E+03  0.12500000000E+03 0.  0.
        -13    1    3    3    0    0  0.11800045934E+02  0.40686387323E+02  0.12117756997E+02  0.44062165132E+02  0.10566000000E+00 0. -1.
         23    2    1    0    0    0  0.27933690223E+02 -0.51251344678E+01 -0.61291513267E+01  0.95946178414E+02  0.91441481853E+02 0.  0.
         13    1    3    3    0    0  0.16133644289E+02 -0.45811521791E+02 -0.18246908323E+02  0.51884013282E+02  0.10566000000E+00 0.  1.
         22    1    1    0    0    0 -0.27933690223E+02  0.51251344678E+01  0.61291513267E+01  0.29053821586E+02  0.00000000000E+00 0. -1.
</event>
<event>
 5    1  0.1285375E-004  0.9118800E+02  0.7818608E-02  0.1130116E+00
         25   -1    0    0    0    0  0.00000000000E+00  0.00000000000E+00  0.99999998245E-14  0.12500000000E+03  0.12500000000E+03 0.  0.
        -13    1    3    3    0    0  0.25652559686E+02 -0.18372888943E+02 -0.89204664236E+01  0.32790284412E+02  0.10566000000E+00 0.  1.
         23    2    1    0    0    0 -0.14744875569E+02  0.27074595896E+02 -0.58795788078E+00  0.94165104298E+02  0.88973457135E+02 0.  0.
         13    1    3    3    0    0 -0.40397435256E+02  0.45447484839E+02  0.83325085428E+01  0.61374819886E+02  0.10566000000E+00 0. -1.
         22    1    1    0    0    0  0.14744875569E+02 -0.27074595896E+02  0.58795788078E+00  0.30834895702E+02  0.00000000000E+00 0. -1.
</event>
<event>
 5    1  0.1285375E-004  0.9118800E+02  0.7818608E-02  0.1130116E+00
         25   -1    0    0    0    0  0.00000000000E+00  0.00000000000E+00  0.99999998245E-14  0.12500000000E+03  0.12500000000E+03 0.  0.
        -13    1    3    3    0    0 -0.30802370846E+02  0.50403226963E+02  0.12514352161E+02  0.60381218206E+02  0.10566000000E+00 0. -1.
         23    2    1    0    0    0 -0.72535664241E+01  0.24280939250E+02  0.14849143751E+02  0.95628665218E+02  0.91006408040E+02 0.  0.
         13    1    3    3    0    0  0.23548804422E+02 -0.26122287712E+02  0.23347915899E+01  0.35247447012E+02  0.10566000000E+00 0.  1.
         22    1    1    0    0    0  0.72535664241E+01 -0.24280939250E+02 -0.14849143751E+02  0.29371334782E+02  0.00000000000E+00 0. -1.
</event>
<event>
 5    1  0.1285375E-004  0.9118800E+02  0.7818608E-02  0.1130116E+00
         25   -1    0    0    0    0  0.00000000000E+00  0.00000000000E+00  0.99999998245E-14  0.12500000000E+03  0.12500000000E+03 0.  0.
        -13    1    3    3    0    0  0.35946486705E+02  0.46511761283E+02  0.11769452313E+02  0.59950187788E+02  0.10566000000E+00 0. -1.
         23    2    1    0    0    0  0.18037720721E+02  0.15556575562E+02  0.16499475788E+02  0.96024163286E+02  0.91548024672E+02 0.  0.
         13    1    3    3    0    0 -0.17908765984E+02 -0.30955185721E+02  0.47300234748E+01  0.36073975497E+02  0.10566000000E+00 0.  1.
         22    1    1    0    0    0 -0.18037720721E+02 -0.15556575562E+02 -0.16499475788E+02  0.28975836714E+02  0.00000000000E+00 0. -1.
</event>
<event>
 5    1  0.1285375E-004  0.9118800E+02  0.7818608E-02  0.1130116E+00
         25   -1    0    0    0    0  0.00000000000E+00  0.00000000000E+00  0.99999998245E-14  0.12500000000E+03  0.12500000000E+03 0.  0.
        -13    1    3    3    0    0  0.27133439530E+02 -0.26425661258E+02 -0.14456668367E+02  0.40540665238E+02  0.10566000000E+00 0.  1.
         23    2    1    0    0    0 -0.41777881413E+01  0.19116649576E+01  0.25745991258E+02  0.98847286134E+02  0.95324821183E+02 0.  0.
         13    1    3    3    0    0 -0.31311227671E+02  0.28337326216E+02  0.40202659625E+02  0.58306620896E+02  0.10566000000E+00 0. -1.
         22    1    1    0    0    0  0.41777881413E+01 -0.19116649576E+01 -0.25745991258E+02  0.26152713866E+02  0.00000000000E+00 0. -1.
</event>
<event>
 5    1  0.1285375E-004  0.9118800E+02  0.7818608E-02  0.1130116E+00
         25   -1    0    0    0    0  0.00000000000E+00  0.00000000000E+00  0.99999998245E-14  0.12500000000E+03  0.12500000000E+03 0.  0.
        -13    1    3    3    0    0  0.51159007159E+02 -0.19461616697E+02  0.11990462120E+02  0.56033747722E+02  0.10566000000E+00 0.  1.
         23    2    1    0    0    0  0.17410151166E+02 -0.23751299705E+02 -0.66261054857E+01  0.94814856714E+02  0.89881667644E+02 0.  0.
         13    1    3    3    0    0 -0.33748855993E+02 -0.42896830087E+01 -0.18616567606E+02  0.38781108992E+02  0.10566000000E+00 0. -1.
         22    1    1    0    0    0 -0.17410151166E+02  0.23751299705E+02  0.66261054857E+01  0.30185143286E+02  0.00000000000E+00 0.  1.
</event>
<event>
 5    1  0.1285375E-004  0.9118800E+02  0.7818608E-02  0.1130116E+00
         25   -1    0    0    0    0  0.00000000000E+00  0.00000000000E+00  0.99999998245E-14  0.12500000000E+03  0.12500000000E+03 0.  0.
        -13    1    3    3    0    0  0.14843942613E+02 -0.21373913728E+02  0.40895373005E+02  0.48472977189E+02  0.10566000000E+00 0. -1.
         23    2    1    0    0    0  0.12218548355E+02  0.18070812700E+02  0.26803610392E+02  0.90441633060E+02  0.83578754866E+02 0.  0.
         13    1    3    3    0    0 -0.26253942576E+01  0.39444726428E+02 -0.14091762613E+02  0.41968655870E+02  0.10566000000E+00 0.  1.
         22    1    1    0    0    0 -0.12218548355E+02 -0.18070812700E+02 -0.26803610392E+02  0.34558366940E+02  0.00000000000E+00 0. -1.
</event>
<event>
 5    1  0.1285375E-004  0.9118800E+02  0.7818608E-02  0.1130116E+00
         25   -1    0    0    0    0  0.00000000000E+00  0.00000000000E+00  0.99999998245E-14  0.12500000000E+03  0.12500000000E+03 0.  0.
        -13    1    3    3    0    0  0.63222360593E+01  0.51644338347E+02  0.13985256365E+01  0.52048778949E+02  0.10566000000E+00 0.  1.
         23    2    1    0    0    0 -0.20530704291E+02  0.20440272090E+02 -0.92802004622E+01  0.94579009510E+02  0.89553070173E+02 0.  0.
         13    1    3    3    0    0 -0.26852940351E+02 -0.31204066257E+02 -0.10678726099E+02  0.42530230561E+02  0.10566000000E+00 0. -1.
         22    1    1    0    0    0  0.20530704291E+02 -0.20440272090E+02  0.92802004622E+01  0.30420990490E+02  0.00000000000E+00 0.  1.
</event>
<event>
 5    1  0.1285375E-004  0.9118800E+02  0.7818608E-02  0.1130116E+00
         25   -1    0    0    0    0  0.00000000000E+00  0.00000000000E+00  0.99999998245E-14  0.12500000000E+03  0.12500000000E+03 0.  0.
        -13    1    3    3    0    0  0.37657099686E+02  0.20590366599E+02 -0.20695374206E+02  0.47647980346E+02  0.10566000000E+00 0.  1.
         23    2    1    0    0    0  0.74246605350E+01  0.23902089626E+02  0.15989023216E+02  0.95300095354E+02  0.90553983008E+02 0.  0.
         13    1    3    3    0    0 -0.30232439151E+02  0.33117230267E+01  0.36684397423E+02  0.47652115008E+02  0.10566000000E+00 0. -1.
         22    1    1    0    0    0 -0.74246605350E+01 -0.23902089626E+02 -0.15989023216E+02  0.29699904646E+02  0.00000000000E+00 0. -1.
</event>
<event>
 5    1  0.1285375E-004  0.9118800E+02  0.7818608E-02  0.1130116E+00
         25   -1    0    0    0    0  0.00000000000E+00  0.00000000000E+00  0.99999998245E-14  0.12500000000E+03  0.12500000000E+03 0.  0.
        -13    1    3    3    0    0 -0.18378709651E+02  0.18050595940E+02 -0.25751363376E+02  0.36424509083E+02  0.10566000000E+00 0.  1.
         23    2    1    0    0    0  0.90337841475E+01 -0.27509197741E+02  0.11688154931E+01  0.96021881600E+02  0.91544909197E+02 0.  0.
         13    1    3    3    0    0  0.27412493798E+02 -0.45559793681E+02  0.26920178869E+02  0.59597372516E+02  0.10566000000E+00 0. -1.
         22    1    1    0    0    0 -0.90337841475E+01  0.27509197741E+02 -0.11688154931E+01  0.28978118400E+02  0.00000000000E+00 0. -1.
</event>
<event>
 5    1  0.1285375E-004  0.9118800E+02  0.7818608E-02  0.1130116E+00
         25   -1    0    0    0    0  0.00000000000E+00  0.00000000000E+00  0.99999998245E-14  0.12500000000E+03  0.12500000000E+03 0.  0.
        -13    1    3    3    0    0  0.10230966251E+02 -0.44676634447E+02  0.25598002232E+01  0.45904662913E+02  0.10566000000E+00 0. -1.
         23    2    1    0    0    0 -0.23373641442E+02 -0.86144590823E+01  0.13884328336E+02  0.96481399178E+02  0.92170221842E+02 0.  0.
         13    1    3    3    0    0 -0.33604607693E+02  0.36062175365E+02  0.11324528113E+02  0.50576736265E+02  0.10566000000E+00 0.  1.
         22    1    1    0    0    0  0.23373641442E+02  0.86144590823E+01 -0.13884328336E+02  0.28518600822E+02  0.00000000000E+00 0.  1.
</event>
<event>
 5    1  0.1285375E-004  0.9118800E+02  0.7818608E-02  0.1130116E+00
         25   -1    0    0    0    0  0.00000000000E+00  0.00000000000E+00  0.99999998245E-14  0.12500000000E+03  0.12500000000E+03 0.  0.
        -13    1    3    3    0    0 -0.51728911037E+01 -0.34204123339E+02  0.22103736537E+02  0.41052005904E+02  0.10566000000E+00 0.  1.
         23    2    1    0    0    0 -0.29375707199E+02 -0.27605307159E+01 -0.11779698038E+02  0.93230297622E+02  0.87650296095E+02 0.  0.
         13    1    3    3    0    0 -0.24202816096E+02  0.31443592623E+02 -0.33883434575E+02  0.52178291719E+02  0.10566000000E+00 0. -1.
         22    1    1    0    0    0  0.29375707199E+02  0.27605307159E+01  0.11779698038E+02  0.31769702378E+02  0.00000000000E+00 0. -1.
</event>
<event>
 5    1  0.1285375E-004  0.9118800E+02  0.7818608E-02  0.1130116E+00
         25   -1    0    0    0    0  0.00000000000E+00  0.00000000000E+00  0.99999998245E-14  0.12500000000E+03  0.12500000000E+03 0.  0.
        -13    1    3    3    0    0  0.97665182941E+01  0.49396127198E+02 -0.29884802556E+02  0.58553179671E+02  0.10566000000E+00 0.  1.
         23    2    1    0    0    0  0.12597142464E+02  0.26931297943E+02 -0.10048658717E+01  0.95251175442E+02  0.90486429152E+02 0.  0.
         13    1    3    3    0    0  0.28306241703E+01 -0.22464829256E+02  0.28879936685E+02  0.36697995771E+02  0.10566000000E+00 0. -1.
         22    1    1    0    0    0 -0.12597142464E+02 -0.26931297943E+02  0.10048658717E+01  0.29748824558E+02  0.00000000000E+00 0.  1.
</event>
<event>
 5    1  0.1285375E-004  0.9118800E+02  0.7818608E-02  0.1130116E+00
         25   -1    0    0    0    0  0.00000000000E+00  0.00000000000E+00  0.99999998245E-14  0.12500000000E+03  0.12500000000E+03 0.  0.
        -13    1    3    3    0    0  0.43543159138E+02  0.11974775939E+02 -0.26285306305E+02  0.52252564129E+02  0.10566000000E+00 0.  1.
         23    2    1    0    0    0  0.23906387161E+02  0.10955211331E+02  0.12610084513E+02  0.95835874198E+02  0.91290572073E+02 0.  0.
         13    1    3    3    0    0 -0.19636771977E+02 -0.10195646086E+01  0.38895390817E+02  0.43583310068E+02  0.10566000000E+00 0. -1.
         22    1    1    0    0    0 -0.23906387161E+02 -0.10955211331E+02 -0.12610084513E+02  0.29164125802E+02  0.00000000000E+00 0. -1.
</event>
<event>
 5    1  0.1285375E-004  0.9118800E+02  0.7818608E-02  0.1130116E+00
         25   -1    0    0    0    0  0.00000000000E+00  0.00000000000E+00  0.99999998245E-14  0.12500000000E+03  0.12500000000E+03 0.  0.
        -13    1    3    3    0    0  0.36094939826E+02  0.41870589533E+01 -0.37287213025E+01  0.36527943691E+02  0.10566000000E+00 0.  1.
         23    2    1    0    0    0  0.30994452526E+01 -0.35086008482E+02  0.73831785755E+01  0.89011864761E+02  0.81412322104E+02 0.  0.
         13    1    3    3    0    0 -0.32995494573E+02 -0.39273067435E+02  0.11111899878E+02  0.52483921070E+02  0.10566000000E+00 0. -1.
         22    1    1    0    0    0 -0.30994452526E+01  0.35086008482E+02 -0.73831785755E+01  0.35988135239E+02  0.00000000000E+00 0. -1.
</event>
<event>
 5    1  0.1285375E-004  0.9118800E+02  0.7818608E-02  0.1130116E+00
         25   -1    0    0    0    0  0.00000000000E+00  0.00000000000E+00  0.99999998245E-14  0.12500000000E+03  0.12500000000E+03 0.  0.
        -13    1    3    3    0    0 -0.58048869131E+02  0.19914317302E+02  0.36678878583E+01  0.61479393348E+02  0.10566000000E+00 0. -1.
         23    2    1    0    0    0 -0.27905926991E+02  0.15575944364E+02  0.74996866254E+01  0.92173241044E+02  0.86129613148E+02 0.  0.
         13    1    3    3    0    0  0.30142942140E+02 -0.43383729382E+01  0.38317987671E+01  0.30693847697E+02  0.10566000000E+00 0.  1.
         22    1    1    0    0    0  0.27905926991E+02 -0.15575944364E+02 -0.74996866254E+01  0.32826758956E+02  0.00000000000E+00 0. -1.
</event>
<event>
 5    1  0.1285375E-004  0.9118800E+02  0.7818608E-02  0.1130116E+00
         25   -1    0    0    0    0  0.00000000000E+00  0.00000000000E+00  0.99999998245E-14  0.12500000000E+03  0.12500000000E+03 0.  0.
        -13    1    3    3    0    0  0.31563262042E+02 -0.40357033176E+02 -0.13898666840E+02  0.53085909067E+02  0.10566000000E+00 0. -1.
         23    2    1    0    0    0  0.23414302367E+02 -0.43471585387E-01 -0.19415097687E+02  0.94583270010E+02  0.89559016868E+02 0.  0.
         13    1    3    3    0    0 -0.81489596753E+01  0.40313561590E+02 -0.55164308468E+01  0.41497360943E+02  0.10566000000E+00 0.  1.
         22    1    1    0    0    0 -0.23414302367E+02  0.43471585387E-01  0.19415097687E+02  0.30416729990E+02  0.00000000000E+00 0. -1.
</event>
<event>
 5    1  0.1285375E-004  0.9118800E+02  0.7818608E-02  0.1130116E+00
         25   -1    0    0    0    0  0.00000000000E+00  0.00000000000E+00  0.99999998245E-14  0.12500000000E+03  0.12500000000E+03 0.  0.
        -13    1    3    3    0    0 -0.10686201165E+02  0.27326283862E+02  0.22988639153E+02  0.37274782081E+02  0.10566000000E+00 0. -1.
         23    2    1    0    0    0 -0.22778135666E+02 -0.17625640882E+02 -0.10201542256E+02  0.94445488953E+02  0.89366505124E+02 0.  0.
         13    1    3    3    0    0 -0.12091934501E+02 -0.44951924745E+02 -0.33190181409E+02  0.57170706872E+02  0.10566000000E+00 0.  1.
         22    1    1    0    0    0  0.22778135666E+02  0.17625640882E+02  0.10201542256E+02  0.30554511047E+02  0.00000000000E+00 0.  1.
</event>
<event>
 5    1  0.1285375E-004  0.9118800E+02  0.7818608E-02  0.1130116E+00
         25   -1    0    0    0    0  0.00000000000E+00  0.00000000000E+00  0.99999998245E-14  0.12500000000E+03  0.12500000000E+03 0.  0.
        -13    1    3    3    0    0  0.31797375036E+02  0.58879468176E+01  0.35475738794E+02  0.48002918494E+02  0.10566000000E+00 0.  1.
         23    2    1    0    0    0 -0.13868109276E+02  0.10571854593E+02  0.24022832119E+02  0.95315239138E+02  0.90574884954E+02 0.  0.
         13    1    3    3    0    0 -0.45665484311E+02  0.46839077756E+01 -0.11452906675E+02  0.47312320644E+02  0.10566000000E+00 0. -1.
         22    1    1    0    0    0  0.13868109276E+02 -0.10571854593E+02 -0.24022832119E+02  0.29684760862E+02  0.00000000000E+00 0.  1.
</event>
<event>
 5    1  0.1285375E-004  0.9118800E+02  0.7818608E-02  0.1130116E+00
         25   -1    0    0    0    0  0.00000000000E+00  0.00000000000E+00  0.99999998245E-14  0.12500000000E+03  0.12500000000E+03 0.  0.
        -13    1    3    3    0    0 -0.41095250863E+02  0.15395895864E+01  0.15579983681E+02  0.43976550969E+02  0.10566000000E+00 0.  1.
         23    2    1    0    0    0 -0.99625584362E+01  0.26375767645E+02 -0.13937688746E+02  0.93548563514E+02  0.88103012880E+02 0.  0.
         13    1    3    3    0    0  0.31132692427E+02  0.24836178058E+02 -0.29517672426E+02  0.49572012545E+02  0.10566000000E+00 0. -1.
         22    1    1    0    0    0  0.99625584362E+01 -0.26375767645E+02  0.13937688746E+02  0.31451436486E+02  0.00000000000E+00 0. -1.
</event>
<event>
 5    1  0.1285375E-004  0.9118800E+02  0.7818608E-02  0.1130116E+00
         25   -1    0    0    0    0  0.00000000000E+00  0.00000000000E+00  0.99999998245E-14  0.12500000000E+03  0.12500000000E+03 0.  0.
        -13    1    3    3    0    0  0.34482272641E+01  0.16961868706E+02 -0.29599427316E+02  0.34288956279E+02  0.10566000000E+00 0. -1.
         23    2    1    0    0    0 -0.13471172284E+02 -0.74145991337E+01  0.24547840996E+02  0.96033722010E+02  0.91561075258E+02 0.  0.
         13    1    3    3    0    0 -0.16919399548E+02 -0.24376467839E+02  0.54147268312E+02  0.61744765731E+02  0.10566000000E+00 0.  1.
         22    1    1    0    0    0  0.13471172284E+02  0.74145991337E+01 -0.24547840996E+02  0.28966277990E+02  0.00000000000E+00 0.  1.
</event>
<event>
 5    1  0.1285375E-004  0.9118800E+02  0.7818608E-02  0.1130116E+00
         25   -1    0    0    0    0  0.00000000000E+00  0.00000000000E+00  0.99999998245E-14  0.12500000000E+03  0.12500000000E+03 0.  0.
        -13    1    3    3    0    0  0.37072633613E+01  0.48128631167E+02  0.29081490768E+01  0.48358840296E+02  0.10566000000E+00 0.  1.
         23    2    1    0    0    0 -0.86642945371E+01  0.10275634113E+02 -0.24743795228E+02  0.96841270296E+02  0.92656988803E+02 0.  0.
         13    1    3    3    0    0 -0.12371557898E+02 -0.37852997054E+02 -0.27651944305E+02  0.48482430000E+02  0.10566000000E+00 0. -1.
         22    1    1    0    0    0  0.86642945371E+01 -0.10275634113E+02  0.24743795228E+02  0.28158729704E+02  0.00000000000E+00 0. -1.
</event>
<event>
 5    1  0.1285375E-004  0.9118800E+02  0.7818608E-02  0.1130116E+00
         25   -1    0    0    0    0  0.00000000000E+00  0.00000000000E+00  0.99999998245E-14  0.12500000000E+03  0.12500000000E+03 0.  0.
        -13    1    3    3    0    0 -0.51503124104E+02  0.14656295984E+02 -0.28520102574E+01  0.53623911933E+02  0.10566000000E+00 0.  1.
         23    2    1    0    0    0 -0.16793200697E+02  0.63793608579E+01  0.21618604746E+02  0.96891782238E+02  0.92725107493E+02 0.  0.
         13    1    3    3    0    0  0.34709923408E+02 -0.82769351264E+01  0.24470615003E+02  0.43267870305E+02  0.10566000000E+00 0. -1.
         22    1    1    0    0    0  0.16793200697E+02 -0.63793608579E+01 -0.21618604746E+02  0.28108217762E+02  0.00000000000E+00 0.  1.
</event>
<event>
 5    1  0.1285375E-004  0.9118800E+02  0.7818608E-02  0.1130116E+00
         25   -1    0    0    0    0  0.00000000000E+00  0.00000000000E+00  0.99999998245E-14  0.12500000000E+03  0.12500000000E+03 0.  0.
        -13    1    3    3    0    0  0.99462493038E+01 -0.55840907909E+02  0.10822303278E+02  0.57743123258E+02  0.10566000000E+00 0.  1.
         23    2    1    0    0    0  0.29630733859E+01 -0.27102325241E+02 -0.12110315954E+02  0.95167541337E+02  0.90370821255E+02 0.  0.
         13    1    3    3    0    0 -0.69831759179E+01  0.28738582668E+02 -0.22932619231E+02  0.37424418079E+02  0.10566000000E+00 0. -1.
         22    1    1    0    0    0 -0.29630733859E+01  0.27102325241E+02  0.12110315954E+02  0.29832458663E+02  0.00000000000E+00 0.  1.
</event>
<event>
 5    1  0.1285375E-004  0.9118800E+02  0.7818608E-02  0.1130116E+00
         25   -1    0    0    0    0  0.00000000000E+00  0.00000000000E+00  0.99999998245E-14  0.12500000000E+03  0.12500000000E+03 0.  0.
        -13    1    3    3    0    0  0.67375287456E+00 -0.32693144813E+02 -0.51025957574E+02  0.60604910454E+02  0.10566000000E+00 0.  1.
         23    2    1    0    0    0  0.55564679704E+01 -0.74119474182E+01 -0.29221118778E+02  0.94345716719E+02  0.89226841140E+02 0.  0.
         13    1    3    3    0    0  0.48827150958E+01  0.25281197395E+02  0.21804838797E+02  0.33740806265E+02  0.10566000000E+00 0. -1.
         22    1    1    0    0    0 -0.55564679704E+01  0.74119474182E+01  0.29221118778E+02  0.30654283281E+02  0.00000000000E+00 0.  1.
</event>
<event>
 5    1  0.1285375E-004  0.9118800E+02  0.7818608E-02  0.1130116E+00
         25   -1    0    0    0    0  0.00000000000E+00  0.00000000000E+00  0.99999998245E-14  0.12500000000E+03  0.12500000000E+03 0.  0.
        -13    1    3    3    0    0  0.19343376029E+01 -0.50964222637E+02  0.19532593432E+01  0.51038417266E+02  0.10566000000E+00 0.  1.
         23    2    1    0    0    0  0.12135357145E+02 -0.11264374375E+02  0.22639246878E+02  0.96952031761E+02  0.92806292569E+02 0.  0.
         13    1    3    3    0    0  0.10201019542E+02  0.39699848261E+02  0.20685987535E+02  0.45913614495E+02  0.10566000000E+00 0. -1.
         22    1    1    0    0    0 -0.12135357145E+02  0.11264374375E+02 -0.22639246878E+02  0.28047968239E+02  0.00000000000E+00 0.  1.
</event>
<event>
 5    1  0.1285375E-004  0.9118800E+02  0.7818608E-02  0.1130116E+00
         25   -1    0    0    0    0  0.00000000000E+00  0.00000000000E+00  0.99999998245E-14  0.12500000000E+03  0.12500000000E+03 0.  0.
        -13    1    3    3    0    0  0.58693083748E+02  0.15958613583E+02  0.49624379355E+00  0.60826086914E+02  0.10566000000E+00 0.  1.
         23    2    1    0    0    0  0.28927089283E+02 -0.26415873831E+01  0.11124357461E+01  0.95931254042E+02  0.91421078042E+02 0.  0.
         13    1    3    3    0    0 -0.29765994465E+02 -0.18600200966E+02  0.61619195252E+00  0.35105167127E+02  0.10566000000E+00 0. -1.
         22    1    1    0    0    0 -0.28927089283E+02  0.26415873831E+01 -0.11124357461E+01  0.29068745958E+02  0.00000000000E+00 0.  1.
</event>
<event>
 5    1  0.1285375E-004  0.9118800E+02  0.7818608E-02  0.1130116E+00
         25   -1    0    0    0    0  0.00000000000E+00  0.00000000000E+00  0.99999998245E-14  0.12500000000E+03  0.12500000000E+03 0.  0.
        -13    1    3    3    0    0 -0.36869345440E+01 -0.14899652172E+02  0.49401120874E+02  0.51730793816E+02  0.10566000000E+00 0.  1.
         23    2    1    0    0    0 -0.10319122829E+01  0.19354360980E+02  0.22028879290E+02  0.95658431285E+02  0.91047283437E+02 0.  0.
         13    1    3    3    0    0  0.26550222611E+01  0.34254013152E+02 -0.27372241585E+02  0.43927637469E+02  0.10566000000E+00 0. -1.
         22    1    1    0    0    0  0.10319122829E+01 -0.19354360980E+02 -0.22028879290E+02  0.29341568715E+02  0.00000000000E+00 0. -1.
</event>
<event>
 5    1  0.1285375E-004  0.9118800E+02  0.7818608E-02  0.1130116E+00
         25   -1    0    0    0    0  0.00000000000E+00  0.00000000000E+00  0.99999998245E-14  0.12500000000E+03  0.12500000000E+03 0.  0.
        -13    1    3    3    0    0 -0.10844526763E+02  0.99810852756E+00 -0.31820304779E+02  0.33632468562E+02  0.10566000000E+00 0.  1.
         23    2    1    0    0    0  0.13234317732E+02  0.17705207811E+02  0.21301082646E+02  0.94302155265E+02  0.89165793981E+02 0.  0.
         13    1    3    3    0    0  0.24078844495E+02  0.16707099284E+02  0.53121387425E+02  0.60669686703E+02  0.10566000000E+00 0. -1.
         22    1    1    0    0    0 -0.13234317732E+02 -0.17705207811E+02 -0.21301082646E+02  0.30697844735E+02  0.00000000000E+00 0. -1.
</event>
<event>
 5    1  0.1285375E-004  0.9118800E+02  0.7818608E-02  0.1130116E+00
         25   -1    0    0    0    0  0.00000000000E+00  0.00000000000E+00  0.99999998245E-14  0.12500000000E+03  0.12500000000E+03 0.  0.
        -13    1    3    3    0    0  0.37645104116E+02 -0.29190615840E+01 -0.17798295040E+02  0.41742846750E+02  0.10566000000E+00 0.  1.
         23    2    1    0    0    0  0.62635952255E+01 -0.15575850640E+02  0.24118906838E+02  0.95613584510E+02  0.90985691883E+02 0.  0.
         13    1    3    3    0    0 -0.31381508891E+02 -0.12656789056E+02  0.41917201878E+02  0.53870737760E+02  0.10566000000E+00 0. -1.
         22    1    1    0    0    0 -0.62635952255E+01  0.15575850640E+02 -0.24118906838E+02  0.29386415490E+02  0.00000000000E+00 0. -1.
</event>
<event>
 5    1  0.1285375E-004  0.9118800E+02  0.7818608E-02  0.1130116E+00
         25   -1    0    0    0    0  0.00000000000E+00  0.00000000000E+00  0.99999998245E-14  0.12500000000E+03  0.12500000000E+03 0.  0.
        -13    1    3    3    0    0 -0.18754552743E+01  0.19018565463E+02  0.35523769321E+02  0.40338226480E+02  0.10566000000E+00 0.  1.
         23    2    1    0    0    0 -0.10727780594E+01  0.20598321344E+02 -0.20223334424E+02  0.96113585370E+02  0.91670040594E+02 0.  0.
         13    1    3    3    0    0  0.80267721486E+00  0.15797558815E+01 -0.55747103745E+02  0.55775358890E+02  0.10566000000E+00 0. -1.
         22    1    1    0    0    0  0.10727780594E+01 -0.20598321344E+02  0.20223334424E+02  0.28886414630E+02  0.00000000000E+00 0. -1.
</event>
<event>
 5    1  0.1285375E-004  0.9118800E+02  0.7818608E-02  0.1130116E+00
         25   -1    0    0    0    0  0.00000000000E+00  0.00000000000E+00  0.99999998245E-14  0.12500000000E+03  0.12500000000E+03 0.  0.
        -13    1    3    3    0    0 -0.31229590153E+02 -0.18712501346E+02 -0.16353674612E+02  0.39911136856E+02  0.10566000000E+00 0.  1.
         23    2    1    0    0    0  0.64384203930E+01  0.24227508108E+02 -0.12028874690E+02  0.97194978285E+02  0.93132940312E+02 0.  0.
         13    1    3    3    0    0  0.37668010546E+02  0.42940009454E+02  0.43247999224E+01  0.57283841429E+02  0.10566000000E+00 0. -1.
         22    1    1    0    0    0 -0.64384203930E+01 -0.24227508108E+02  0.12028874690E+02  0.27805021715E+02  0.00000000000E+00 0. -1.
</event>
<event>
 5    1  0.1285375E-004  0.9118800E+02  0.7818608E-02  0.1130116E+00
         25   -1    0    0    0    0  0.00000000000E+00  0.00000000000E+00  0.99999998245E-14  0.12500000000E+03  0.12500000000E+03 0.  0.
        -13    1    3    3    0    0  0.22032657002E+00 -0.10575632713E+02  0.61212291435E+02  0.62119629247E+02  0.10566000000E+00 0.  1.
         23    2    1    0    0    0  0.23508939272E+01 -0.84372912017E+00  0.30287698484E+02  0.94609487327E+02  0.89595601632E+02 0.  0.
         13    1    3    3    0    0  0.21305673572E+01  0.97319035926E+01 -0.30924592951E+02  0.32489858080E+02  0.10566000000E+00 0. -1.
         22    1    1    0    0    0 -0.23508939272E+01  0.84372912017E+00 -0.30287698484E+02  0.30390512673E+02  0.00000000000E+00 0.  1.
</event>
<event>
 5    1  0.1285375E-004  0.9118800E+02  0.7818608E-02  0.1130116E+00
         25   -1    0    0    0    0  0.00000000000E+00  0.00000000000E+00  0.99999998245E-14  0.12500000000E+03  0.12500000000E+03 0.  0.
        -13    1    3    3    0    0 -0.46835699025E+02  0.24401472222E+02  0.66660959966E+01  0.53230278505E+02  0.10566000000E+00 0.  1.
         23    2    1    0    0    0 -0.18656513980E+02 -0.12548534215E+02 -0.66204047288E+01  0.10156154904E+03  0.98819973987E+02 0.  0.
         13    1    3    3    0    0  0.28179185045E+02 -0.36950006438E+02 -0.13286500725E+02  0.48331270531E+02  0.10566000000E+00 0. -1.
         22    1    1    0    0    0  0.18656513980E+02  0.12548534215E+02  0.66204047288E+01  0.23438450965E+02  0.00000000000E+00 0.  1.
</event>
<event>
 5    1  0.1285375E-004  0.9118800E+02  0.7818608E-02  0.1130116E+00
         25   -1    0    0    0    0  0.00000000000E+00  0.00000000000E+00  0.99999998245E-14  0.12500000000E+03  0.12500000000E+03 0.  0.
        -13    1    3    3    0    0 -0.31817712984E+02  0.20127996629E+02  0.42462084020E+02  0.56749826883E+02  0.10566000000E+00 0. -1.
         23    2    1    0    0    0 -0.27225111930E+02 -0.18811603934E+01  0.10649170014E+02  0.95705797399E+02  0.91112289784E+02 0.  0.
         13    1    3    3    0    0  0.45926010542E+01 -0.22009157023E+02 -0.31812914006E+02  0.38955970516E+02  0.10566000000E+00 0.  1.
         22    1    1    0    0    0  0.27225111930E+02  0.18811603934E+01 -0.10649170014E+02  0.29294202601E+02  0.00000000000E+00 0. -1.
</event>
<event>
 5    1  0.1285375E-004  0.9118800E+02  0.7818608E-02  0.1130116E+00
         25   -1    0    0    0    0  0.00000000000E+00  0.00000000000E+00  0.99999998245E-14  0.12500000000E+03  0.12500000000E+03 0.  0.
        -13    1    3    3    0    0 -0.13227809887E+02 -0.30052782302E+02  0.41569814098E-02  0.32835283763E+02  0.10566000000E+00 0.  1.
         23    2    1    0    0    0 -0.76521997476E+01  0.19705454811E+02  0.27778764829E+02  0.90092681488E+02  0.83055224832E+02 0.  0.
         13    1    3    3    0    0  0.55756101389E+01  0.49758237113E+02  0.27774607848E+02  0.57257397724E+02  0.10566000000E+00 0. -1.
         22    1    1    0    0    0  0.76521997476E+01 -0.19705454811E+02 -0.27778764829E+02  0.34907318512E+02  0.00000000000E+00 0. -1.
</event>
<event>
 5    1  0.1285375E-004  0.9118800E+02  0.7818608E-02  0.1130116E+00
         25   -1    0    0    0    0  0.00000000000E+00  0.00000000000E+00  0.99999998245E-14  0.12500000000E+03  0.12500000000E+03 0.  0.
        -13    1    3    3    0    0  0.22967029748E+02  0.21056172612E+01 -0.44133717826E+02  0.49796729739E+02  0.10566000000E+00 0. -1.
         23    2    1    0    0    0  0.18877775389E+02 -0.22942884194E+02 -0.75112074588E+01  0.94354207854E+02  0.89238735780E+02 0.  0.
         13    1    3    3    0    0 -0.40892543592E+01 -0.25048501455E+02  0.36622510367E+02  0.44557478115E+02  0.10566000000E+00 0.  1.
         22    1    1    0    0    0 -0.18877775389E+02  0.22942884194E+02  0.75112074588E+01  0.30645792146E+02  0.00000000000E+00 0. -1.
</event>
<event>
 5    1  0.1285375E-004  0.9118800E+02  0.7818608E-02  0.1130116E+00
         25   -1    0    0    0    0  0.00000000000E+00  0.00000000000E+00  0.99999998245E-14  0.12500000000E+03  0.12500000000E+03 0.  0.
        -13    1    3    3    0    0 -0.34299609962E+02 -0.96694726374E+01 -0.41416274645E+02  0.54637724277E+02  0.10566000000E+00 0.  1.
         23    2    1    0    0    0 -0.28308617704E+02 -0.92296376988E+01 -0.13052842772E+01  0.95196177839E+02  0.90410422296E+02 0.  0.
         13    1    3    3    0    0  0.59909922575E+01  0.43983493866E+00  0.40110990368E+02  0.40558453562E+02  0.10566000000E+00 0. -1.
         22    1    1    0    0    0  0.28308617704E+02  0.92296376988E+01  0.13052842772E+01  0.29803822161E+02  0.00000000000E+00 0.  1.
</event>
<event>
 5    1  0.1285375E-004  0.9118800E+02  0.7818608E-02  0.1130116E+00
         25   -1    0    0    0    0  0.00000000000E+00  0.00000000000E+00  0.99999998245E-14  0.12500000000E+03  0.12500000000E+03 0.  0.
        -13    1    3    3    0    0  0.37665094448E+02  0.75887906445E+01  0.15631177132E+02  0.41480042741E+02  0.10566000000E+00 0. -1.
         23    2    1    0    0    0  0.41731205824E+01  0.19428007022E+02 -0.23429888160E+02  0.94278313011E+02  0.89132363667E+02 0.  0.
         13    1    3    3    0    0 -0.33491973865E+02  0.11839216378E+02 -0.39061065291E+02  0.52798270271E+02  0.10566000000E+00 0.  1.
         22    1    1    0    0    0 -0.41731205824E+01 -0.19428007022E+02  0.23429888160E+02  0.30721686989E+02  0.00000000000E+00 0.  1.
</event>
<event>
 5    1  0.1285375E-004  0.9118800E+02  0.7818608E-02  0.1130116E+00
         25   -1    0    0    0    0  0.00000000000E+00  0.00000000000E+00  0.99999998245E-14  0.12500000000E+03  0.12500000000E+03 0.  0.
        -13    1    3    3    0    0  0.15964088843E+02 -0.46474383533E+01 -0.36751676626E+02  0.40337919067E+02  0.10566000000E+00 0. -1.
         23    2    1    0    0    0 -0.39145379776E+01 -0.24308190375E+02  0.12812676693E+02  0.97244344524E+02  0.93199174518E+02 0.  0.
         13    1    3    3    0    0 -0.19878626820E+02 -0.19660752022E+02  0.49564353319E+02  0.56906425457E+02  0.10566000000E+00 0.  1.
         22    1    1    0    0    0  0.39145379776E+01  0.24308190375E+02 -0.12812676693E+02  0.27755655476E+02  0.00000000000E+00 0.  1.
</event>
<event>
 5    1  0.1285375E-004  0.9118800E+02  0.7818608E-02  0.1130116E+00
         25   -1    0    0    0    0  0.00000000000E+00  0.00000000000E+00  0.99999998245E-14  0.12500000000E+03  0.12500000000E+03 0.  0.
        -13    1    3    3    0    0  0.11511253328E+02  0.39601209120E+02 -0.58401472623E+01  0.41651929139E+02  0.10566000000E+00 0. -1.
         23    2    1    0    0    0 -0.28159177164E+02  0.34882106827E+01  0.44580235595E+01  0.96277520191E+02  0.91893307960E+02 0.  0.
         13    1    3    3    0    0 -0.39670430491E+02 -0.36112998437E+02  0.10298170822E+02  0.54625591052E+02  0.10566000000E+00 0.  1.
         22    1    1    0    0    0  0.28159177164E+02 -0.34882106827E+01 -0.44580235595E+01  0.28722479809E+02  0.00000000000E+00 0.  1.
</event>
<event>
 5    1  0.1285375E-004  0.9118800E+02  0.7818608E-02  0.1130116E+00
         25   -1    0    0    0    0  0.00000000000E+00  0.00000000000E+00  0.99999998245E-14  0.12500000000E+03  0.12500000000E+03 0.  0.
        -13    1    3    3    0    0  0.23621379525E+02  0.38570272522E+02 -0.26919731116E+02  0.52633815941E+02  0.10566000000E+00 0.  1.
         23    2    1    0    0    0  0.12607719891E+02  0.23610717172E+02  0.11929281625E+02  0.95695933281E+02  0.91098755865E+02 0.  0.
         13    1    3    3    0    0 -0.11013659634E+02 -0.14959555351E+02  0.38849012741E+02  0.43062117340E+02  0.10566000000E+00 0. -1.
         22    1    1    0    0    0 -0.12607719891E+02 -0.23610717172E+02 -0.11929281625E+02  0.29304066719E+02  0.00000000000E+00 0.  1.
</event>
<event>
 5    1  0.1285375E-004  0.9118800E+02  0.7818608E-02  0.1130116E+00
         25   -1    0    0    0    0  0.00000000000E+00  0.00000000000E+00  0.99999998245E-14  0.12500000000E+03  0.12500000000E+03 0.  0.
        -13    1    3    3    0    0  0.51092308802E+02 -0.30083749931E+02  0.39760621650E+01  0.59424542598E+02  0.10566000000E+00 0.  1.
         23    2    1    0    0    0  0.15367364638E+02 -0.22825635030E+02  0.85980784594E+01  0.96171325670E+02  0.91748740686E+02 0.  0.
         13    1    3    3    0    0 -0.35724944164E+02  0.72581149007E+01  0.46220162944E+01  0.36746783072E+02  0.10566000000E+00 0. -1.
         22    1    1    0    0    0 -0.15367364638E+02  0.22825635030E+02 -0.85980784594E+01  0.28828674330E+02  0.00000000000E+00 0.  1.
</event>
<event>
 5    1  0.1285375E-004  0.9118800E+02  0.7818608E-02  0.1130116E+00
         25   -1    0    0    0    0  0.00000000000E+00  0.00000000000E+00  0.99999998245E-14  0.12500000000E+03  0.12500000000E+03 0.  0.
        -13    1    3    3    0    0  0.38673939601E+02  0.43649885764E+02  0.40946660158E+01  0.58461641999E+02  0.10566000000E+00 0.  1.
         23    2    1    0    0    0  0.11957910033E+02  0.21681210717E+02  0.16542586995E+02  0.95222093845E+02  0.90446246253E+02 0.  0.
         13    1    3    3    0    0 -0.26716029568E+02 -0.21968675047E+02  0.12447920979E+02  0.36760451846E+02  0.10566000000E+00 0. -1.
         22    1    1    0    0    0 -0.11957910033E+02 -0.21681210717E+02 -0.16542586995E+02  0.29777906155E+02  0.00000000000E+00 0.  1.
</event>
<event>
 5    1  0.1285375E-004  0.9118800E+02  0.7818608E-02  0.1130116E+00
         25   -1    0    0    0    0  0.00000000000E+00  0.00000000000E+00  0.99999998245E-14  0.12500000000E+03  0.12500000000E+03 0.  0.
        -13    1    3    3    0    0 -0.47717346195E+01 -0.36775886396E+02 -0.40876129836E+02  0.55191524946E+02  0.10566000000E+00 0. -1.
         23    2    1    0    0    0  0.11026096924E+01  0.21814414048E+01 -0.28367421312E+02  0.96527468911E+02  0.92232679825E+02 0.  0.
         13    1    3    3    0    0  0.58743443119E+01  0.38957327801E+02  0.12508708524E+02  0.41335943964E+02  0.10566000000E+00 0.  1.
         22    1    1    0    0    0 -0.11026096924E+01 -0.21814414048E+01  0.28367421312E+02  0.28472531089E+02  0.00000000000E+00 0. -1.
</event>
<event>
 5    1  0.1285375E-004  0.9118800E+02  0.7818608E-02  0.1130116E+00
         25   -1    0    0    0    0  0.00000000000E+00  0.00000000000E+00  0.99999998245E-14  0.12500000000E+03  0.12500000000E+03 0.  0.
        -13    1    3    3    0    0  0.18268428793E+02  0.24851393089E+02 -0.18352528012E+02  0.35890857854E+02  0.10566000000E+00 0. -1.
         23    2    1    0    0    0  0.54801078144E+01 -0.24571164531E+02  0.13867213617E+02  0.96258508710E+02  0.91867443513E+02 0.  0.
         13    1    3    3    0    0 -0.12788320979E+02 -0.49422557621E+02  0.32219741628E+02  0.60367650856E+02  0.10566000000E+00 0.  1.
         22    1    1    0    0    0 -0.54801078144E+01  0.24571164531E+02 -0.13867213617E+02  0.28741491290E+02  0.00000000000E+00 0.  1.
</event>
<event>
 5    1  0.1285375E-004  0.9118800E+02  0.7818608E-02  0.1130116E+00
         25   -1    0    0    0    0  0.00000000000E+00  0.00000000000E+00  0.99999998245E-14  0.12500000000E+03  0.12500000000E+03 0.  0.
        -13    1    3    3    0    0  0.41792205800E+02 -0.32935725070E+02  0.18743539721E+02  0.56415262977E+02  0.10566000000E+00 0. -1.
         23    2    1    0    0    0  0.21799134469E+02  0.18538502048E+00  0.20407264378E+02  0.95138769774E+02  0.90331015955E+02 0.  0.
         13    1    3    3    0    0 -0.19993071330E+02  0.33121110091E+02  0.16637246573E+01  0.38723506797E+02  0.10566000000E+00 0.  1.
         22    1    1    0    0    0 -0.21799134469E+02 -0.18538502048E+00 -0.20407264378E+02  0.29861230226E+02  0.00000000000E+00 0. -1.
</event>
<event>
 5    1  0.1285375E-004  0.9118800E+02  0.7818608E-02  0.1130116E+00
         25   -1    0    0    0    0  0.00000000000E+00  0.00000000000E+00  0.99999998245E-14  0.12500000000E+03  0.12500000000E+03 0.  0.
        -13    1    3    3    0    0  0.10238865868E+02 -0.31603708146E+00  0.57641381985E+02  0.58544635406E+02  0.10566000000E+00 0. -1.
         23    2    1    0    0    0 -0.34741871015E+01  0.13232735783E+02  0.26672227729E+02  0.95023625897E+02  0.90171539158E+02 0.  0.
         13    1    3    3    0    0 -0.13713052970E+02  0.13548772865E+02 -0.30969154255E+02  0.36478990491E+02  0.10566000000E+00 0.  1.
         22    1    1    0    0    0  0.34741871015E+01 -0.13232735783E+02 -0.26672227729E+02  0.29976374103E+02  0.00000000000E+00 0. -1.
</event>
<event>
 5    1  0.1285375E-004  0.9118800E+02  0.7818608E-02  0.1130116E+00
         25   -1    0    0    0    0  0.00000000000E+00  0.00000000000E+00  0.99999998245E-14  0.12500000000E+03  0.12500000000E+03 0.  0.
        -13    1    3    3    0    0 -0.52490811043E+01 -0.59026133094E+01 -0.37027520809E+02  0.37860826161E+02  0.10566000000E+00 0. -1.
         23    2    1    0    0    0  0.23101771044E+02  0.11826776453E+02  0.11353060520E+02  0.96672337727E+02  0.92428807370E+02 0.  0.
         13    1    3    3    0    0  0.28350852149E+02  0.17729389763E+02  0.48380581329E+02  0.58811511566E+02  0.10566000000E+00 0.  1.
         22    1    1    0    0    0 -0.23101771044E+02 -0.11826776453E+02 -0.11353060520E+02  0.28327662273E+02  0.00000000000E+00 0.  1.
</event>
<event>
 5    1  0.1285375E-004  0.9118800E+02  0.7818608E-02  0.1130116E+00
         25   -1    0    0    0    0  0.00000000000E+00  0.00000000000E+00  0.99999998245E-14  0.12500000000E+03  0.12500000000E+03 0.  0.
        -13    1    3    3    0    0 -0.28662353331E+02  0.34022259326E+02  0.13062731433E+02  0.46364757571E+02  0.10566000000E+00 0.  1.
         23    2    1    0    0    0 -0.23129508781E+02 -0.12426581288E+02 -0.78374849582E+01  0.97598900215E+02  0.93673502410E+02 0.  0.
         13    1    3    3    0    0  0.55328445499E+01 -0.46448840614E+02 -0.20900216392E+02  0.51234142644E+02  0.10566000000E+00 0. -1.
         22    1    1    0    0    0  0.23129508781E+02  0.12426581288E+02  0.78374849582E+01  0.27401099785E+02  0.00000000000E+00 0. -1.
</event>
<event>
 5    1  0.1285375E-004  0.9118800E+02  0.7818608E-02  0.1130116E+00
         25   -1    0    0    0    0  0.00000000000E+00  0.00000000000E+00  0.99999998245E-14  0.12500000000E+03  0.12500000000E+03 0.  0.
        -13    1    3    3    0    0  0.96194536318E+01  0.61538972397E+02  0.18494034979E+01  0.62313806409E+02  0.10566000000E+00 0.  1.
         23    2    1    0    0    0  0.69636760384E+01  0.26490546650E+02 -0.11079339631E+01  0.97587058468E+02  0.93657699187E+02 0.  0.
         13    1    3    3    0    0 -0.26557775933E+01 -0.35048425746E+02 -0.29573374610E+01  0.35273252059E+02  0.10566000000E+00 0. -1.
         22    1    1    0    0    0 -0.69636760384E+01 -0.26490546650E+02  0.11079339631E+01  0.27412941532E+02  0.00000000000E+00 0.  1.
</event>
<event>
 5    1  0.1285375E-004  0.9118800E+02  0.7818608E-02  0.1130116E+00
         25   -1    0    0    0    0  0.00000000000E+00  0.00000000000E+00  0.99999998245E-14  0.12500000000E+03  0.12500000000E+03 0.  0.
        -13    1    3    3    0    0  0.18157404718E+02 -0.41457565500E+02 -0.38139078971E+02  0.59186329436E+02  0.10566000000E+00 0.  1.
         23    2    1    0    0    0  0.53051205341E+01 -0.10089774295E+02 -0.28309531614E+02  0.94481523147E+02  0.89416893185E+02 0.  0.
         13    1    3    3    0    0 -0.12852284184E+02  0.31367791205E+02  0.98295473567E+01  0.35295193712E+02  0.10566000000E+00 0. -1.
         22    1    1    0    0    0 -0.53051205341E+01  0.10089774295E+02  0.28309531614E+02  0.30518476853E+02  0.00000000000E+00 0.  1.
</event>
<event>
 5    1  0.1285375E-004  0.9118800E+02  0.7818608E-02  0.1130116E+00
         25   -1    0    0    0    0  0.00000000000E+00  0.00000000000E+00  0.99999998245E-14  0.12500000000E+03  0.12500000000E+03 0.  0.
        -13    1    3    3    0    0  0.60158545466E+02  0.13545205078E+00  0.10586157029E+02  0.61083114070E+02  0.10566000000E+00 0.  1.
         23    2    1    0    0    0  0.29145267536E+02  0.56915356021E+01 -0.24985042544E+01  0.95199283217E+02  0.90414715640E+02 0.  0.
         13    1    3    3    0    0 -0.31013277929E+02  0.55560835513E+01 -0.13084661283E+02  0.34116169147E+02  0.10566000000E+00 0. -1.
         22    1    1    0    0    0 -0.29145267536E+02 -0.56915356021E+01  0.24985042544E+01  0.29800716783E+02  0.00000000000E+00 0.  1.
</event>
<event>
 5    1  0.1285375E-004  0.9118800E+02  0.7818608E-02  0.1130116E+00
         25   -1    0    0    0    0  0.00000000000E+00  0.00000000000E+00  0.99999998245E-14  0.12500000000E+03  0.12500000000E+03 0.  0.
        -13    1    3    3    0    0  0.35847302819E+02  0.20381113944E+02  0.39232424189E+02  0.56917600062E+02  0.10566000000E+00 0. -1.
         23    2    1    0    0    0  0.25909424742E+02  0.14525229298E+02  0.27621929020E+01  0.95168635864E+02  0.90372335180E+02 0.  0.
         13    1    3    3    0    0 -0.99378780779E+01 -0.58558846459E+01 -0.36470231287E+02  0.38251035801E+02  0.10566000000E+00 0.  1.
         22    1    1    0    0    0 -0.25909424742E+02 -0.14525229298E+02 -0.27621929020E+01  0.29831364136E+02  0.00000000000E+00 0. -1.
</event>
<event>
 5    1  0.1285375E-004  0.9118800E+02  0.7818608E-02  0.1130116E+00
         25   -1    0    0    0    0  0.00000000000E+00  0.00000000000E+00  0.99999998245E-14  0.12500000000E+03  0.12500000000E+03 0.  0.
        -13    1    3    3    0    0 -0.11078527032E+01  0.27234275478E+02  0.18691398076E+02  0.33050153169E+02  0.10566000000E+00 0.  1.
         23    2    1    0    0    0  0.18625634114E+01 -0.18845716507E+02 -0.22961436639E+02  0.95236637528E+02  0.90466343919E+02 0.  0.
         13    1    3    3    0    0  0.29704161146E+01 -0.46079991984E+02 -0.41652834715E+02  0.62186484359E+02  0.10566000000E+00 0. -1.
         22    1    1    0    0    0 -0.18625634114E+01  0.18845716507E+02  0.22961436639E+02  0.29763362472E+02  0.00000000000E+00 0. -1.
</event>
<event>
 5    1  0.1285375E-004  0.9118800E+02  0.7818608E-02  0.1130116E+00
         25   -1    0    0    0    0  0.00000000000E+00  0.00000000000E+00  0.99999998245E-14  0.12500000000E+03  0.12500000000E+03 0.  0.
        -13    1    3    3    0    0  0.93881043975E+01 -0.32495202041E+02 -0.13831070543E+02  0.36542910889E+02  0.10566000000E+00 0. -1.
         23    2    1    0    0    0 -0.15015508593E+02  0.22536005706E+02 -0.24458910601E+01  0.97809570901E+02  0.93954205469E+02 0.  0.
         13    1    3    3    0    0 -0.24403612990E+02  0.55031207748E+02  0.11385179482E+02  0.61266660012E+02  0.10566000000E+00 0.  1.
         22    1    1    0    0    0  0.15015508593E+02 -0.22536005706E+02  0.24458910601E+01  0.27190429099E+02  0.00000000000E+00 0.  1.
</event>
<event>
 5    1  0.1285375E-004  0.9118800E+02  0.7818608E-02  0.1130116E+00
         25   -1    0    0    0    0  0.00000000000E+00  0.00000000000E+00  0.99999998245E-14  0.12500000000E+03  0.12500000000E+03 0.  0.
        -13    1    3    3    0    0 -0.79917836096E+01  0.25545631501E+02 -0.31678504865E+02  0.41472722705E+02  0.10566000000E+00 0. -1.
         23    2    1    0    0    0 -0.83270346610E+01 -0.25106887498E+02 -0.13607525303E+02  0.95253402699E+02  0.90489505882E+02 0.  0.
         13    1    3    3    0    0 -0.33525105145E+00 -0.50652519000E+02  0.18070979562E+02  0.53780679994E+02  0.10566000000E+00 0.  1.
         22    1    1    0    0    0  0.83270346610E+01  0.25106887498E+02  0.13607525303E+02  0.29746597301E+02  0.00000000000E+00 0.  1.
</event>
<event>
 5    1  0.1285375E-004  0.9118800E+02  0.7818608E-02  0.1130116E+00
         25   -1    0    0    0    0  0.00000000000E+00  0.00000000000E+00  0.99999998245E-14  0.12500000000E+03  0.12500000000E+03 0.  0.
        -13    1    3    3    0    0 -0.17144312014E+02  0.82692766040E+01 -0.34063797967E+02  0.39021300158E+02  0.10566000000E+00 0. -1.
         23    2    1    0    0    0  0.14943831621E+02 -0.24795055772E+02 -0.46443692504E+00  0.96046095325E+02  0.91577965861E+02 0.  0.
         13    1    3    3    0    0  0.32088143635E+02 -0.33064332376E+02  0.33599361042E+02  0.57024795168E+02  0.10566000000E+00 0.  1.
         22    1    1    0    0    0 -0.14943831621E+02  0.24795055772E+02  0.46443692504E+00  0.28953904675E+02  0.00000000000E+00 0. -1.
</event>
<event>
 5    1  0.1285375E-004  0.9118800E+02  0.7818608E-02  0.1130116E+00
         25   -1    0    0    0    0  0.00000000000E+00  0.00000000000E+00  0.99999998245E-14  0.12500000000E+03  0.12500000000E+03 0.  0.
        -13    1    3    3    0    0  0.43729300187E+02  0.15860396700E+02 -0.34753457577E+02  0.58065634035E+02  0.10566000000E+00 0.  1.
         23    2    1    0    0    0  0.17634028601E+02 -0.76101697511E+01 -0.22902962230E+02  0.95109879103E+02  0.90291028212E+02 0.  0.
         13    1    3    3    0    0 -0.26095271586E+02 -0.23470566451E+02  0.11850495346E+02  0.37044245068E+02  0.10566000000E+00 0. -1.
         22    1    1    0    0    0 -0.17634028601E+02  0.76101697511E+01  0.22902962230E+02  0.29890120897E+02  0.00000000000E+00 0.  1.
</event>
<event>
 5    1  0.1285375E-004  0.9118800E+02  0.7818608E-02  0.1130116E+00
         25   -1    0    0    0    0  0.00000000000E+00  0.00000000000E+00  0.99999998245E-14  0.12500000000E+03  0.12500000000E+03 0.  0.
        -13    1    3    3    0    0  0.23105073536E+02 -0.36194862801E+02  0.13909711860E+02  0.45137609200E+02  0.10566000000E+00 0.  1.
         23    2    1    0    0    0  0.95734982610E+01  0.17141547422E+02  0.15186008349E+02  0.10017865099E+03  0.97054947057E+02 0.  0.
         13    1    3    3    0    0 -0.13531575275E+02  0.53336410223E+02  0.12762964881E+01  0.55041041793E+02  0.10566000000E+00 0. -1.
         22    1    1    0    0    0 -0.95734982610E+01 -0.17141547422E+02 -0.15186008349E+02  0.24821349007E+02  0.00000000000E+00 0.  1.
</event>
<event>
 5    1  0.1285375E-004  0.9118800E+02  0.7818608E-02  0.1130116E+00
         25   -1    0    0    0    0  0.00000000000E+00  0.00000000000E+00  0.99999998245E-14  0.12500000000E+03  0.12500000000E+03 0.  0.
        -13    1    3    3    0    0 -0.43412363137E+02 -0.37603081410E+02 -0.21743802581E+02  0.61411962348E+02  0.10566000000E+00 0.  1.
         23    2    1    0    0    0 -0.24422080319E+02 -0.16427485014E+02 -0.31387502082E+01  0.95400134732E+02  0.90691971437E+02 0.  0.
         13    1    3    3    0    0  0.18990282818E+02  0.21175596396E+02  0.18605052373E+02  0.33988172385E+02  0.10566000000E+00 0. -1.
         22    1    1    0    0    0  0.24422080319E+02  0.16427485014E+02  0.31387502082E+01  0.29599865268E+02  0.00000000000E+00 0.  1.
</event>
<event>
 5    1  0.1285375E-004  0.9118800E+02  0.7818608E-02  0.1130116E+00
         25   -1    0    0    0    0  0.00000000000E+00  0.00000000000E+00  0.99999998245E-14  0.12500000000E+03  0.12500000000E+03 0.  0.
        -13    1    3    3    0    0  0.35488341585E+01  0.12513389816E+02 -0.39685585454E+02  0.41762854374E+02  0.10566000000E+00 0. -1.
         23    2    1    0    0    0  0.25404534659E+02 -0.13671218410E+02  0.25354729361E+01  0.96039316012E+02  0.91568711921E+02 0.  0.
         13    1    3    3    0    0  0.21855700501E+02 -0.26184608225E+02  0.42221058390E+02  0.54276461638E+02  0.10566000000E+00 0.  1.
         22    1    1    0    0    0 -0.25404534659E+02  0.13671218410E+02 -0.25354729361E+01  0.28960683988E+02  0.00000000000E+00 0.  1.
</event>
<event>
 5    1  0.1285375E-004  0.9118800E+02  0.7818608E-02  0.1130116E+00
         25   -1    0    0    0    0  0.00000000000E+00  0.00000000000E+00  0.99999998245E-14  0.12500000000E+03  0.12500000000E+03 0.  0.
        -13    1    3    3    0    0 -0.19347306370E+02  0.45359179663E+02 -0.19700945741E+02  0.53102842397E+02  0.10566000000E+00 0.  1.
         23    2    1    0    0    0  0.14558653449E+02  0.25877263102E+02 -0.49416921529E+01  0.94900042239E+02  0.90000058665E+02 0.  0.
         13    1    3    3    0    0  0.33905959819E+02 -0.19481916562E+02  0.14759253588E+02  0.41797199842E+02  0.10566000000E+00 0. -1.
         22    1    1    0    0    0 -0.14558653449E+02 -0.25877263102E+02  0.49416921529E+01  0.30099957761E+02  0.00000000000E+00 0.  1.
</event>
<event>
 5    1  0.1285375E-004  0.9118800E+02  0.7818608E-02  0.1130116E+00
         25   -1    0    0    0    0  0.00000000000E+00  0.00000000000E+00  0.99999998245E-14  0.12500000000E+03  0.12500000000E+03 0.  0.
        -13    1    3    3    0    0  0.19890099829E+02  0.32581776064E+02 -0.80874111145E+00  0.38181846850E+02  0.10566000000E+00 0. -1.
         23    2    1    0    0    0  0.39927217957E+01 -0.22114625212E+02  0.15818101271E+02  0.97518900978E+02  0.93566688755E+02 0.  0.
         13    1    3    3    0    0 -0.15897378034E+02 -0.54696401276E+02  0.16626842383E+02  0.59337054128E+02  0.10566000000E+00 0.  1.
         22    1    1    0    0    0 -0.39927217957E+01  0.22114625212E+02 -0.15818101271E+02  0.27481099022E+02  0.00000000000E+00 0.  1.
</event>
<event>
 5    1  0.1285375E-004  0.9118800E+02  0.7818608E-02  0.1130116E+00
         25   -1    0    0    0    0  0.00000000000E+00  0.00000000000E+00  0.99999998245E-14  0.12500000000E+03  0.12500000000E+03 0.  0.
        -13    1    3    3    0    0 -0.30911901680E+02  0.26321420861E+02  0.37404462078E+02  0.55203874946E+02  0.10566000000E+00 0.  1.
         23    2    1    0    0    0 -0.20025533406E+02 -0.72741340701E+01  0.23819467977E+02  0.93042182969E+02  0.87381609863E+02 0.  0.
         13    1    3    3    0    0  0.10886368274E+02 -0.33595554931E+02 -0.13584994101E+02  0.37838308023E+02  0.10566000000E+00 0. -1.
         22    1    1    0    0    0  0.20025533406E+02  0.72741340701E+01 -0.23819467977E+02  0.31957817031E+02  0.00000000000E+00 0. -1.
</event>
<event>
 5    1  0.1285375E-004  0.9118800E+02  0.7818608E-02  0.1130116E+00
         25   -1    0    0    0    0  0.00000000000E+00  0.00000000000E+00  0.99999998245E-14  0.12500000000E+03  0.12500000000E+03 0.  0.
        -13    1    3    3    0    0  0.50104210320E+02  0.29790530514E+02 -0.15959328780E+02  0.60436900477E+02  0.10566000000E+00 0.  1.
         23    2    1    0    0    0  0.30725086376E+02  0.60644926422E+01 -0.35804863689E+01  0.93478120512E+02  0.88003012039E+02 0.  0.
         13    1    3    3    0    0 -0.19379123943E+02 -0.23726037872E+02  0.12378842412E+02  0.33041220035E+02  0.10566000000E+00 0. -1.
         22    1    1    0    0    0 -0.30725086376E+02 -0.60644926422E+01  0.35804863689E+01  0.31521879488E+02  0.00000000000E+00 0.  1.
</event>
<event>
 5    1  0.1285375E-004  0.9118800E+02  0.7818608E-02  0.1130116E+00
         25   -1    0    0    0    0  0.00000000000E+00  0.00000000000E+00  0.99999998245E-14  0.12500000000E+03  0.12500000000E+03 0.  0.
        -13    1    3    3    0    0 -0.15914833775E+02  0.32846393617E+02  0.26739656626E+02  0.45245860675E+02  0.10566000000E+00 0. -1.
         23    2    1    0    0    0  0.25185819728E+02  0.72616705558E+01  0.13889702017E+02  0.95335522982E+02  0.90602873826E+02 0.  0.
         13    1    3    3    0    0  0.41100653503E+02 -0.25584723061E+02 -0.12849954608E+02  0.50089662307E+02  0.10566000000E+00 0.  1.
         22    1    1    0    0    0 -0.25185819728E+02 -0.72616705558E+01 -0.13889702017E+02  0.29664477018E+02  0.00000000000E+00 0. -1.
</event>
<event>
 5    1  0.1285375E-004  0.9118800E+02  0.7818608E-02  0.1130116E+00
         25   -1    0    0    0    0  0.00000000000E+00  0.00000000000E+00  0.99999998245E-14  0.12500000000E+03  0.12500000000E+03 0.  0.
        -13    1    3    3    0    0  0.15647931496E+02  0.71857759718E+01  0.46689757596E+02  0.49763819838E+02  0.10566000000E+00 0.  1.
         23    2    1    0    0    0  0.18158810460E+02 -0.20945983759E+02  0.11246697531E+02  0.95084037065E+02  0.90255245090E+02 0.  0.
         13    1    3    3    0    0  0.25108789644E+01 -0.28131759731E+02 -0.35443060065E+02  0.45320217227E+02  0.10566000000E+00 0. -1.
         22    1    1    0    0    0 -0.18158810460E+02  0.20945983759E+02 -0.11246697531E+02  0.29915962935E+02  0.00000000000E+00 0.  1.
</event>
<event>
 5    1  0.1285375E-004  0.9118800E+02  0.7818608E-02  0.1130116E+00
         25   -1    0    0    0    0  0.00000000000E+00  0.00000000000E+00  0.99999998245E-14  0.12500000000E+03  0.12500000000E+03 0.  0.
        -13    1    3    3    0    0  0.45417591123E+02  0.20537843930E+02 -0.46274634939E+01  0.50059816212E+02  0.10566000000E+00 0. -1.
         23    2    1    0    0    0  0.78178530856E+00  0.29068380976E+02 -0.49389659299E+01  0.95504655532E+02  0.90835917362E+02 0.  0.
         13    1    3    3    0    0 -0.44635805815E+02  0.85305370458E+01 -0.31150243595E+00  0.45444839320E+02  0.10566000000E+00 0.  1.
         22    1    1    0    0    0 -0.78178530856E+00 -0.29068380976E+02  0.49389659299E+01  0.29495344468E+02  0.00000000000E+00 0. -1.
</event>
<event>
 5    1  0.1285375E-004  0.9118800E+02  0.7818608E-02  0.1130116E+00
         25   -1    0    0    0    0  0.00000000000E+00  0.00000000000E+00  0.99999998245E-14  0.12500000000E+03  0.12500000000E+03 0.  0.
        -13    1    3    3    0    0 -0.15147598799E+01  0.35561025158E+02 -0.29307489485E+01  0.35713883312E+02  0.10566000000E+00 0. -1.
         23    2    1    0    0    0  0.17260314778E+02 -0.21254403672E+02 -0.97437709389E+01  0.95937838797E+02  0.91430080932E+02 0.  0.
         13    1    3    3    0    0  0.18775074658E+02 -0.56815428830E+02 -0.68130219904E+01  0.60223955485E+02  0.10566000000E+00 0.  1.
         22    1    1    0    0    0 -0.17260314778E+02  0.21254403672E+02  0.97437709389E+01  0.29062161203E+02  0.00000000000E+00 0.  1.
</event>
<event>
 5    1  0.1285375E-004  0.9118800E+02  0.7818608E-02  0.1130116E+00
         25   -1    0    0    0    0  0.00000000000E+00  0.00000000000E+00  0.99999998245E-14  0.12500000000E+03  0.12500000000E+03 0.  0.
        -13    1    3    3    0    0 -0.22507780852E+02 -0.45919302281E+02 -0.16429233959E+02  0.53713251748E+02  0.10566000000E+00 0.  1.
         23    2    1    0    0    0 -0.25632317869E+02 -0.84605145056E+01  0.58112220096E+01  0.97389018014E+02  0.93393010999E+02 0.  0.
         13    1    3    3    0    0 -0.31245370164E+01  0.37458787775E+02  0.22240455969E+02  0.43675766265E+02  0.10566000000E+00 0. -1.
         22    1    1    0    0    0  0.25632317869E+02  0.84605145056E+01 -0.58112220096E+01  0.27610981986E+02  0.00000000000E+00 0.  1.
</event>
<event>
 5    1  0.1285375E-004  0.9118800E+02  0.7818608E-02  0.1130116E+00
         25   -1    0    0    0    0  0.00000000000E+00  0.00000000000E+00  0.99999998245E-14  0.12500000000E+03  0.12500000000E+03 0.  0.
        -13    1    3    3    0    0  0.33990073933E+02 -0.14182905679E+02 -0.57417524504E+01  0.37275445333E+02  0.10566000000E+00 0. -1.
         23    2    1    0    0    0 -0.25100863324E+02 -0.12297774191E+02  0.23596897583E+01  0.96949033431E+02  0.92802254056E+02 0.  0.
         13    1    3    3    0    0 -0.59090937257E+02  0.18851314879E+01  0.81014422087E+01  0.59673588099E+02  0.10566000000E+00 0.  1.
         22    1    1    0    0    0  0.25100863324E+02  0.12297774191E+02 -0.23596897583E+01  0.28050966569E+02  0.00000000000E+00 0.  1.
</event>
<event>
 5    1  0.1285375E-004  0.9118800E+02  0.7818608E-02  0.1130116E+00
         25   -1    0    0    0    0  0.00000000000E+00  0.00000000000E+00  0.99999998245E-14  0.12500000000E+03  0.12500000000E+03 0.  0.
        -13    1    3    3    0    0 -0.21501239470E+02 -0.25824941737E+02 -0.26028880481E+02  0.42505819573E+02  0.10566000000E+00 0. -1.
         23    2    1    0    0    0  0.71375360481E+01 -0.21770359606E+02  0.18464799096E+02  0.95574810385E+02  0.90932406744E+02 0.  0.
         13    1    3    3    0    0  0.28638775518E+02  0.40545821315E+01  0.44493679577E+02  0.53068990812E+02  0.10566000000E+00 0.  1.
         22    1    1    0    0    0 -0.71375360481E+01  0.21770359606E+02 -0.18464799096E+02  0.29425189615E+02  0.00000000000E+00 0.  1.
</event>
<event>
 5    1  0.1285375E-004  0.9118800E+02  0.7818608E-02  0.1130116E+00
         25   -1    0    0    0    0  0.00000000000E+00  0.00000000000E+00  0.99999998245E-14  0.12500000000E+03  0.12500000000E+03 0.  0.
        -13    1    3    3    0    0  0.44011726837E+02 -0.12471896294E+02  0.23124793216E+02  0.51257658175E+02  0.10566000000E+00 0.  1.
         23    2    1    0    0    0  0.15555491579E+02 -0.16516372325E+02 -0.14099725745E+02  0.98287341219E+02  0.94587712230E+02 0.  0.
         13    1    3    3    0    0 -0.28456235257E+02 -0.40444760314E+01 -0.37224518960E+02  0.47029683044E+02  0.10566000000E+00 0. -1.
         22    1    1    0    0    0 -0.15555491579E+02  0.16516372325E+02  0.14099725745E+02  0.26712658781E+02  0.00000000000E+00 0.  1.
</event>
<event>
 5    1  0.1285375E-004  0.9118800E+02  0.7818608E-02  0.1130116E+00
         25   -1    0    0    0    0  0.00000000000E+00  0.00000000000E+00  0.99999998245E-14  0.12500000000E+03  0.12500000000E+03 0.  0.
        -13    1    3    3    0    0 -0.28585692752E+02 -0.83022271138E+01 -0.33714284149E+02  0.44974803222E+02  0.10566000000E+00 0. -1.
         23    2    1    0    0    0 -0.83300167226E+01  0.27624250091E+02 -0.38584665221E+01  0.95890274210E+02  0.91365029155E+02 0.  0.
         13    1    3    3    0    0  0.20255676029E+02  0.35926477204E+02  0.29855817627E+02  0.50915470988E+02  0.10566000000E+00 0.  1.
         22    1    1    0    0    0  0.83300167226E+01 -0.27624250091E+02  0.38584665221E+01  0.29109725790E+02  0.00000000000E+00 0.  1.
</event>
<event>
 5    1  0.1285375E-004  0.9118800E+02  0.7818608E-02  0.1130116E+00
         25   -1    0    0    0    0  0.00000000000E+00  0.00000000000E+00  0.99999998245E-14  0.12500000000E+03  0.12500000000E+03 0.  0.
        -13    1    3    3    0    0 -0.34752144165E+02  0.47829427883E+01  0.27422324303E+02  0.44526206890E+02  0.10566000000E+00 0.  1.
         23    2    1    0    0    0 -0.36779821884E+01  0.21916420916E+02 -0.13740108803E+02  0.98872473354E+02  0.95357843612E+02 0.  0.
         13    1    3    3    0    0  0.31074161976E+02  0.17133478127E+02 -0.41162433107E+02  0.54346266464E+02  0.10566000000E+00 0. -1.
         22    1    1    0    0    0  0.36779821884E+01 -0.21916420916E+02  0.13740108803E+02  0.26127526646E+02  0.00000000000E+00 0. -1.
</event>
<event>
 5    1  0.1285375E-004  0.9118800E+02  0.7818608E-02  0.1130116E+00
         25   -1    0    0    0    0  0.00000000000E+00  0.00000000000E+00  0.99999998245E-14  0.12500000000E+03  0.12500000000E+03 0.  0.
        -13    1    3    3    0    0 -0.26348000350E+02  0.22446139846E+02  0.46422577752E+02  0.57906072269E+02  0.10566000000E+00 0. -1.
         23    2    1    0    0    0 -0.20194490603E+01  0.42939086986E+01  0.33944897978E+02  0.90725053973E+02  0.84001568397E+02 0.  0.
         13    1    3    3    0    0  0.24328551290E+02 -0.18152231147E+02 -0.12477679774E+02  0.32818981704E+02  0.10566000000E+00 0.  1.
         22    1    1    0    0    0  0.20194490603E+01 -0.42939086986E+01 -0.33944897978E+02  0.34274946027E+02  0.00000000000E+00 0. -1.
</event>
<event>
 5    1  0.1285375E-004  0.9118800E+02  0.7818608E-02  0.1130116E+00
         25   -1    0    0    0    0  0.00000000000E+00  0.00000000000E+00  0.99999998245E-14  0.12500000000E+03  0.12500000000E+03 0.  0.
        -13    1    3    3    0    0  0.31165647606E+02  0.36563383645E+01  0.42713737730E+02  0.53001329755E+02  0.10566000000E+00 0. -1.
         23    2    1    0    0    0  0.95185479338E+01 -0.20738737448E+02  0.75435600889E+01  0.10096662145E+03  0.98064546920E+02 0.  0.
         13    1    3    3    0    0 -0.21647099672E+02 -0.24395075812E+02 -0.35170177641E+02  0.47965291695E+02  0.10566000000E+00 0.  1.
         22    1    1    0    0    0 -0.95185479338E+01  0.20738737448E+02 -0.75435600889E+01  0.24033378550E+02  0.00000000000E+00 0. -1.
</event>
<event>
 5    1  0.1285375E-004  0.9118800E+02  0.7818608E-02  0.1130116E+00
         25   -1    0    0    0    0  0.00000000000E+00  0.00000000000E+00  0.99999998245E-14  0.12500000000E+03  0.12500000000E+03 0.  0.
        -13    1    3    3    0    0  0.23315695713E+02 -0.13295271683E+02  0.53515648304E+02  0.59869204881E+02  0.10566000000E+00 0.  1.
         23    2    1    0    0    0  0.58083553454E+01  0.50346341283E+01  0.28497766032E+02  0.95483780706E+02  0.90807186811E+02 0.  0.
         13    1    3    3    0    0 -0.17507340367E+02  0.18329905811E+02 -0.25017882272E+02  0.35614575825E+02  0.10566000000E+00 0. -1.
         22    1    1    0    0    0 -0.58083553454E+01 -0.50346341283E+01 -0.28497766032E+02  0.29516219294E+02  0.00000000000E+00 0.  1.
</event>
<event>
 5    1  0.1285375E-004  0.9118800E+02  0.7818608E-02  0.1130116E+00
         25   -1    0    0    0    0  0.00000000000E+00  0.00000000000E+00  0.99999998245E-14  0.12500000000E+03  0.12500000000E+03 0.  0.
        -13    1    3    3    0    0  0.44673960904E+02 -0.23793038852E+02 -0.12677218323E+02  0.52178487033E+02  0.10566000000E+00 0. -1.
         23    2    1    0    0    0  0.19285602934E+02 -0.14473454657E+02  0.19340061007E+02  0.94089591882E+02  0.88867305409E+02 0.  0.
         13    1    3    3    0    0 -0.25388357970E+02  0.93195841949E+01  0.32017279329E+02  0.41911104849E+02  0.10566000000E+00 0.  1.
         22    1    1    0    0    0 -0.19285602934E+02  0.14473454657E+02 -0.19340061007E+02  0.30910408118E+02  0.00000000000E+00 0. -1.
</event>
