<event>
 5    1  0.1264731E-009  0.9118800E+02  0.7815553E-02  0.1125453E+00
         25   -1    0    0    0    0  0.00000000000E+00  0.00000000000E+00  0.99999998245E-14  0.12509000000E+03  0.12509000000E+03 0.  0.
        -13    1    3    3    0    0 -0.14023073064E+02  0.12808234086E+02 -0.26690925124E+02  0.32758420086E+02  0.10566000000E+00 0. -1.
         23    2    1    0    0    0  0.68115159345E+01 -0.16205677304E+02  0.24350577267E+02  0.95057162315E+02  0.90188096597E+02 0.  0.
         13    1    3    3    0    0  0.20834588998E+02 -0.29013911390E+02  0.51041502391E+02  0.62298742228E+02  0.10566000000E+00 0.  1.
         22    1    1    0    0    0 -0.68115159345E+01  0.16205677304E+02 -0.24350577267E+02  0.30032837685E+02  0.00000000000E+00 0.  1.
</event>
<event>
 5    1  0.1264731E-009  0.9118800E+02  0.7815553E-02  0.1125453E+00
         25   -1    0    0    0    0  0.00000000000E+00  0.00000000000E+00  0.99999998245E-14  0.12509000000E+03  0.12509000000E+03 0.  0.
        -13    1    3    3    0    0  0.29781694308E+02 -0.19295014439E+02  0.37272653758E+02  0.51463664660E+02  0.10566000000E+00 0. -1.
         23    2    1    0    0    0 -0.23873724812E+01 -0.28310070860E+02  0.88326086214E+01  0.95338115446E+02  0.90576937585E+02 0.  0.
         13    1    3    3    0    0 -0.32169066790E+02 -0.90150564204E+01 -0.28440045136E+02  0.43874450786E+02  0.10566000000E+00 0.  1.
         22    1    1    0    0    0  0.23873724812E+01  0.28310070860E+02 -0.88326086214E+01  0.29751884554E+02  0.00000000000E+00 0. -1.
</event>
<event>
 5    1  0.1264731E-009  0.9118800E+02  0.7815553E-02  0.1125453E+00
         25   -1    0    0    0    0  0.00000000000E+00  0.00000000000E+00  0.99999998245E-14  0.12509000000E+03  0.12509000000E+03 0.  0.
        -13    1    3    3    0    0  0.21583485726E+02 -0.24755020649E+02  0.20024563956E+02  0.38466247920E+02  0.10566000000E+00 0. -1.
         23    2    1    0    0    0  0.34225217063E+01  0.14609709995E+01 -0.28398802148E+02  0.96448420879E+02  0.92097545220E+02 0.  0.
         13    1    3    3    0    0 -0.18160964019E+02  0.26215991648E+02 -0.48423366104E+02  0.57982172959E+02  0.10566000000E+00 0.  1.
         22    1    1    0    0    0 -0.34225217063E+01 -0.14609709995E+01  0.28398802148E+02  0.28641579121E+02  0.00000000000E+00 0.  1.
</event>
<event>
 5    1  0.1264731E-009  0.9118800E+02  0.7815553E-02  0.1125453E+00
         25   -1    0    0    0    0  0.00000000000E+00  0.00000000000E+00  0.99999998245E-14  0.12509000000E+03  0.12509000000E+03 0.  0.
        -13    1    3    3    0    0  0.24325675169E+02  0.14102502618E+02  0.46745292451E+02  0.54550459053E+02  0.10566000000E+00 0.  1.
         23    2    1    0    0    0  0.29856724804E+02 -0.33194031011E+01  0.14234754781E+02  0.91847396362E+02  0.85620520449E+02 0.  0.
         13    1    3    3    0    0  0.55310496348E+01 -0.17421905719E+02 -0.32510537671E+02  0.37296937309E+02  0.10566000000E+00 0. -1.
         22    1    1    0    0    0 -0.29856724804E+02  0.33194031011E+01 -0.14234754781E+02  0.33242603638E+02  0.00000000000E+00 0.  1.
</event>
<event>
 5    1  0.1264731E-009  0.9118800E+02  0.7815553E-02  0.1125453E+00
         25   -1    0    0    0    0  0.00000000000E+00  0.00000000000E+00  0.99999998245E-14  0.12509000000E+03  0.12509000000E+03 0.  0.
        -13    1    3    3    0    0 -0.24817282039E+02  0.14043599254E+02  0.36964513079E+02  0.46685185648E+02  0.10566000000E+00 0.  1.
         23    2    1    0    0    0 -0.13370238537E+02  0.22858868297E+02 -0.10727551091E+02  0.96517784637E+02  0.92191709283E+02 0.  0.
         13    1    3    3    0    0  0.11447043503E+02  0.88152690427E+01 -0.47692064169E+02  0.49832598989E+02  0.10566000000E+00 0. -1.
         22    1    1    0    0    0  0.13370238537E+02 -0.22858868297E+02  0.10727551091E+02  0.28572215363E+02  0.00000000000E+00 0.  1.
</event>
<event>
 5    1  0.1264731E-009  0.9118800E+02  0.7815553E-02  0.1125453E+00
         25   -1    0    0    0    0  0.00000000000E+00  0.00000000000E+00  0.99999998245E-14  0.12509000000E+03  0.12509000000E+03 0.  0.
        -13    1    3    3    0    0 -0.16087062886E+01  0.15547919538E+02 -0.34869578548E+02  0.38212882776E+02  0.10566000000E+00 0.  1.
         23    2    1    0    0    0  0.21520988419E+02 -0.20098943732E+02  0.34616914198E+01  0.95440315531E+02  0.90717969771E+02 0.  0.
         13    1    3    3    0    0  0.23129694707E+02 -0.35646863270E+02  0.38331269968E+02  0.57227432754E+02  0.10566000000E+00 0. -1.
         22    1    1    0    0    0 -0.21520988419E+02  0.20098943732E+02 -0.34616914198E+01  0.29649684469E+02  0.00000000000E+00 0. -1.
</event>
<event>
 5    1  0.1264731E-009  0.9118800E+02  0.7815553E-02  0.1125453E+00
         25   -1    0    0    0    0  0.00000000000E+00  0.00000000000E+00  0.99999998245E-14  0.12509000000E+03  0.12509000000E+03 0.  0.
        -13    1    3    3    0    0  0.12295155313E+02  0.22203747356E+01  0.30664228898E+02  0.33112037178E+02  0.10566000000E+00 0. -1.
         23    2    1    0    0    0  0.36170039463E+00 -0.85304609692E+01 -0.28978537156E+02  0.94879816167E+02  0.89941782886E+02 0.  0.
         13    1    3    3    0    0 -0.11933454918E+02 -0.10750835705E+02 -0.59642766054E+02  0.61767778989E+02  0.10566000000E+00 0.  1.
         22    1    1    0    0    0 -0.36170039463E+00  0.85304609692E+01  0.28978537156E+02  0.30210183833E+02  0.00000000000E+00 0.  1.
</event>
<event>
 5    1  0.1264731E-009  0.9118800E+02  0.7815553E-02  0.1125453E+00
         25   -1    0    0    0    0  0.00000000000E+00  0.00000000000E+00  0.99999998245E-14  0.12509000000E+03  0.12509000000E+03 0.  0.
        -13    1    3    3    0    0 -0.32839166242E+02 -0.24442635677E+02  0.53905129254E+01  0.41290702004E+02  0.10566000000E+00 0.  1.
         23    2    1    0    0    0  0.20881617447E+02 -0.17953944908E+02 -0.67253724925E+01  0.96741865667E+02  0.92495253136E+02 0.  0.
         13    1    3    3    0    0  0.53720783690E+02  0.64886907691E+01 -0.12115885418E+02  0.55451163663E+02  0.10566000000E+00 0. -1.
         22    1    1    0    0    0 -0.20881617447E+02  0.17953944908E+02  0.67253724925E+01  0.28348134333E+02  0.00000000000E+00 0. -1.
</event>
<event>
 5    1  0.1264731E-009  0.9118800E+02  0.7815553E-02  0.1125453E+00
         25   -1    0    0    0    0  0.00000000000E+00  0.00000000000E+00  0.99999998245E-14  0.12509000000E+03  0.12509000000E+03 0.  0.
        -13    1    3    3    0    0  0.35300760663E+02 -0.84281452773E+01 -0.62455091496E+01  0.36826551356E+02  0.10566000000E+00 0.  1.
         23    2    1    0    0    0 -0.81961788823E+01  0.21212605514E+02  0.19234377785E+02  0.95305553224E+02  0.90531956820E+02 0.  0.
         13    1    3    3    0    0 -0.43496939545E+02  0.29640750792E+02  0.25479886934E+02  0.58479001868E+02  0.10566000000E+00 0. -1.
         22    1    1    0    0    0  0.81961788823E+01 -0.21212605514E+02 -0.19234377785E+02  0.29784446776E+02  0.00000000000E+00 0. -1.
</event>
<event>
 5    1  0.1264731E-009  0.9118800E+02  0.7815553E-02  0.1125453E+00
         25   -1    0    0    0    0  0.00000000000E+00  0.00000000000E+00  0.99999998245E-14  0.12509000000E+03  0.12509000000E+03 0.  0.
        -13    1    3    3    0    0 -0.43143991227E+02 -0.11766046841E+02  0.39327347961E+02  0.59552458378E+02  0.10566000000E+00 0.  1.
         23    2    1    0    0    0 -0.21203671406E+02 -0.19220186878E+02  0.16621219296E+02  0.91995042746E+02  0.85835958049E+02 0.  0.
         13    1    3    3    0    0  0.21940319820E+02 -0.74541400373E+01 -0.22706128664E+02  0.32442584368E+02  0.10566000000E+00 0. -1.
         22    1    1    0    0    0  0.21203671406E+02  0.19220186878E+02 -0.16621219296E+02  0.33094957254E+02  0.00000000000E+00 0.  1.
</event>
<event>
 5    1  0.1264731E-009  0.9118800E+02  0.7815553E-02  0.1125453E+00
         25   -1    0    0    0    0  0.00000000000E+00  0.00000000000E+00  0.99999998245E-14  0.12509000000E+03  0.12509000000E+03 0.  0.
        -13    1    3    3    0    0 -0.54522878957E+02 -0.14946430621E+02  0.86850747424E+01  0.57197743009E+02  0.10566000000E+00 0.  1.
         23    2    1    0    0    0 -0.18914963680E+02 -0.23450362956E+02 -0.56122038504E+00  0.94956790046E+02  0.90048773639E+02 0.  0.
         13    1    3    3    0    0  0.35607915277E+02 -0.85039323355E+01 -0.92462951274E+01  0.37759047037E+02  0.10566000000E+00 0. -1.
         22    1    1    0    0    0  0.18914963680E+02  0.23450362956E+02  0.56122038504E+00  0.30133209954E+02  0.00000000000E+00 0.  1.
</event>
<event>
 5    1  0.1264731E-009  0.9118800E+02  0.7815553E-02  0.1125453E+00
         25   -1    0    0    0    0  0.00000000000E+00  0.00000000000E+00  0.99999998245E-14  0.12509000000E+03  0.12509000000E+03 0.  0.
        -13    1    3    3    0    0  0.77632527518E+01 -0.53893025378E+02 -0.21951036185E+02  0.58707626688E+02  0.10566000000E+00 0.  1.
         23    2    1    0    0    0  0.66604870840E+01 -0.28070754556E+02  0.47301696710E+01  0.95854681382E+02  0.91287546184E+02 0.  0.
         13    1    3    3    0    0 -0.11027656678E+01  0.25822270822E+02  0.26681205856E+02  0.37147054694E+02  0.10566000000E+00 0. -1.
         22    1    1    0    0    0 -0.66604870840E+01  0.28070754556E+02 -0.47301696710E+01  0.29235318618E+02  0.00000000000E+00 0.  1.
</event>
<event>
 5    1  0.1264731E-009  0.9118800E+02  0.7815553E-02  0.1125453E+00
         25   -1    0    0    0    0  0.00000000000E+00  0.00000000000E+00  0.99999998245E-14  0.12509000000E+03  0.12509000000E+03 0.  0.
        -13    1    3    3    0    0 -0.45036061609E+02  0.16588411203E+02  0.31890516981E+01  0.48099931874E+02  0.10566000000E+00 0. -1.
         23    2    1    0    0    0 -0.26527922783E+02  0.36820221100E+01  0.31136795159E+02  0.84019475451E+02  0.73297232337E+02 0.  0.
         13    1    3    3    0    0  0.18508138826E+02 -0.12906389093E+02  0.27947743460E+02  0.35919543577E+02  0.10566000000E+00 0.  1.
         22    1    1    0    0    0  0.26527922783E+02 -0.36820221100E+01 -0.31136795159E+02  0.41070524549E+02  0.00000000000E+00 0. -1.
</event>
<event>
 5    1  0.1264731E-009  0.9118800E+02  0.7815553E-02  0.1125453E+00
         25   -1    0    0    0    0  0.00000000000E+00  0.00000000000E+00  0.99999998245E-14  0.12509000000E+03  0.12509000000E+03 0.  0.
        -13    1    3    3    0    0 -0.46825255982E+01  0.49241008642E+02 -0.33601456347E+02  0.59796923088E+02  0.10566000000E+00 0.  1.
         23    2    1    0    0    0 -0.13789038827E+02  0.17422567660E+02 -0.18508460108E+02  0.96172072149E+02  0.91721431030E+02 0.  0.
         13    1    3    3    0    0 -0.91065132285E+01 -0.31818440982E+02  0.15092996239E+02  0.36375149061E+02  0.10566000000E+00 0. -1.
         22    1    1    0    0    0  0.13789038827E+02 -0.17422567660E+02  0.18508460108E+02  0.28917927851E+02  0.00000000000E+00 0.  1.
</event>
<event>
 5    1  0.1264731E-009  0.9118800E+02  0.7815553E-02  0.1125453E+00
         25   -1    0    0    0    0  0.00000000000E+00  0.00000000000E+00  0.99999998245E-14  0.12509000000E+03  0.12509000000E+03 0.  0.
        -13    1    3    3    0    0  0.58547552062E+02  0.13488778620E+02 -0.12446015802E+02  0.61356967611E+02  0.10566000000E+00 0. -1.
         23    2    1    0    0    0  0.24382386938E+02  0.13815388363E+02 -0.87927635427E+01  0.95718611897E+02  0.91100901336E+02 0.  0.
         13    1    3    3    0    0 -0.34165165124E+02  0.32660974239E+00  0.36532522591E+01  0.34361644285E+02  0.10566000000E+00 0.  1.
         22    1    1    0    0    0 -0.24382386938E+02 -0.13815388363E+02  0.87927635427E+01  0.29371388103E+02  0.00000000000E+00 0. -1.
</event>
<event>
 5    1  0.1264731E-009  0.9118800E+02  0.7815553E-02  0.1125453E+00
         25   -1    0    0    0    0  0.00000000000E+00  0.00000000000E+00  0.99999998245E-14  0.12509000000E+03  0.12509000000E+03 0.  0.
        -13    1    3    3    0    0  0.97232242323E+00 -0.35489876253E+02  0.17391881674E+02  0.39534357710E+02  0.10566000000E+00 0.  1.
         23    2    1    0    0    0  0.30872993731E+02  0.71500956841E+01  0.65304057991E+01  0.92733983402E+02  0.86906155521E+02 0.  0.
         13    1    3    3    0    0  0.29900671308E+02  0.42639971937E+02 -0.10861475875E+02  0.53199625691E+02  0.10566000000E+00 0. -1.
         22    1    1    0    0    0 -0.30872993731E+02 -0.71500956841E+01 -0.65304057991E+01  0.32356016598E+02  0.00000000000E+00 0. -1.
</event>
<event>
 5    1  0.1264731E-009  0.9118800E+02  0.7815553E-02  0.1125453E+00
         25   -1    0    0    0    0  0.00000000000E+00  0.00000000000E+00  0.99999998245E-14  0.12509000000E+03  0.12509000000E+03 0.  0.
        -13    1    3    3    0    0  0.58096283164E+01 -0.57171349269E+02 -0.22525192163E+02  0.61722851558E+02  0.10566000000E+00 0.  1.
         23    2    1    0    0    0 -0.33594821803E+01 -0.25182669865E+02 -0.14032526603E+02  0.96066478764E+02  0.91577309183E+02 0.  0.
         13    1    3    3    0    0 -0.91691104967E+01  0.31988679404E+02  0.84926655596E+01  0.34343627206E+02  0.10566000000E+00 0. -1.
         22    1    1    0    0    0  0.33594821803E+01  0.25182669865E+02  0.14032526603E+02  0.29023521236E+02  0.00000000000E+00 0.  1.
</event>
<event>
 5    1  0.1264731E-009  0.9118800E+02  0.7815553E-02  0.1125453E+00
         25   -1    0    0    0    0  0.00000000000E+00  0.00000000000E+00  0.99999998245E-14  0.12509000000E+03  0.12509000000E+03 0.  0.
        -13    1    3    3    0    0 -0.29942387373E+02 -0.59773204919E+01 -0.30998896058E+02  0.43511120909E+02  0.10566000000E+00 0.  1.
         23    2    1    0    0    0  0.18360337582E+02 -0.13760951980E+02 -0.22086596249E+02  0.93242181717E+02  0.87634587476E+02 0.  0.
         13    1    3    3    0    0  0.48302724955E+02 -0.77836314885E+01  0.89122998099E+01  0.49731060809E+02  0.10566000000E+00 0. -1.
         22    1    1    0    0    0 -0.18360337582E+02  0.13760951980E+02  0.22086596249E+02  0.31847818283E+02  0.00000000000E+00 0.  1.
</event>
<event>
 5    1  0.1264731E-009  0.9118800E+02  0.7815553E-02  0.1125453E+00
         25   -1    0    0    0    0  0.00000000000E+00  0.00000000000E+00  0.99999998245E-14  0.12509000000E+03  0.12509000000E+03 0.  0.
        -13    1    3    3    0    0  0.18107050944E+02  0.41296957053E+02 -0.42648292103E+02  0.62066028865E+02  0.10566000000E+00 0. -1.
         23    2    1    0    0    0  0.39724093069E+01  0.18552681196E+02 -0.22968582550E+02  0.95298427373E+02  0.90522110338E+02 0.  0.
         13    1    3    3    0    0 -0.14134641637E+02 -0.22744275857E+02  0.19679709552E+02  0.33232398508E+02  0.10566000000E+00 0.  1.
         22    1    1    0    0    0 -0.39724093069E+01 -0.18552681196E+02  0.22968582550E+02  0.29791572627E+02  0.00000000000E+00 0. -1.
</event>
<event>
 5    1  0.1264731E-009  0.9118800E+02  0.7815553E-02  0.1125453E+00
         25   -1    0    0    0    0  0.00000000000E+00  0.00000000000E+00  0.99999998245E-14  0.12509000000E+03  0.12509000000E+03 0.  0.
        -13    1    3    3    0    0  0.28492977541E+02  0.32120316976E+02 -0.16118737271E+02  0.45862723284E+02  0.10566000000E+00 0.  1.
         23    2    1    0    0    0 -0.17764360281E+02  0.16154415682E+02 -0.18382064685E+02  0.94850324996E+02  0.89900757547E+02 0.  0.
         13    1    3    3    0    0 -0.46257337822E+02 -0.15965901294E+02 -0.22633274135E+01  0.48987601712E+02  0.10566000000E+00 0. -1.
         22    1    1    0    0    0  0.17764360281E+02 -0.16154415682E+02  0.18382064685E+02  0.30239675004E+02  0.00000000000E+00 0. -1.
</event>
<event>
 5    1  0.1264731E-009  0.9118800E+02  0.7815553E-02  0.1125453E+00
         25   -1    0    0    0    0  0.00000000000E+00  0.00000000000E+00  0.99999998245E-14  0.12509000000E+03  0.12509000000E+03 0.  0.
        -13    1    3    3    0    0 -0.36232213878E+02  0.30643286567E+01  0.49821791144E+02  0.61679700627E+02  0.10566000000E+00 0. -1.
         23    2    1    0    0    0 -0.22324899485E+02 -0.29868141755E+01  0.20773940629E+02  0.94448870693E+02  0.89340418456E+02 0.  0.
         13    1    3    3    0    0  0.13907314393E+02 -0.60511428322E+01 -0.29047850515E+02  0.32769170065E+02  0.10566000000E+00 0.  1.
         22    1    1    0    0    0  0.22324899485E+02  0.29868141755E+01 -0.20773940629E+02  0.30641129307E+02  0.00000000000E+00 0. -1.
</event>
<event>
 5    1  0.1264731E-009  0.9118800E+02  0.7815553E-02  0.1125453E+00
         25   -1    0    0    0    0  0.00000000000E+00  0.00000000000E+00  0.99999998245E-14  0.12509000000E+03  0.12509000000E+03 0.  0.
        -13    1    3    3    0    0  0.33598213963E+02 -0.38988022313E+02  0.11405095544E+02  0.52716157236E+02  0.10566000000E+00 0. -1.
         23    2    1    0    0    0  0.40380912964E+01 -0.63569347777E+01  0.25146339829E+02  0.98840138898E+02  0.95290701800E+02 0.  0.
         13    1    3    3    0    0 -0.29560122667E+02  0.32631087535E+02  0.13741244285E+02  0.46123981662E+02  0.10566000000E+00 0.  1.
         22    1    1    0    0    0 -0.40380912964E+01  0.63569347777E+01 -0.25146339829E+02  0.26249861102E+02  0.00000000000E+00 0. -1.
</event>
<event>
 5    1  0.1264731E-009  0.9118800E+02  0.7815553E-02  0.1125453E+00
         25   -1    0    0    0    0  0.00000000000E+00  0.00000000000E+00  0.99999998245E-14  0.12509000000E+03  0.12509000000E+03 0.  0.
        -13    1    3    3    0    0 -0.45962145531E+02  0.32037972858E+02 -0.15226691699E+02  0.58058710206E+02  0.10566000000E+00 0.  1.
         23    2    1    0    0    0 -0.11564736762E+02  0.16417538640E+02 -0.20721218795E+02  0.96234365893E+02  0.91806348142E+02 0.  0.
         13    1    3    3    0    0  0.34397408768E+02 -0.15620434218E+02 -0.54945270954E+01  0.38175655687E+02  0.10566000000E+00 0. -1.
         22    1    1    0    0    0  0.11564736762E+02 -0.16417538640E+02  0.20721218795E+02  0.28855634107E+02  0.00000000000E+00 0.  1.
</event>
<event>
 5    1  0.1264731E-009  0.9118800E+02  0.7815553E-02  0.1125453E+00
         25   -1    0    0    0    0  0.00000000000E+00  0.00000000000E+00  0.99999998245E-14  0.12509000000E+03  0.12509000000E+03 0.  0.
        -13    1    3    3    0    0 -0.16857786749E+02  0.20442305706E+02  0.51401930821E+02  0.57829425839E+02  0.10566000000E+00 0. -1.
         23    2    1    0    0    0 -0.39874188147E+01 -0.62044962196E+01  0.29597769139E+02  0.94587160457E+02  0.89533835522E+02 0.  0.
         13    1    3    3    0    0  0.12870367934E+02 -0.26646801925E+02 -0.21804161682E+02  0.36757734619E+02  0.10566000000E+00 0.  1.
         22    1    1    0    0    0  0.39874188147E+01  0.62044962196E+01 -0.29597769139E+02  0.30502839543E+02  0.00000000000E+00 0. -1.
</event>
<event>
 5    1  0.1264731E-009  0.9118800E+02  0.7815553E-02  0.1125453E+00
         25   -1    0    0    0    0  0.00000000000E+00  0.00000000000E+00  0.99999998245E-14  0.12509000000E+03  0.12509000000E+03 0.  0.
        -13    1    3    3    0    0 -0.65883759629E+00 -0.30882567352E+02  0.12519595448E+02  0.33330443553E+02  0.10566000000E+00 0. -1.
         23    2    1    0    0    0  0.30597614952E+02  0.95579714660E+01 -0.13048107001E+02  0.90480435490E+02  0.83599564896E+02 0.  0.
         13    1    3    3    0    0  0.31256452548E+02  0.40440538818E+02 -0.25567702449E+02  0.57149991937E+02  0.10566000000E+00 0.  1.
         22    1    1    0    0    0 -0.30597614952E+02 -0.95579714660E+01  0.13048107001E+02  0.34609564510E+02  0.00000000000E+00 0.  1.
</event>
<event>
 5    1  0.1264731E-009  0.9118800E+02  0.7815553E-02  0.1125453E+00
         25   -1    0    0    0    0  0.00000000000E+00  0.00000000000E+00  0.99999998245E-14  0.12509000000E+03  0.12509000000E+03 0.  0.
        -13    1    3    3    0    0 -0.47815145832E+01  0.37531638481E+02  0.12870083234E+02  0.39964196167E+02  0.10566000000E+00 0. -1.
         23    2    1    0    0    0  0.40883205363E+00 -0.14602733801E+02  0.27142778276E+02  0.94265701295E+02  0.89083584627E+02 0.  0.
         13    1    3    3    0    0  0.51903466368E+01 -0.52134372281E+02  0.14272695043E+02  0.54301505128E+02  0.10566000000E+00 0.  1.
         22    1    1    0    0    0 -0.40883205363E+00  0.14602733801E+02 -0.27142778276E+02  0.30824298705E+02  0.00000000000E+00 0.  1.
</event>
<event>
 5    1  0.1264731E-009  0.9118800E+02  0.7815553E-02  0.1125453E+00
         25   -1    0    0    0    0  0.00000000000E+00  0.00000000000E+00  0.99999998245E-14  0.12509000000E+03  0.12509000000E+03 0.  0.
        -13    1    3    3    0    0  0.32866271018E+02  0.12692541127E+02 -0.26390255822E+02  0.44019872073E+02  0.10566000000E+00 0.  1.
         23    2    1    0    0    0  0.28127330869E+01 -0.26803051655E+02 -0.11000507338E+02  0.95981131813E+02  0.91460655240E+02 0.  0.
         13    1    3    3    0    0 -0.30053537932E+02 -0.39495592782E+02  0.15389748484E+02  0.51961259740E+02  0.10566000000E+00 0. -1.
         22    1    1    0    0    0 -0.28127330869E+01  0.26803051655E+02  0.11000507338E+02  0.29108868187E+02  0.00000000000E+00 0. -1.
</event>
<event>
 5    1  0.1264731E-009  0.9118800E+02  0.7815553E-02  0.1125453E+00
         25   -1    0    0    0    0  0.00000000000E+00  0.00000000000E+00  0.99999998245E-14  0.12509000000E+03  0.12509000000E+03 0.  0.
        -13    1    3    3    0    0  0.38341743181E+00  0.89072023526E+01 -0.57772716531E+02  0.58456677994E+02  0.10566000000E+00 0.  1.
         23    2    1    0    0    0  0.12291102082E+02  0.13432210984E+02 -0.21416076001E+02  0.96980503498E+02  0.92817424362E+02 0.  0.
         13    1    3    3    0    0  0.11907684650E+02  0.45250086315E+01  0.36356640530E+02  0.38523825505E+02  0.10566000000E+00 0. -1.
         22    1    1    0    0    0 -0.12291102082E+02 -0.13432210984E+02  0.21416076001E+02  0.28109496502E+02  0.00000000000E+00 0.  1.
</event>
<event>
 5    1  0.1264731E-009  0.9118800E+02  0.7815553E-02  0.1125453E+00
         25   -1    0    0    0    0  0.00000000000E+00  0.00000000000E+00  0.99999998245E-14  0.12509000000E+03  0.12509000000E+03 0.  0.
        -13    1    3    3    0    0 -0.36639478084E+01  0.30725930684E+02  0.23346107557E+02  0.38762858925E+02  0.10566000000E+00 0.  1.
         23    2    1    0    0    0  0.29951509161E+02 -0.11812494592E+01 -0.71894116299E+01  0.94265076790E+02  0.89082707701E+02 0.  0.
         13    1    3    3    0    0  0.33615456970E+02 -0.31907180143E+02 -0.30535519187E+02  0.55502217865E+02  0.10566000000E+00 0. -1.
         22    1    1    0    0    0 -0.29951509161E+02  0.11812494592E+01  0.71894116299E+01  0.30824923210E+02  0.00000000000E+00 0. -1.
</event>
<event>
 5    1  0.1264731E-009  0.9118800E+02  0.7815553E-02  0.1125453E+00
         25   -1    0    0    0    0  0.00000000000E+00  0.00000000000E+00  0.99999998245E-14  0.12509000000E+03  0.12509000000E+03 0.  0.
        -13    1    3    3    0    0 -0.35485536618E+02 -0.47765945816E+02 -0.44893268097E+01  0.59673898046E+02  0.10566000000E+00 0.  1.
         23    2    1    0    0    0 -0.82004329139E+01 -0.21493122040E+01 -0.86346121249E+01  0.11298945582E+03  0.11233963662E+03 0.  0.
         13    1    3    3    0    0  0.27285103704E+02  0.45616633612E+02 -0.41452853152E+01  0.53315557773E+02  0.10566000000E+00 0. -1.
         22    1    1    0    0    0  0.82004329139E+01  0.21493122040E+01  0.86346121249E+01  0.12100544181E+02  0.00000000000E+00 0.  1.
</event>
<event>
 5    1  0.1264731E-009  0.9118800E+02  0.7815553E-02  0.1125453E+00
         25   -1    0    0    0    0  0.00000000000E+00  0.00000000000E+00  0.99999998245E-14  0.12509000000E+03  0.12509000000E+03 0.  0.
        -13    1    3    3    0    0 -0.36057202279E+02 -0.46247630603E+01  0.75002338747E+00  0.36360472613E+02  0.10566000000E+00 0. -1.
         23    2    1    0    0    0  0.17922286849E+02 -0.14888185341E+01  0.23900941068E+02  0.95178799248E+02  0.90356648321E+02 0.  0.
         13    1    3    3    0    0  0.53979489128E+02  0.31359445262E+01  0.23150917680E+02  0.58818326634E+02  0.10566000000E+00 0.  1.
         22    1    1    0    0    0 -0.17922286849E+02  0.14888185341E+01 -0.23900941068E+02  0.29911200752E+02  0.00000000000E+00 0.  1.
</event>
<event>
 5    1  0.1264731E-009  0.9118800E+02  0.7815553E-02  0.1125453E+00
         25   -1    0    0    0    0  0.00000000000E+00  0.00000000000E+00  0.99999998245E-14  0.12509000000E+03  0.12509000000E+03 0.  0.
        -13    1    3    3    0    0 -0.15176392840E+02  0.27441635643E+02 -0.14120988786E+02  0.34391565168E+02  0.10566000000E+00 0.  1.
         23    2    1    0    0    0  0.22204612107E+02 -0.13956611743E+02  0.12313882339E+02  0.96116503345E+02  0.91645614771E+02 0.  0.
         13    1    3    3    0    0  0.37381004947E+02 -0.41398247386E+02  0.26434871125E+02  0.61724938177E+02  0.10566000000E+00 0. -1.
         22    1    1    0    0    0 -0.22204612107E+02  0.13956611743E+02 -0.12313882339E+02  0.28973496655E+02  0.00000000000E+00 0. -1.
</event>
<event>
 5    1  0.1264731E-009  0.9118800E+02  0.7815553E-02  0.1125453E+00
         25   -1    0    0    0    0  0.00000000000E+00  0.00000000000E+00  0.99999998245E-14  0.12509000000E+03  0.12509000000E+03 0.  0.
        -13    1    3    3    0    0 -0.28650139205E+02  0.96254338722E+01  0.45649152674E+02  0.54747929254E+02  0.10566000000E+00 0. -1.
         23    2    1    0    0    0  0.61209400066E+01  0.12918328923E+02  0.27471157237E+02  0.94122055143E+02  0.88881649714E+02 0.  0.
         13    1    3    3    0    0  0.34771079212E+02  0.32928950507E+01 -0.18177995438E+02  0.39374125889E+02  0.10566000000E+00 0.  1.
         22    1    1    0    0    0 -0.61209400066E+01 -0.12918328923E+02 -0.27471157237E+02  0.30967944857E+02  0.00000000000E+00 0. -1.
</event>
<event>
 5    1  0.1264731E-009  0.9118800E+02  0.7815553E-02  0.1125453E+00
         25   -1    0    0    0    0  0.00000000000E+00  0.00000000000E+00  0.99999998245E-14  0.12509000000E+03  0.12509000000E+03 0.  0.
        -13    1    3    3    0    0 -0.24869333691E+01 -0.25005163216E+02  0.27278467472E+02  0.37088663722E+02  0.10566000000E+00 0. -1.
         23    2    1    0    0    0 -0.14263617215E+02  0.24290600752E+02 -0.39883255749E+01  0.96640205592E+02  0.92357666358E+02 0.  0.
         13    1    3    3    0    0 -0.11776683845E+02  0.49295763969E+02 -0.31266793047E+02  0.59551541870E+02  0.10566000000E+00 0.  1.
         22    1    1    0    0    0  0.14263617215E+02 -0.24290600752E+02  0.39883255749E+01  0.28449794408E+02  0.00000000000E+00 0.  1.
</event>
<event>
 5    1  0.1264731E-009  0.9118800E+02  0.7815553E-02  0.1125453E+00
         25   -1    0    0    0    0  0.00000000000E+00  0.00000000000E+00  0.99999998245E-14  0.12509000000E+03  0.12509000000E+03 0.  0.
        -13    1    3    3    0    0 -0.25687321055E+02 -0.40477894466E+02 -0.22946332585E+02  0.53149259135E+02  0.10566000000E+00 0. -1.
         23    2    1    0    0    0 -0.68534533857E+01 -0.28392609591E+02  0.11059963372E+02  0.93858078949E+02  0.88509355955E+02 0.  0.
         13    1    3    3    0    0  0.18833867670E+02  0.12085284875E+02  0.34006295958E+02  0.40708819815E+02  0.10566000000E+00 0.  1.
         22    1    1    0    0    0  0.68534533857E+01  0.28392609591E+02 -0.11059963372E+02  0.31231921051E+02  0.00000000000E+00 0. -1.
</event>
<event>
 5    1  0.1264731E-009  0.9118800E+02  0.7815553E-02  0.1125453E+00
         25   -1    0    0    0    0  0.00000000000E+00  0.00000000000E+00  0.99999998245E-14  0.12509000000E+03  0.12509000000E+03 0.  0.
        -13    1    3    3    0    0 -0.44690413024E+02 -0.53863188626E+01 -0.37789560773E+02  0.58773357184E+02  0.10566000000E+00 0.  1.
         23    2    1    0    0    0 -0.10460149574E+02  0.17543707701E+00 -0.28581087542E+02  0.94654427517E+02  0.89627766771E+02 0.  0.
         13    1    3    3    0    0  0.34230263450E+02  0.55617559396E+01  0.92084732316E+01  0.35881070334E+02  0.10566000000E+00 0. -1.
         22    1    1    0    0    0  0.10460149574E+02 -0.17543707701E+00  0.28581087542E+02  0.30435572483E+02  0.00000000000E+00 0.  1.
</event>
<event>
 5    1  0.1264731E-009  0.9118800E+02  0.7815553E-02  0.1125453E+00
         25   -1    0    0    0    0  0.00000000000E+00  0.00000000000E+00  0.99999998245E-14  0.12509000000E+03  0.12509000000E+03 0.  0.
        -13    1    3    3    0    0 -0.46280201196E+02 -0.18172842895E+02  0.35526356559E+02  0.61108447992E+02  0.10566000000E+00 0.  1.
         23    2    1    0    0    0 -0.16857408539E+02 -0.16654574877E+02  0.17258122157E+02  0.95774647924E+02  0.91177811542E+02 0.  0.
         13    1    3    3    0    0  0.29422792657E+02  0.15182680178E+01 -0.18268234402E+02  0.34666199932E+02  0.10566000000E+00 0. -1.
         22    1    1    0    0    0  0.16857408539E+02  0.16654574877E+02 -0.17258122157E+02  0.29315352076E+02  0.00000000000E+00 0.  1.
</event>
<event>
 5    1  0.1264731E-009  0.9118800E+02  0.7815553E-02  0.1125453E+00
         25   -1    0    0    0    0  0.00000000000E+00  0.00000000000E+00  0.99999998245E-14  0.12509000000E+03  0.12509000000E+03 0.  0.
        -13    1    3    3    0    0  0.44256401589E+01 -0.44273023326E+02  0.37768347009E+02  0.58362197398E+02  0.10566000000E+00 0. -1.
         23    2    1    0    0    0 -0.73326521148E+01 -0.10608366979E+02  0.26263225916E+02  0.95831458127E+02  0.91255718145E+02 0.  0.
         13    1    3    3    0    0 -0.11758292274E+02  0.33664656347E+02 -0.11505121093E+02  0.37469260729E+02  0.10566000000E+00 0.  1.
         22    1    1    0    0    0  0.73326521148E+01  0.10608366979E+02 -0.26263225916E+02  0.29258541873E+02  0.00000000000E+00 0. -1.
</event>
<event>
 5    1  0.1264731E-009  0.9118800E+02  0.7815553E-02  0.1125453E+00
         25   -1    0    0    0    0  0.00000000000E+00  0.00000000000E+00  0.99999998245E-14  0.12509000000E+03  0.12509000000E+03 0.  0.
        -13    1    3    3    0    0  0.30276634110E+02 -0.40555100297E+02 -0.20356422018E+02  0.54550763648E+02  0.10566000000E+00 0.  1.
         23    2    1    0    0    0  0.16513732860E+02 -0.20872732345E+02  0.12852141994E+02  0.95534088876E+02  0.90847180777E+02 0.  0.
         13    1    3    3    0    0 -0.13762901250E+02  0.19682367952E+02  0.33208564012E+02  0.40983325229E+02  0.10566000000E+00 0. -1.
         22    1    1    0    0    0 -0.16513732860E+02  0.20872732345E+02 -0.12852141994E+02  0.29555911124E+02  0.00000000000E+00 0.  1.
</event>
<event>
 5    1  0.1264731E-009  0.9118800E+02  0.7815553E-02  0.1125453E+00
         25   -1    0    0    0    0  0.00000000000E+00  0.00000000000E+00  0.99999998245E-14  0.12509000000E+03  0.12509000000E+03 0.  0.
        -13    1    3    3    0    0  0.29576602054E+01  0.22227008467E+01 -0.31075411500E+02  0.31295055790E+02  0.10566000000E+00 0. -1.
         23    2    1    0    0    0 -0.95989407104E+01  0.15504357503E+02  0.27185081255E+02  0.92355409622E+02  0.86359529175E+02 0.  0.
         13    1    3    3    0    0 -0.12556600916E+02  0.13281656657E+02  0.58260492755E+02  0.61060353833E+02  0.10566000000E+00 0.  1.
         22    1    1    0    0    0  0.95989407104E+01 -0.15504357503E+02 -0.27185081255E+02  0.32734590378E+02  0.00000000000E+00 0.  1.
</event>
<event>
 5    1  0.1264731E-009  0.9118800E+02  0.7815553E-02  0.1125453E+00
         25   -1    0    0    0    0  0.00000000000E+00  0.00000000000E+00  0.99999998245E-14  0.12509000000E+03  0.12509000000E+03 0.  0.
        -13    1    3    3    0    0 -0.50477796562E+02 -0.21539723327E+02 -0.49334117959E+01  0.55102788884E+02  0.10566000000E+00 0.  1.
         23    2    1    0    0    0 -0.13371730508E+02 -0.22376724754E+02  0.12583141863E+02  0.96144249938E+02  0.91683479153E+02 0.  0.
         13    1    3    3    0    0  0.37106066054E+02 -0.83700142689E+00  0.17516553658E+02  0.41041461054E+02  0.10566000000E+00 0. -1.
         22    1    1    0    0    0  0.13371730508E+02  0.22376724754E+02 -0.12583141863E+02  0.28945750062E+02  0.00000000000E+00 0.  1.
</event>
<event>
 5    1  0.1264731E-009  0.9118800E+02  0.7815553E-02  0.1125453E+00
         25   -1    0    0    0    0  0.00000000000E+00  0.00000000000E+00  0.99999998245E-14  0.12509000000E+03  0.12509000000E+03 0.  0.
        -13    1    3    3    0    0 -0.16068217448E+02  0.35293132424E+02 -0.11132198451E+02  0.40345133717E+02  0.10566000000E+00 0. -1.
         23    2    1    0    0    0 -0.92558306099E+01 -0.16451950169E+02 -0.24441965230E+02  0.94207209825E+02  0.89001413776E+02 0.  0.
         13    1    3    3    0    0  0.68123868385E+01 -0.51745082593E+02 -0.13309766780E+02  0.53862076109E+02  0.10566000000E+00 0.  1.
         22    1    1    0    0    0  0.92558306099E+01  0.16451950169E+02  0.24441965230E+02  0.30882790175E+02  0.00000000000E+00 0.  1.
</event>
<event>
 5    1  0.1264731E-009  0.9118800E+02  0.7815553E-02  0.1125453E+00
         25   -1    0    0    0    0  0.00000000000E+00  0.00000000000E+00  0.99999998245E-14  0.12509000000E+03  0.12509000000E+03 0.  0.
        -13    1    3    3    0    0 -0.18195791174E+02 -0.43437786642E+02 -0.42319344600E+00  0.47096904161E+02  0.10566000000E+00 0.  1.
         23    2    1    0    0    0 -0.18538191088E+02 -0.39823225858E+01  0.24758614881E+02  0.93904868401E+02  0.88575458659E+02 0.  0.
         13    1    3    3    0    0 -0.34239991415E+00  0.39455464057E+02  0.25181808327E+02  0.46807964240E+02  0.10566000000E+00 0. -1.
         22    1    1    0    0    0  0.18538191088E+02  0.39823225858E+01 -0.24758614881E+02  0.31185131599E+02  0.00000000000E+00 0. -1.
</event>
<event>
 5    1  0.1264731E-009  0.9118800E+02  0.7815553E-02  0.1125453E+00
         25   -1    0    0    0    0  0.00000000000E+00  0.00000000000E+00  0.99999998245E-14  0.12509000000E+03  0.12509000000E+03 0.  0.
        -13    1    3    3    0    0 -0.11176976497E+02 -0.46059303871E+02 -0.37797283549E+02  0.60622026396E+02  0.10566000000E+00 0.  1.
         23    2    1    0    0    0 -0.15258679207E+02 -0.16917352381E+02 -0.17301718817E+02  0.96482770551E+02  0.92144188295E+02 0.  0.
         13    1    3    3    0    0 -0.40817027092E+01  0.29141951490E+02  0.20495564732E+02  0.35860744155E+02  0.10566000000E+00 0. -1.
         22    1    1    0    0    0  0.15258679207E+02  0.16917352381E+02  0.17301718817E+02  0.28607229449E+02  0.00000000000E+00 0.  1.
</event>
<event>
 5    1  0.1264731E-009  0.9118800E+02  0.7815553E-02  0.1125453E+00
         25   -1    0    0    0    0  0.00000000000E+00  0.00000000000E+00  0.99999998245E-14  0.12509000000E+03  0.12509000000E+03 0.  0.
        -13    1    3    3    0    0  0.24444433298E+02  0.10951726136E+01 -0.13686309169E+02  0.28036689266E+02  0.10566000000E+00 0. -1.
         23    2    1    0    0    0 -0.27725934645E+02 -0.11357748370E+02  0.17807532240E+02  0.90235529634E+02  0.83232305650E+02 0.  0.
         13    1    3    3    0    0 -0.52170367943E+02 -0.12452920984E+02  0.31493841409E+02  0.62198840368E+02  0.10566000000E+00 0.  1.
         22    1    1    0    0    0  0.27725934645E+02  0.11357748370E+02 -0.17807532240E+02  0.34854470366E+02  0.00000000000E+00 0.  1.
</event>
<event>
 5    1  0.1264731E-009  0.9118800E+02  0.7815553E-02  0.1125453E+00
         25   -1    0    0    0    0  0.00000000000E+00  0.00000000000E+00  0.99999998245E-14  0.12509000000E+03  0.12509000000E+03 0.  0.
        -13    1    3    3    0    0  0.51792751455E+01  0.27430872077E+02 -0.32618902588E+02  0.42933455533E+02  0.10566000000E+00 0. -1.
         23    2    1    0    0    0  0.27505569885E+02  0.82869709169E+01  0.99629444722E+01  0.94684564232E+02  0.89669817551E+02 0.  0.
         13    1    3    3    0    0  0.22326294740E+02 -0.19143901160E+02  0.42581847061E+02  0.51751108699E+02  0.10566000000E+00 0.  1.
         22    1    1    0    0    0 -0.27505569885E+02 -0.82869709169E+01 -0.99629444722E+01  0.30405435768E+02  0.00000000000E+00 0.  1.
</event>
<event>
 5    1  0.1264731E-009  0.9118800E+02  0.7815553E-02  0.1125453E+00
         25   -1    0    0    0    0  0.00000000000E+00  0.00000000000E+00  0.99999998245E-14  0.12509000000E+03  0.12509000000E+03 0.  0.
        -13    1    3    3    0    0  0.67518113284E+01 -0.16231402105E+01  0.41910663173E+02  0.42482189115E+02  0.10566000000E+00 0.  1.
         23    2    1    0    0    0 -0.24625161394E+02 -0.13709737798E+02 -0.86617077241E+00  0.96892380669E+02  0.92698585187E+02 0.  0.
         13    1    3    3    0    0 -0.31376972722E+02 -0.12086597587E+02 -0.42776833946E+02  0.54410191553E+02  0.10566000000E+00 0. -1.
         22    1    1    0    0    0  0.24625161394E+02  0.13709737798E+02  0.86617077241E+00  0.28197619331E+02  0.00000000000E+00 0. -1.
</event>
<event>
 5    1  0.1264731E-009  0.9118800E+02  0.7815553E-02  0.1125453E+00
         25   -1    0    0    0    0  0.00000000000E+00  0.00000000000E+00  0.99999998245E-14  0.12509000000E+03  0.12509000000E+03 0.  0.
        -13    1    3    3    0    0  0.13223107432E+02 -0.20040715972E+02  0.47498145576E+02  0.53221855135E+02  0.10566000000E+00 0.  1.
         23    2    1    0    0    0  0.29260732685E+02 -0.54119088428E+01  0.16501258158E+02  0.91063969444E+02  0.84468193869E+02 0.  0.
         13    1    3    3    0    0  0.16037625253E+02  0.14628807129E+02 -0.30996887417E+02  0.37842114309E+02  0.10566000000E+00 0. -1.
         22    1    1    0    0    0 -0.29260732685E+02  0.54119088428E+01 -0.16501258158E+02  0.34026030556E+02  0.00000000000E+00 0.  1.
</event>
<event>
 5    1  0.1264731E-009  0.9118800E+02  0.7815553E-02  0.1125453E+00
         25   -1    0    0    0    0  0.00000000000E+00  0.00000000000E+00  0.99999998245E-14  0.12509000000E+03  0.12509000000E+03 0.  0.
        -13    1    3    3    0    0  0.15821490167E+02 -0.49942588290E+02 -0.17918160992E+02  0.55368342341E+02  0.10566000000E+00 0. -1.
         23    2    1    0    0    0 -0.11851109569E+02 -0.27481982458E+02 -0.22136076927E+00  0.95160797565E+02  0.90331723302E+02 0.  0.
         13    1    3    3    0    0 -0.27672599736E+02  0.22460605833E+02  0.17696800223E+02  0.39792455223E+02  0.10566000000E+00 0.  1.
         22    1    1    0    0    0  0.11851109569E+02  0.27481982458E+02  0.22136076927E+00  0.29929202435E+02  0.00000000000E+00 0. -1.
</event>
<event>
 5    1  0.1264731E-009  0.9118800E+02  0.7815553E-02  0.1125453E+00
         25   -1    0    0    0    0  0.00000000000E+00  0.00000000000E+00  0.99999998245E-14  0.12509000000E+03  0.12509000000E+03 0.  0.
        -13    1    3    3    0    0 -0.33668249331E+02  0.89032801175E+01  0.24188612989E+02  0.42401881706E+02  0.10566000000E+00 0. -1.
         23    2    1    0    0    0  0.30306036521E+01  0.27878412283E+02 -0.92589262203E+01  0.95558353506E+02  0.90880585276E+02 0.  0.
         13    1    3    3    0    0  0.36698852983E+02  0.18975132165E+02 -0.33447539210E+02  0.53156471799E+02  0.10566000000E+00 0.  1.
         22    1    1    0    0    0 -0.30306036521E+01 -0.27878412283E+02  0.92589262203E+01  0.29531646494E+02  0.00000000000E+00 0. -1.
</event>
<event>
 5    1  0.1264731E-009  0.9118800E+02  0.7815553E-02  0.1125453E+00
         25   -1    0    0    0    0  0.00000000000E+00  0.00000000000E+00  0.99999998245E-14  0.12509000000E+03  0.12509000000E+03 0.  0.
        -13    1    3    3    0    0 -0.47397572247E+02 -0.31464427527E+02 -0.23813088548E+02  0.61673449756E+02  0.10566000000E+00 0.  1.
         23    2    1    0    0    0 -0.26146786263E+02 -0.85227076780E+01 -0.11472723253E+02  0.95292108180E+02  0.90513377599E+02 0.  0.
         13    1    3    3    0    0  0.21250785984E+02  0.22941719849E+02  0.12340365295E+02  0.33618658424E+02  0.10566000000E+00 0. -1.
         22    1    1    0    0    0  0.26146786263E+02  0.85227076780E+01  0.11472723253E+02  0.29797891820E+02  0.00000000000E+00 0.  1.
</event>
<event>
 5    1  0.1264731E-009  0.9118800E+02  0.7815553E-02  0.1125453E+00
         25   -1    0    0    0    0  0.00000000000E+00  0.00000000000E+00  0.99999998245E-14  0.12509000000E+03  0.12509000000E+03 0.  0.
        -13    1    3    3    0    0 -0.67344262449E+01  0.33326874677E+02  0.13828775128E+02  0.36705302861E+02  0.10566000000E+00 0.  1.
         23    2    1    0    0    0  0.31823854633E+02 -0.11983096813E+01 -0.69788265976E+01  0.92487888252E+02  0.86551209020E+02 0.  0.
         13    1    3    3    0    0  0.38558280878E+02 -0.34525184358E+02 -0.20807601726E+02  0.55782585390E+02  0.10566000000E+00 0. -1.
         22    1    1    0    0    0 -0.31823854633E+02  0.11983096813E+01  0.69788265976E+01  0.32602111748E+02  0.00000000000E+00 0. -1.
</event>
<event>
 5    1  0.1264731E-009  0.9118800E+02  0.7815553E-02  0.1125453E+00
         25   -1    0    0    0    0  0.00000000000E+00  0.00000000000E+00  0.99999998245E-14  0.12509000000E+03  0.12509000000E+03 0.  0.
        -13    1    3    3    0    0 -0.12503920538E+02 -0.26255824312E+02  0.52547989708E+02  0.60058460899E+02  0.10566000000E+00 0.  1.
         23    2    1    0    0    0 -0.13969887273E+02 -0.30662790479E+01  0.26592665728E+02  0.94895138050E+02  0.89963089861E+02 0.  0.
         13    1    3    3    0    0 -0.14659667346E+01  0.23189545264E+02 -0.25955323980E+02  0.34836677151E+02  0.10566000000E+00 0. -1.
         22    1    1    0    0    0  0.13969887273E+02  0.30662790479E+01 -0.26592665728E+02  0.30194861950E+02  0.00000000000E+00 0.  1.
</event>
<event>
 5    1  0.1264731E-009  0.9118800E+02  0.7815553E-02  0.1125453E+00
         25   -1    0    0    0    0  0.00000000000E+00  0.00000000000E+00  0.99999998245E-14  0.12509000000E+03  0.12509000000E+03 0.  0.
        -13    1    3    3    0    0 -0.20643051907E+02 -0.23284480125E+02 -0.35670578549E+02  0.47336074455E+02  0.10566000000E+00 0.  1.
         23    2    1    0    0    0 -0.54141959761E+01  0.20277648074E+02 -0.20073157206E+02  0.96048165180E+02  0.91552290331E+02 0.  0.
         13    1    3    3    0    0  0.15228855931E+02  0.43562128199E+02  0.15597421343E+02  0.48712090725E+02  0.10566000000E+00 0. -1.
         22    1    1    0    0    0  0.54141959761E+01 -0.20277648074E+02  0.20073157206E+02  0.29041834820E+02  0.00000000000E+00 0. -1.
</event>
<event>
 5    1  0.1264731E-009  0.9118800E+02  0.7815553E-02  0.1125453E+00
         25   -1    0    0    0    0  0.00000000000E+00  0.00000000000E+00  0.99999998245E-14  0.12509000000E+03  0.12509000000E+03 0.  0.
        -13    1    3    3    0    0 -0.16084255248E+02 -0.38071232955E+02 -0.38763889843E+02  0.56663677655E+02  0.10566000000E+00 0. -1.
         23    2    1    0    0    0 -0.18987072222E+02 -0.25108887001E+01 -0.21489699555E+02  0.96304228157E+02  0.91901489108E+02 0.  0.
         13    1    3    3    0    0 -0.29028169740E+01  0.35560344255E+02  0.17274190288E+02  0.39640550502E+02  0.10566000000E+00 0.  1.
         22    1    1    0    0    0  0.18987072222E+02  0.25108887001E+01  0.21489699555E+02  0.28785771843E+02  0.00000000000E+00 0. -1.
</event>
<event>
 5    1  0.1264731E-009  0.9118800E+02  0.7815553E-02  0.1125453E+00
         25   -1    0    0    0    0  0.00000000000E+00  0.00000000000E+00  0.99999998245E-14  0.12509000000E+03  0.12509000000E+03 0.  0.
        -13    1    3    3    0    0 -0.13919119256E+02  0.96724278531E+01 -0.45861199713E+02  0.48893338448E+02  0.10566000000E+00 0. -1.
         23    2    1    0    0    0  0.86451543483E+01  0.25062189221E+02 -0.40432820945E+02  0.76740594297E+02  0.59594075052E+02 0.  0.
         13    1    3    3    0    0  0.22564273604E+02  0.15389761368E+02  0.54283787684E+01  0.27847255849E+02  0.10566000000E+00 0.  1.
         22    1    1    0    0    0 -0.86451543483E+01 -0.25062189221E+02  0.40432820945E+02  0.48349405703E+02  0.00000000000E+00 0. -1.
</event>
<event>
 5    1  0.1264731E-009  0.9118800E+02  0.7815553E-02  0.1125453E+00
         25   -1    0    0    0    0  0.00000000000E+00  0.00000000000E+00  0.99999998245E-14  0.12509000000E+03  0.12509000000E+03 0.  0.
        -13    1    3    3    0    0  0.24450039336E+02  0.52946968634E+01  0.29511784804E+02  0.38688432958E+02  0.10566000000E+00 0. -1.
         23    2    1    0    0    0  0.29443607195E+01 -0.26756812309E+02 -0.12215133879E+02  0.95529794306E+02  0.90841267271E+02 0.  0.
         13    1    3    3    0    0 -0.21505678616E+02 -0.32051509173E+02 -0.41726918684E+02  0.56841361348E+02  0.10566000000E+00 0.  1.
         22    1    1    0    0    0 -0.29443607195E+01  0.26756812309E+02  0.12215133879E+02  0.29560205694E+02  0.00000000000E+00 0.  1.
</event>
<event>
 5    1  0.1264731E-009  0.9118800E+02  0.7815553E-02  0.1125453E+00
         25   -1    0    0    0    0  0.00000000000E+00  0.00000000000E+00  0.99999998245E-14  0.12509000000E+03  0.12509000000E+03 0.  0.
        -13    1    3    3    0    0 -0.26732312734E+02  0.42454748372E+02 -0.83130866272E+01  0.50854112683E+02  0.10566000000E+00 0.  1.
         23    2    1    0    0    0 -0.27442875287E+02 -0.28899238148E+01  0.22023691287E+01  0.97407632084E+02  0.93391291322E+02 0.  0.
         13    1    3    3    0    0 -0.71056255249E+00 -0.45344672187E+02  0.10515455756E+02  0.46553519401E+02  0.10566000000E+00 0. -1.
         22    1    1    0    0    0  0.27442875287E+02  0.28899238148E+01 -0.22023691287E+01  0.27682367916E+02  0.00000000000E+00 0. -1.
</event>
<event>
 5    1  0.1264731E-009  0.9118800E+02  0.7815553E-02  0.1125453E+00
         25   -1    0    0    0    0  0.00000000000E+00  0.00000000000E+00  0.99999998245E-14  0.12509000000E+03  0.12509000000E+03 0.  0.
        -13    1    3    3    0    0 -0.25120439188E+02  0.42833451043E+01 -0.20429375625E+02  0.32661201183E+02  0.10566000000E+00 0. -1.
         23    2    1    0    0    0  0.18279550258E+02  0.67796792656E+01  0.23561742841E+02  0.94507950783E+02  0.89423101193E+02 0.  0.
         13    1    3    3    0    0  0.43399989446E+02  0.24963341613E+01  0.43991118466E+02  0.61846749600E+02  0.10566000000E+00 0.  1.
         22    1    1    0    0    0 -0.18279550258E+02 -0.67796792656E+01 -0.23561742841E+02  0.30582049217E+02  0.00000000000E+00 0.  1.
</event>
<event>
 5    1  0.1264731E-009  0.9118800E+02  0.7815553E-02  0.1125453E+00
         25   -1    0    0    0    0  0.00000000000E+00  0.00000000000E+00  0.99999998245E-14  0.12509000000E+03  0.12509000000E+03 0.  0.
        -13    1    3    3    0    0 -0.15449739350E+02  0.20552565707E+02  0.27233516315E+02  0.37453677764E+02  0.10566000000E+00 0. -1.
         23    2    1    0    0    0 -0.14497357518E+02 -0.16543553612E+02 -0.18499557449E+02  0.96348111284E+02  0.91961200411E+02 0.  0.
         13    1    3    3    0    0  0.95238183192E+00 -0.37096119320E+02 -0.45733073764E+02  0.58894433520E+02  0.10566000000E+00 0.  1.
         22    1    1    0    0    0  0.14497357518E+02  0.16543553612E+02  0.18499557449E+02  0.28741888716E+02  0.00000000000E+00 0.  1.
</event>
<event>
 5    1  0.1264731E-009  0.9118800E+02  0.7815553E-02  0.1125453E+00
         25   -1    0    0    0    0  0.00000000000E+00  0.00000000000E+00  0.99999998245E-14  0.12509000000E+03  0.12509000000E+03 0.  0.
        -13    1    3    3    0    0  0.19398121987E+02  0.39525395544E+02 -0.78005204690E+01  0.44714687890E+02  0.10566000000E+00 0.  1.
         23    2    1    0    0    0 -0.21963513716E+02  0.14224258996E+01 -0.98220616008E+01  0.10098829624E+03  0.98070096627E+02 0.  0.
         13    1    3    3    0    0 -0.41361635703E+02 -0.38102969644E+02 -0.20215411318E+01  0.56273608346E+02  0.10566000000E+00 0. -1.
         22    1    1    0    0    0  0.21963513716E+02 -0.14224258996E+01  0.98220616008E+01  0.24101703763E+02  0.00000000000E+00 0.  1.
</event>
<event>
 5    1  0.1264731E-009  0.9118800E+02  0.7815553E-02  0.1125453E+00
         25   -1    0    0    0    0  0.00000000000E+00  0.00000000000E+00  0.99999998245E-14  0.12509000000E+03  0.12509000000E+03 0.  0.
        -13    1    3    3    0    0  0.21364226164E+02 -0.11413966870E+02  0.36210170877E+02  0.43564853245E+02  0.10566000000E+00 0. -1.
         23    2    1    0    0    0  0.24385810489E+02 -0.78090012785E+01 -0.15281480693E+02  0.95271014330E+02  0.90484221084E+02 0.  0.
         13    1    3    3    0    0  0.30215843259E+01  0.36049655912E+01 -0.51491651570E+02  0.51706161085E+02  0.10566000000E+00 0.  1.
         22    1    1    0    0    0 -0.24385810489E+02  0.78090012785E+01  0.15281480693E+02  0.29818985670E+02  0.00000000000E+00 0.  1.
</event>
<event>
 5    1  0.1264731E-009  0.9118800E+02  0.7815553E-02  0.1125453E+00
         25   -1    0    0    0    0  0.00000000000E+00  0.00000000000E+00  0.99999998245E-14  0.12509000000E+03  0.12509000000E+03 0.  0.
        -13    1    3    3    0    0  0.27116435500E+02 -0.20873291624E+02 -0.55323068010E+01  0.34664289406E+02  0.10566000000E+00 0. -1.
         23    2    1    0    0    0 -0.17007926491E+02  0.66793934824E+01  0.24342248612E+02  0.94652704977E+02  0.89625362656E+02 0.  0.
         13    1    3    3    0    0 -0.44124361990E+02  0.27552685106E+02  0.29874555413E+02  0.59988415572E+02  0.10566000000E+00 0.  1.
         22    1    1    0    0    0  0.17007926491E+02 -0.66793934824E+01 -0.24342248612E+02  0.30437295023E+02  0.00000000000E+00 0.  1.
</event>
<event>
 5    1  0.1264731E-009  0.9118800E+02  0.7815553E-02  0.1125453E+00
         25   -1    0    0    0    0  0.00000000000E+00  0.00000000000E+00  0.99999998245E-14  0.12509000000E+03  0.12509000000E+03 0.  0.
        -13    1    3    3    0    0  0.21699625010E+01  0.37994566482E+02  0.12930267905E+02  0.40193268236E+02  0.10566000000E+00 0.  1.
         23    2    1    0    0    0  0.20587776860E+02  0.27706728112E+00 -0.22114833644E+02  0.94874123554E+02  0.89933865317E+02 0.  0.
         13    1    3    3    0    0  0.18417814359E+02 -0.37717499201E+02 -0.35045101548E+02  0.54680855318E+02  0.10566000000E+00 0. -1.
         22    1    1    0    0    0 -0.20587776860E+02 -0.27706728112E+00  0.22114833644E+02  0.30215876446E+02  0.00000000000E+00 0. -1.
</event>
<event>
 5    1  0.1264731E-009  0.9118800E+02  0.7815553E-02  0.1125453E+00
         25   -1    0    0    0    0  0.00000000000E+00  0.00000000000E+00  0.99999998245E-14  0.12509000000E+03  0.12509000000E+03 0.  0.
        -13    1    3    3    0    0  0.22881646415E+02  0.55820987034E+02 -0.11774731765E+02  0.61467127868E+02  0.10566000000E+00 0.  1.
         23    2    1    0    0    0  0.15169160030E+02  0.23775777020E+02 -0.12030556038E+02  0.94428537746E+02  0.89311944741E+02 0.  0.
         13    1    3    3    0    0 -0.77124863848E+01 -0.32045210014E+02 -0.25582427320E+00  0.32961409879E+02  0.10566000000E+00 0. -1.
         22    1    1    0    0    0 -0.15169160030E+02 -0.23775777020E+02  0.12030556038E+02  0.30661462254E+02  0.00000000000E+00 0.  1.
</event>
<event>
 5    1  0.1264731E-009  0.9118800E+02  0.7815553E-02  0.1125453E+00
         25   -1    0    0    0    0  0.00000000000E+00  0.00000000000E+00  0.99999998245E-14  0.12509000000E+03  0.12509000000E+03 0.  0.
        -13    1    3    3    0    0  0.46248725325E+00 -0.88472362256E+01 -0.36504987256E+02  0.37564780604E+02  0.10566000000E+00 0. -1.
         23    2    1    0    0    0  0.31514430606E+02  0.14013708992E+02 -0.92215179114E-01  0.90600119168E+02  0.83778456142E+02 0.  0.
         13    1    3    3    0    0  0.31051943353E+02  0.22860945218E+02  0.36412772076E+02  0.53035338564E+02  0.10566000000E+00 0.  1.
         22    1    1    0    0    0 -0.31514430606E+02 -0.14013708992E+02  0.92215179114E-01  0.34489880832E+02  0.00000000000E+00 0.  1.
</event>
<event>
 5    1  0.1264731E-009  0.9118800E+02  0.7815553E-02  0.1125453E+00
         25   -1    0    0    0    0  0.00000000000E+00  0.00000000000E+00  0.99999998245E-14  0.12509000000E+03  0.12509000000E+03 0.  0.
        -13    1    3    3    0    0 -0.45180549131E+02 -0.21708968704E+02 -0.33778425014E+02  0.60444639981E+02  0.10566000000E+00 0. -1.
         23    2    1    0    0    0 -0.25437687437E+02  0.35710605499E+00 -0.14000572904E+02  0.96051757827E+02  0.91557198914E+02 0.  0.
         13    1    3    3    0    0  0.19742861694E+02  0.22066074759E+02  0.19777852110E+02  0.35607117845E+02  0.10566000000E+00 0.  1.
         22    1    1    0    0    0  0.25437687437E+02 -0.35710605499E+00  0.14000572904E+02  0.29038242173E+02  0.00000000000E+00 0. -1.
</event>
<event>
 5    1  0.1264731E-009  0.9118800E+02  0.7815553E-02  0.1125453E+00
         25   -1    0    0    0    0  0.00000000000E+00  0.00000000000E+00  0.99999998245E-14  0.12509000000E+03  0.12509000000E+03 0.  0.
        -13    1    3    3    0    0 -0.30905184313E+02 -0.90623180708E+01  0.38788772255E+02  0.50416624672E+02  0.10566000000E+00 0. -1.
         23    2    1    0    0    0  0.94199794595E+01 -0.19323353408E+02  0.18586688827E+02  0.96671819174E+02  0.92400474138E+02 0.  0.
         13    1    3    3    0    0  0.40325163773E+02 -0.10261035337E+02 -0.20202083428E+02  0.46255194501E+02  0.10566000000E+00 0.  1.
         22    1    1    0    0    0 -0.94199794595E+01  0.19323353408E+02 -0.18586688827E+02  0.28418180826E+02  0.00000000000E+00 0.  1.
</event>
<event>
 5    1  0.1264731E-009  0.9118800E+02  0.7815553E-02  0.1125453E+00
         25   -1    0    0    0    0  0.00000000000E+00  0.00000000000E+00  0.99999998245E-14  0.12509000000E+03  0.12509000000E+03 0.  0.
        -13    1    3    3    0    0  0.11414933856E+02  0.20555366473E+02 -0.27417024290E+02  0.36118252875E+02  0.10566000000E+00 0. -1.
         23    2    1    0    0    0 -0.23065218131E+02 -0.22635689031E+01  0.16655552526E+02  0.96549932348E+02  0.92235318479E+02 0.  0.
         13    1    3    3    0    0 -0.34480151987E+02 -0.22818935376E+02  0.44072576816E+02  0.60431679473E+02  0.10566000000E+00 0.  1.
         22    1    1    0    0    0  0.23065218131E+02  0.22635689031E+01 -0.16655552526E+02  0.28540067652E+02  0.00000000000E+00 0.  1.
</event>
<event>
 5    1  0.1264731E-009  0.9118800E+02  0.7815553E-02  0.1125453E+00
         25   -1    0    0    0    0  0.00000000000E+00  0.00000000000E+00  0.99999998245E-14  0.12509000000E+03  0.12509000000E+03 0.  0.
        -13    1    3    3    0    0 -0.11362700816E+02  0.21069892031E+02 -0.11107611144E+02  0.26390178275E+02  0.10566000000E+00 0. -1.
         23    2    1    0    0    0  0.37292887055E+02  0.13603774309E+02 -0.25781546978E+02  0.77755971385E+02  0.61688579341E+02 0.  0.
         13    1    3    3    0    0  0.48655587871E+02 -0.74661177220E+01 -0.14673935834E+02  0.51365793110E+02  0.10566000000E+00 0.  1.
         22    1    1    0    0    0 -0.37292887055E+02 -0.13603774309E+02  0.25781546978E+02  0.47334028615E+02  0.00000000000E+00 0.  1.
</event>
<event>
 5    1  0.1264731E-009  0.9118800E+02  0.7815553E-02  0.1125453E+00
         25   -1    0    0    0    0  0.00000000000E+00  0.00000000000E+00  0.99999998245E-14  0.12509000000E+03  0.12509000000E+03 0.  0.
        -13    1    3    3    0    0  0.16300957982E+02 -0.10094649132E+02  0.56306583643E+02  0.59481641687E+02  0.10566000000E+00 0.  1.
         23    2    1    0    0    0  0.14694958309E+02 -0.16293082183E+02  0.23372580834E+02  0.93032491339E+02  0.87334761597E+02 0.  0.
         13    1    3    3    0    0 -0.16059996736E+01 -0.61984330518E+01 -0.32934002809E+02  0.33550849651E+02  0.10566000000E+00 0. -1.
         22    1    1    0    0    0 -0.14694958309E+02  0.16293082183E+02 -0.23372580834E+02  0.32057508661E+02  0.00000000000E+00 0.  1.
</event>
<event>
 5    1  0.1264731E-009  0.9118800E+02  0.7815553E-02  0.1125453E+00
         25   -1    0    0    0    0  0.00000000000E+00  0.00000000000E+00  0.99999998245E-14  0.12509000000E+03  0.12509000000E+03 0.  0.
        -13    1    3    3    0    0 -0.45860114333E+02  0.32500850095E+02  0.61671817697E+01  0.56546446737E+02  0.10566000000E+00 0.  1.
         23    2    1    0    0    0 -0.98171171458E+01  0.18259527539E+02  0.18590979846E+02  0.97243803372E+02  0.93171597752E+02 0.  0.
         13    1    3    3    0    0  0.36042997187E+02 -0.14241322556E+02  0.12423798077E+02  0.40697356635E+02  0.10566000000E+00 0. -1.
         22    1    1    0    0    0  0.98171171458E+01 -0.18259527539E+02 -0.18590979846E+02  0.27846196628E+02  0.00000000000E+00 0.  1.
</event>
<event>
 5    1  0.1264731E-009  0.9118800E+02  0.7815553E-02  0.1125453E+00
         25   -1    0    0    0    0  0.00000000000E+00  0.00000000000E+00  0.99999998245E-14  0.12509000000E+03  0.12509000000E+03 0.  0.
        -13    1    3    3    0    0 -0.16475728949E+02 -0.10809296377E+01 -0.41924415389E+02  0.45058693091E+02  0.10566000000E+00 0. -1.
         23    2    1    0    0    0  0.21561351268E+02 -0.15259983156E+02 -0.94797211423E+01  0.97025359126E+02  0.92877856598E+02 0.  0.
         13    1    3    3    0    0  0.38037080217E+02 -0.14179053519E+02  0.32444694247E+02  0.51966666036E+02  0.10566000000E+00 0.  1.
         22    1    1    0    0    0 -0.21561351268E+02  0.15259983156E+02  0.94797211423E+01  0.28064640874E+02  0.00000000000E+00 0.  1.
</event>
<event>
 5    1  0.1264731E-009  0.9118800E+02  0.7815553E-02  0.1125453E+00
         25   -1    0    0    0    0  0.00000000000E+00  0.00000000000E+00  0.99999998245E-14  0.12509000000E+03  0.12509000000E+03 0.  0.
        -13    1    3    3    0    0 -0.14525281992E+01  0.13272504600E+02 -0.37521385603E+02  0.39826307363E+02  0.10566000000E+00 0.  1.
         23    2    1    0    0    0 -0.26793690435E+02  0.40883595278E+01  0.11403574520E+02  0.95684931686E+02  0.91054643534E+02 0.  0.
         13    1    3    3    0    0 -0.25341162236E+02 -0.91841450723E+01  0.48924960123E+02  0.55858624323E+02  0.10566000000E+00 0. -1.
         22    1    1    0    0    0  0.26793690435E+02 -0.40883595278E+01 -0.11403574520E+02  0.29405068314E+02  0.00000000000E+00 0. -1.
</event>
<event>
 5    1  0.1264731E-009  0.9118800E+02  0.7815553E-02  0.1125453E+00
         25   -1    0    0    0    0  0.00000000000E+00  0.00000000000E+00  0.99999998245E-14  0.12509000000E+03  0.12509000000E+03 0.  0.
        -13    1    3    3    0    0  0.16160838543E+02  0.28382339882E+02 -0.68038226673E+01  0.33362150508E+02  0.10566000000E+00 0.  1.
         23    2    1    0    0    0 -0.11062416015E+02 -0.26868709722E+02  0.35392350624E+01  0.95818327771E+02  0.91237717759E+02 0.  0.
         13    1    3    3    0    0 -0.27223254558E+02 -0.55251049604E+02  0.10343057730E+02  0.62456177263E+02  0.10566000000E+00 0. -1.
         22    1    1    0    0    0  0.11062416015E+02  0.26868709722E+02 -0.35392350624E+01  0.29271672229E+02  0.00000000000E+00 0. -1.
</event>
<event>
 5    1  0.1264731E-009  0.9118800E+02  0.7815553E-02  0.1125453E+00
         25   -1    0    0    0    0  0.00000000000E+00  0.00000000000E+00  0.99999998245E-14  0.12509000000E+03  0.12509000000E+03 0.  0.
        -13    1    3    3    0    0 -0.31728121786E+02  0.41036581567E+02  0.14599823984E+01  0.51892364095E+02  0.10566000000E+00 0.  1.
         23    2    1    0    0    0 -0.14624121156E+02  0.71595153799E+01  0.24042082783E+02  0.96053035204E+02  0.91558944114E+02 0.  0.
         13    1    3    3    0    0  0.17104000630E+02 -0.33877066187E+02  0.22582100384E+02  0.44160671109E+02  0.10566000000E+00 0. -1.
         22    1    1    0    0    0  0.14624121156E+02 -0.71595153799E+01 -0.24042082783E+02  0.29036964796E+02  0.00000000000E+00 0.  1.
</event>
<event>
 5    1  0.1264731E-009  0.9118800E+02  0.7815553E-02  0.1125453E+00
         25   -1    0    0    0    0  0.00000000000E+00  0.00000000000E+00  0.99999998245E-14  0.12509000000E+03  0.12509000000E+03 0.  0.
        -13    1    3    3    0    0  0.28174362405E+02  0.41612629955E+02 -0.31409828495E+02  0.59262080278E+02  0.10566000000E+00 0.  1.
         23    2    1    0    0    0 -0.12768537850E+01  0.20158907016E+02 -0.17829347941E+02  0.98147514300E+02  0.94377100123E+02 0.  0.
         13    1    3    3    0    0 -0.29451216190E+02 -0.21453722939E+02  0.13580480554E+02  0.38885434023E+02  0.10566000000E+00 0. -1.
         22    1    1    0    0    0  0.12768537850E+01 -0.20158907016E+02  0.17829347941E+02  0.26942485700E+02  0.00000000000E+00 0.  1.
</event>
<event>
 5    1  0.1264731E-009  0.9118800E+02  0.7815553E-02  0.1125453E+00
         25   -1    0    0    0    0  0.00000000000E+00  0.00000000000E+00  0.99999998245E-14  0.12509000000E+03  0.12509000000E+03 0.  0.
        -13    1    3    3    0    0 -0.14221647070E+02  0.18816082255E+02  0.31471368491E+02  0.39328849405E+02  0.10566000000E+00 0.  1.
         23    2    1    0    0    0  0.22682383206E+02 -0.16791207847E+02  0.77958079156E+01  0.95811854739E+02  0.91228842581E+02 0.  0.
         13    1    3    3    0    0  0.36904030276E+02 -0.35607290102E+02 -0.23675560575E+02  0.56483005334E+02  0.10566000000E+00 0. -1.
         22    1    1    0    0    0 -0.22682383206E+02  0.16791207847E+02 -0.77958079156E+01  0.29278145261E+02  0.00000000000E+00 0. -1.
</event>
<event>
 5    1  0.1264731E-009  0.9118800E+02  0.7815553E-02  0.1125453E+00
         25   -1    0    0    0    0  0.00000000000E+00  0.00000000000E+00  0.99999998245E-14  0.12509000000E+03  0.12509000000E+03 0.  0.
        -13    1    3    3    0    0  0.33409354677E+02  0.21853516156E+00 -0.80736508295E+01  0.34371903341E+02  0.10566000000E+00 0. -1.
         23    2    1    0    0    0 -0.28237876784E+02  0.39177849841E+01 -0.44508873167E+01  0.96236280615E+02  0.91808956994E+02 0.  0.
         13    1    3    3    0    0 -0.61647231461E+02  0.36992498226E+01  0.36227635128E+01  0.61864377274E+02  0.10566000000E+00 0.  1.
         22    1    1    0    0    0  0.28237876784E+02 -0.39177849841E+01  0.44508873167E+01  0.28853719385E+02  0.00000000000E+00 0.  1.
</event>
<event>
 5    1  0.1264731E-009  0.9118800E+02  0.7815553E-02  0.1125453E+00
         25   -1    0    0    0    0  0.00000000000E+00  0.00000000000E+00  0.99999998245E-14  0.12509000000E+03  0.12509000000E+03 0.  0.
        -13    1    3    3    0    0 -0.11810106852E+02 -0.71568897831E+01  0.42325191014E+02  0.44521148386E+02  0.10566000000E+00 0.  1.
         23    2    1    0    0    0  0.21281716028E+02 -0.16510660147E+02  0.12021615352E+01  0.98127831542E+02  0.94351008449E+02 0.  0.
         13    1    3    3    0    0  0.33091822880E+02 -0.93537703637E+01 -0.41123029478E+02  0.53606683157E+02  0.10566000000E+00 0. -1.
         22    1    1    0    0    0 -0.21281716028E+02  0.16510660147E+02 -0.12021615352E+01  0.26962168458E+02  0.00000000000E+00 0. -1.
</event>
<event>
 5    1  0.1264731E-009  0.9118800E+02  0.7815553E-02  0.1125453E+00
         25   -1    0    0    0    0  0.00000000000E+00  0.00000000000E+00  0.99999998245E-14  0.12509000000E+03  0.12509000000E+03 0.  0.
        -13    1    3    3    0    0  0.34627767120E+02  0.10145175410E+02 -0.14438948402E+02  0.38865167371E+02  0.10566000000E+00 0.  1.
         23    2    1    0    0    0 -0.24996066469E+01 -0.29232922026E+02  0.26778143197E+01  0.95628458067E+02  0.90977027535E+02 0.  0.
         13    1    3    3    0    0 -0.37127373767E+02 -0.39378097436E+02  0.17116762721E+02  0.56763290695E+02  0.10566000000E+00 0. -1.
         22    1    1    0    0    0  0.24996066469E+01  0.29232922026E+02 -0.26778143197E+01  0.29461541933E+02  0.00000000000E+00 0. -1.
</event>
<event>
 5    1  0.1264731E-009  0.9118800E+02  0.7815553E-02  0.1125453E+00
         25   -1    0    0    0    0  0.00000000000E+00  0.00000000000E+00  0.99999998245E-14  0.12509000000E+03  0.12509000000E+03 0.  0.
        -13    1    3    3    0    0  0.26699278494E+02 -0.85336696109E+00 -0.23511144662E+02  0.35586019652E+02  0.10566000000E+00 0. -1.
         23    2    1    0    0    0 -0.28872366129E+02 -0.66046629166E+01 -0.21679568208E+01  0.95392607271E+02  0.90652161513E+02 0.  0.
         13    1    3    3    0    0 -0.55571644624E+02 -0.57512959555E+01  0.21343187841E+02  0.59806587619E+02  0.10566000000E+00 0.  1.
         22    1    1    0    0    0  0.28872366129E+02  0.66046629166E+01  0.21679568208E+01  0.29697392729E+02  0.00000000000E+00 0.  1.
</event>
<event>
 5    1  0.1264731E-009  0.9118800E+02  0.7815553E-02  0.1125453E+00
         25   -1    0    0    0    0  0.00000000000E+00  0.00000000000E+00  0.99999998245E-14  0.12509000000E+03  0.12509000000E+03 0.  0.
        -13    1    3    3    0    0 -0.20816407891E+02  0.41550165753E+02  0.41297179247E+02  0.62170791288E+02  0.10566000000E+00 0. -1.
         23    2    1    0    0    0 -0.59276972699E+01  0.22554463399E+02  0.19536255749E+02  0.94667858345E+02  0.89646509697E+02 0.  0.
         13    1    3    3    0    0  0.14888710621E+02 -0.18995702354E+02 -0.21760923497E+02  0.32497067058E+02  0.10566000000E+00 0.  1.
         22    1    1    0    0    0  0.59276972699E+01 -0.22554463399E+02 -0.19536255749E+02  0.30422141655E+02  0.00000000000E+00 0. -1.
</event>
<event>
 5    1  0.1264731E-009  0.9118800E+02  0.7815553E-02  0.1125453E+00
         25   -1    0    0    0    0  0.00000000000E+00  0.00000000000E+00  0.99999998245E-14  0.12509000000E+03  0.12509000000E+03 0.  0.
        -13    1    3    3    0    0 -0.21146673002E+02  0.60240301510E+01  0.28238521742E+02  0.35789607326E+02  0.10566000000E+00 0. -1.
         23    2    1    0    0    0  0.18961658981E+02 -0.17098977025E+02 -0.11767022843E+02  0.96976260420E+02  0.92811705791E+02 0.  0.
         13    1    3    3    0    0  0.40108331983E+02 -0.23123007176E+02 -0.40005544585E+02  0.61186653094E+02  0.10566000000E+00 0.  1.
         22    1    1    0    0    0 -0.18961658981E+02  0.17098977025E+02  0.11767022843E+02  0.28113739580E+02  0.00000000000E+00 0.  1.
</event>
<event>
 5    1  0.1264731E-009  0.9118800E+02  0.7815553E-02  0.1125453E+00
         25   -1    0    0    0    0  0.00000000000E+00  0.00000000000E+00  0.99999998245E-14  0.12509000000E+03  0.12509000000E+03 0.  0.
        -13    1    3    3    0    0 -0.29790975019E+02 -0.15406410068E+01 -0.23468604293E+02  0.37956057736E+02  0.10566000000E+00 0. -1.
         23    2    1    0    0    0  0.23927378851E+02 -0.15366664435E+02 -0.85204746675E+01  0.95404105655E+02  0.90668026628E+02 0.  0.
         13    1    3    3    0    0  0.53718353870E+02 -0.13826023428E+02  0.14948129626E+02  0.57448047919E+02  0.10566000000E+00 0.  1.
         22    1    1    0    0    0 -0.23927378851E+02  0.15366664435E+02  0.85204746675E+01  0.29685894345E+02  0.00000000000E+00 0.  1.
</event>
<event>
 5    1  0.1264731E-009  0.9118800E+02  0.7815553E-02  0.1125453E+00
         25   -1    0    0    0    0  0.00000000000E+00  0.00000000000E+00  0.99999998245E-14  0.12509000000E+03  0.12509000000E+03 0.  0.
        -13    1    3    3    0    0 -0.11562870500E+02 -0.28531506379E+02 -0.35918954109E+02  0.47306757009E+02  0.10566000000E+00 0.  1.
         23    2    1    0    0    0 -0.47469320435E+00  0.18271948320E+02 -0.20057009712E+02  0.97953805211E+02  0.94120002590E+02 0.  0.
         13    1    3    3    0    0  0.11088177295E+02  0.46803454698E+02  0.15861944397E+02  0.50647048201E+02  0.10566000000E+00 0. -1.
         22    1    1    0    0    0  0.47469320435E+00 -0.18271948320E+02  0.20057009712E+02  0.27136194789E+02  0.00000000000E+00 0.  1.
</event>
<event>
 5    1  0.1264731E-009  0.9118800E+02  0.7815553E-02  0.1125453E+00
         25   -1    0    0    0    0  0.00000000000E+00  0.00000000000E+00  0.99999998245E-14  0.12509000000E+03  0.12509000000E+03 0.  0.
        -13    1    3    3    0    0  0.52681532207E+02 -0.31686522384E+02  0.10023009933E+02  0.62288453414E+02  0.10566000000E+00 0. -1.
         23    2    1    0    0    0  0.24933847109E+02 -0.15785195624E+02  0.81738689686E+00  0.95568190200E+02  0.90894123706E+02 0.  0.
         13    1    3    3    0    0 -0.27747685099E+02  0.15901326760E+02 -0.92056230358E+01  0.33279736787E+02  0.10566000000E+00 0.  1.
         22    1    1    0    0    0 -0.24933847109E+02  0.15785195624E+02 -0.81738689686E+00  0.29521809800E+02  0.00000000000E+00 0. -1.
</event>
<event>
 5    1  0.1264731E-009  0.9118800E+02  0.7815553E-02  0.1125453E+00
         25   -1    0    0    0    0  0.00000000000E+00  0.00000000000E+00  0.99999998245E-14  0.12509000000E+03  0.12509000000E+03 0.  0.
        -13    1    3    3    0    0  0.34997934132E+02 -0.52951523804E+01 -0.53108280555E+01  0.35792598270E+02  0.10566000000E+00 0. -1.
         23    2    1    0    0    0 -0.16215923219E+02  0.10454502885E+02  0.21913458086E+02  0.95893211792E+02  0.91340328585E+02 0.  0.
         13    1    3    3    0    0 -0.51213857351E+02  0.15749655266E+02  0.27224286141E+02  0.60100613522E+02  0.10566000000E+00 0.  1.
         22    1    1    0    0    0  0.16215923219E+02 -0.10454502885E+02 -0.21913458086E+02  0.29196788208E+02  0.00000000000E+00 0.  1.
</event>
<event>
 5    1  0.1264731E-009  0.9118800E+02  0.7815553E-02  0.1125453E+00
         25   -1    0    0    0    0  0.00000000000E+00  0.00000000000E+00  0.99999998245E-14  0.12509000000E+03  0.12509000000E+03 0.  0.
        -13    1    3    3    0    0 -0.49513946674E+02 -0.33583535133E+01 -0.26678647167E+02  0.56344217381E+02  0.10566000000E+00 0.  1.
         23    2    1    0    0    0 -0.27508136640E+02 -0.45105344580E+01  0.67746081806E+01  0.96403107201E+02  0.92035978071E+02 0.  0.
         13    1    3    3    0    0  0.22005810035E+02 -0.11521809446E+01  0.33453255347E+02  0.40058889820E+02  0.10566000000E+00 0. -1.
         22    1    1    0    0    0  0.27508136640E+02  0.45105344580E+01 -0.67746081806E+01  0.28686892799E+02  0.00000000000E+00 0.  1.
</event>
<event>
 5    1  0.1264731E-009  0.9118800E+02  0.7815553E-02  0.1125453E+00
         25   -1    0    0    0    0  0.00000000000E+00  0.00000000000E+00  0.99999998245E-14  0.12509000000E+03  0.12509000000E+03 0.  0.
        -13    1    3    3    0    0  0.52623585397E+02 -0.18537605029E+02  0.21322744651E+02  0.59729014254E+02  0.10566000000E+00 0. -1.
         23    2    1    0    0    0  0.30242692356E+02  0.34108454460E+01  0.10159642055E+02  0.93004604034E+02  0.87294809337E+02 0.  0.
         13    1    3    3    0    0 -0.22380893041E+02  0.21948450475E+02 -0.11163102596E+02  0.33275589780E+02  0.10566000000E+00 0.  1.
         22    1    1    0    0    0 -0.30242692356E+02 -0.34108454460E+01 -0.10159642055E+02  0.32085395966E+02  0.00000000000E+00 0. -1.
</event>
<event>
 5    1  0.1264731E-009  0.9118800E+02  0.7815553E-02  0.1125453E+00
         25   -1    0    0    0    0  0.00000000000E+00  0.00000000000E+00  0.99999998245E-14  0.12509000000E+03  0.12509000000E+03 0.  0.
        -13    1    3    3    0    0 -0.90149115140E+01  0.21159449857E+02 -0.56832363445E+02  0.61310028924E+02  0.10566000000E+00 0. -1.
         23    2    1    0    0    0 -0.20711267387E+01  0.22964553815E+01 -0.30480326386E+02  0.94453199092E+02  0.89346478659E+02 0.  0.
         13    1    3    3    0    0  0.69437847753E+01 -0.18862994475E+02  0.26352037059E+02  0.33143170168E+02  0.10566000000E+00 0.  1.
         22    1    1    0    0    0  0.20711267387E+01 -0.22964553815E+01  0.30480326386E+02  0.30636800908E+02  0.00000000000E+00 0. -1.
</event>
<event>
 5    1  0.1264731E-009  0.9118800E+02  0.7815553E-02  0.1125453E+00
         25   -1    0    0    0    0  0.00000000000E+00  0.00000000000E+00  0.99999998245E-14  0.12509000000E+03  0.12509000000E+03 0.  0.
        -13    1    3    3    0    0  0.14946544045E+02  0.12683037957E+02 -0.32618183523E+02  0.38055429193E+02  0.10566000000E+00 0. -1.
         23    2    1    0    0    0 -0.16809248837E+02 -0.25435870871E+02 -0.73707678252E+01  0.93723416001E+02  0.88318832166E+02 0.  0.
         13    1    3    3    0    0 -0.31755792882E+02 -0.38118908827E+02  0.25247415698E+02  0.55667986808E+02  0.10566000000E+00 0.  1.
         22    1    1    0    0    0  0.16809248837E+02  0.25435870871E+02  0.73707678252E+01  0.31366583999E+02  0.00000000000E+00 0.  1.
</event>
<event>
 5    1  0.1264731E-009  0.9118800E+02  0.7815553E-02  0.1125453E+00
         25   -1    0    0    0    0  0.00000000000E+00  0.00000000000E+00  0.99999998245E-14  0.12509000000E+03  0.12509000000E+03 0.  0.
        -13    1    3    3    0    0 -0.14193051488E+01  0.23658753804E+02  0.27398173546E+02  0.36227367229E+02  0.10566000000E+00 0.  1.
         23    2    1    0    0    0  0.69501014338E+01 -0.51011577527E+01 -0.26134539705E+02  0.97570191026E+02  0.93608772510E+02 0.  0.
         13    1    3    3    0    0  0.83694065825E+01 -0.28759911556E+02 -0.53532713251E+02  0.61342823797E+02  0.10566000000E+00 0. -1.
         22    1    1    0    0    0 -0.69501014338E+01  0.51011577527E+01  0.26134539705E+02  0.27519808974E+02  0.00000000000E+00 0. -1.
</event>
<event>
 5    1  0.1264731E-009  0.9118800E+02  0.7815553E-02  0.1125453E+00
         25   -1    0    0    0    0  0.00000000000E+00  0.00000000000E+00  0.99999998245E-14  0.12509000000E+03  0.12509000000E+03 0.  0.
        -13    1    3    3    0    0 -0.84946732043E+01 -0.28529283233E+02  0.52686615432E+02  0.60514213904E+02  0.10566000000E+00 0.  1.
         23    2    1    0    0    0  0.69748335728E+01 -0.15519549107E+02  0.26565485978E+02  0.93542737788E+02  0.88062557536E+02 0.  0.
         13    1    3    3    0    0  0.15469506777E+02  0.13009734126E+02 -0.26121129455E+02  0.33028523884E+02  0.10566000000E+00 0. -1.
         22    1    1    0    0    0 -0.69748335728E+01  0.15519549107E+02 -0.26565485978E+02  0.31547262212E+02  0.00000000000E+00 0.  1.
</event>
<event>
 5    1  0.1264731E-009  0.9118800E+02  0.7815553E-02  0.1125453E+00
         25   -1    0    0    0    0  0.00000000000E+00  0.00000000000E+00  0.99999998245E-14  0.12509000000E+03  0.12509000000E+03 0.  0.
        -13    1    3    3    0    0  0.13232739505E+02 -0.94920830850E+01  0.28100018389E+02  0.32478103910E+02  0.10566000000E+00 0. -1.
         23    2    1    0    0    0  0.75818762732E+01  0.23109814039E+02 -0.21851048079E+02  0.92394179856E+02  0.86415668813E+02 0.  0.
         13    1    3    3    0    0 -0.56508632320E+01  0.32601897124E+02 -0.49951066468E+02  0.59916075946E+02  0.10566000000E+00 0.  1.
         22    1    1    0    0    0 -0.75818762732E+01 -0.23109814039E+02  0.21851048079E+02  0.32695820144E+02  0.00000000000E+00 0.  1.
</event>
<event>
 5    1  0.1264731E-009  0.9118800E+02  0.7815553E-02  0.1125453E+00
         25   -1    0    0    0    0  0.00000000000E+00  0.00000000000E+00  0.99999998245E-14  0.12509000000E+03  0.12509000000E+03 0.  0.
        -13    1    3    3    0    0  0.42061140716E+01  0.29473159055E+02  0.38912403584E+02  0.48995355055E+02  0.10566000000E+00 0. -1.
         23    2    1    0    0    0  0.20548326056E+02 -0.95611709834E+01  0.17710734303E+02  0.96326832514E+02  0.91932251459E+02 0.  0.
         13    1    3    3    0    0  0.16342211984E+02 -0.39034330039E+02 -0.21201669280E+02  0.47331477459E+02  0.10566000000E+00 0.  1.
         22    1    1    0    0    0 -0.20548326056E+02  0.95611709834E+01 -0.17710734303E+02  0.28763167486E+02  0.00000000000E+00 0.  1.
</event>
<event>
 5    1  0.1264731E-009  0.9118800E+02  0.7815553E-02  0.1125453E+00
         25   -1    0    0    0    0  0.00000000000E+00  0.00000000000E+00  0.99999998245E-14  0.12509000000E+03  0.12509000000E+03 0.  0.
        -13    1    3    3    0    0 -0.30003047245E+02 -0.23270120095E+02  0.48978360454E+02  0.61972351013E+02  0.10566000000E+00 0. -1.
         23    2    1    0    0    0 -0.18276683743E+02 -0.13415435759E+02  0.19530377126E+02  0.95165984295E+02  0.90338905522E+02 0.  0.
         13    1    3    3    0    0  0.11726363502E+02  0.98546843360E+01 -0.29447983328E+02  0.33193633282E+02  0.10566000000E+00 0.  1.
         22    1    1    0    0    0  0.18276683743E+02  0.13415435759E+02 -0.19530377126E+02  0.29924015705E+02  0.00000000000E+00 0. -1.
</event>
<event>
 5    1  0.1264731E-009  0.9118800E+02  0.7815553E-02  0.1125453E+00
         25   -1    0    0    0    0  0.00000000000E+00  0.00000000000E+00  0.99999998245E-14  0.12509000000E+03  0.12509000000E+03 0.  0.
        -13    1    3    3    0    0  0.21748045300E+02  0.79195956336E+01 -0.31386614466E+02  0.38997797387E+02  0.10566000000E+00 0. -1.
         23    2    1    0    0    0 -0.16164963841E+02  0.25538835357E+02  0.50396479933E+01  0.94447933828E+02  0.89339106696E+02 0.  0.
         13    1    3    3    0    0 -0.37913009141E+02  0.17619239724E+02  0.36426262459E+02  0.55450136441E+02  0.10566000000E+00 0.  1.
         22    1    1    0    0    0  0.16164963841E+02 -0.25538835357E+02 -0.50396479933E+01  0.30642066172E+02  0.00000000000E+00 0.  1.
</event>
<event>
 5    1  0.1264731E-009  0.9118800E+02  0.7815553E-02  0.1125453E+00
         25   -1    0    0    0    0  0.00000000000E+00  0.00000000000E+00  0.99999998245E-14  0.12509000000E+03  0.12509000000E+03 0.  0.
        -13    1    3    3    0    0 -0.23694252449E+02  0.49796631838E+02 -0.16192364060E+02  0.57474567936E+02  0.10566000000E+00 0.  1.
         23    2    1    0    0    0 -0.94072319146E+01  0.50219615313E+01 -0.17619054103E+02  0.10449516624E+03  0.10244555916E+03 0.  0.
         13    1    3    3    0    0  0.14287020534E+02 -0.44774670307E+02 -0.14266900435E+01  0.47020598309E+02  0.10566000000E+00 0. -1.
         22    1    1    0    0    0  0.94072319146E+01 -0.50219615313E+01  0.17619054103E+02  0.20594833755E+02  0.00000000000E+00 0.  1.
</event>
<event>
 5    1  0.1264731E-009  0.9118800E+02  0.7815553E-02  0.1125453E+00
         25   -1    0    0    0    0  0.00000000000E+00  0.00000000000E+00  0.99999998245E-14  0.12509000000E+03  0.12509000000E+03 0.  0.
        -13    1    3    3    0    0  0.17755559698E+02  0.14511264418E+02  0.38275426356E+02  0.44619010769E+02  0.10566000000E+00 0.  1.
         23    2    1    0    0    0 -0.18559383865E+02 -0.14804268822E+02  0.16877344402E+02  0.95961631373E+02  0.91433980756E+02 0.  0.
         13    1    3    3    0    0 -0.36314943564E+02 -0.29315533240E+02 -0.21398081954E+02  0.51342620604E+02  0.10566000000E+00 0. -1.
         22    1    1    0    0    0  0.18559383865E+02  0.14804268822E+02 -0.16877344402E+02  0.29128368627E+02  0.00000000000E+00 0.  1.
</event>
<event>
 5    1  0.1264731E-009  0.9118800E+02  0.7815553E-02  0.1125453E+00
         25   -1    0    0    0    0  0.00000000000E+00  0.00000000000E+00  0.99999998245E-14  0.12509000000E+03  0.12509000000E+03 0.  0.
        -13    1    3    3    0    0 -0.23663560394E+02 -0.91999110024E+01 -0.42283492501E+02  0.49320455747E+02  0.10566000000E+00 0.  1.
         23    2    1    0    0    0  0.65124524208E+01 -0.26436312409E+02 -0.12322455724E+02  0.95204659691E+02  0.90392442503E+02 0.  0.
         13    1    3    3    0    0  0.30176012814E+02 -0.17236401406E+02  0.29961036778E+02  0.45884203945E+02  0.10566000000E+00 0. -1.
         22    1    1    0    0    0 -0.65124524208E+01  0.26436312409E+02  0.12322455724E+02  0.29885340309E+02  0.00000000000E+00 0. -1.
</event>
<event>
 5    1  0.1264731E-009  0.9118800E+02  0.7815553E-02  0.1125453E+00
         25   -1    0    0    0    0  0.00000000000E+00  0.00000000000E+00  0.99999998245E-14  0.12509000000E+03  0.12509000000E+03 0.  0.
        -13    1    3    3    0    0 -0.50211287867E+02  0.28199167161E+02 -0.79005115355E+01  0.58127409235E+02  0.10566000000E+00 0.  1.
         23    2    1    0    0    0 -0.21285071056E+02  0.14286497349E+02  0.12916142255E+02  0.96384861312E+02  0.92011175968E+02 0.  0.
         13    1    3    3    0    0  0.28926216811E+02 -0.13912669813E+02  0.20816653791E+02  0.38257452077E+02  0.10566000000E+00 0. -1.
         22    1    1    0    0    0  0.21285071056E+02 -0.14286497349E+02 -0.12916142255E+02  0.28705138688E+02  0.00000000000E+00 0.  1.
</event>
<event>
 5    1  0.1264731E-009  0.9118800E+02  0.7815553E-02  0.1125453E+00
         25   -1    0    0    0    0  0.00000000000E+00  0.00000000000E+00  0.99999998245E-14  0.12509000000E+03  0.12509000000E+03 0.  0.
        -13    1    3    3    0    0 -0.28707201068E+02  0.35351251860E+02 -0.13363017892E+01  0.45558876937E+02  0.10566000000E+00 0.  1.
         23    2    1    0    0    0  0.19619989334E+02  0.20594205975E+02  0.39836077148E+01  0.96368328189E+02  0.91988696296E+02 0.  0.
         13    1    3    3    0    0  0.48327190402E+02 -0.14757045885E+02  0.53199095040E+01  0.50809451252E+02  0.10566000000E+00 0. -1.
         22    1    1    0    0    0 -0.19619989334E+02 -0.20594205975E+02 -0.39836077148E+01  0.28721671811E+02  0.00000000000E+00 0.  1.
</event>
<event>
 5    1  0.1264731E-009  0.9118800E+02  0.7815553E-02  0.1125453E+00
         25   -1    0    0    0    0  0.00000000000E+00  0.00000000000E+00  0.99999998245E-14  0.12509000000E+03  0.12509000000E+03 0.  0.
        -13    1    3    3    0    0  0.13616539449E+02  0.51323344920E+02 -0.10827893616E+02  0.54191792041E+02  0.10566000000E+00 0. -1.
         23    2    1    0    0    0  0.22545660299E+02  0.22110328705E+02  0.10905862473E+02  0.91681748473E+02  0.85378168949E+02 0.  0.
         13    1    3    3    0    0  0.89291208503E+01 -0.29213016215E+02  0.21733756089E+02  0.37489956433E+02  0.10566000000E+00 0.  1.
         22    1    1    0    0    0 -0.22545660299E+02 -0.22110328705E+02 -0.10905862473E+02  0.33408251527E+02  0.00000000000E+00 0. -1.
</event>
<event>
 5    1  0.1264731E-009  0.9118800E+02  0.7815553E-02  0.1125453E+00
         25   -1    0    0    0    0  0.00000000000E+00  0.00000000000E+00  0.99999998245E-14  0.12509000000E+03  0.12509000000E+03 0.  0.
        -13    1    3    3    0    0 -0.21132972326E+02  0.29828623227E+02 -0.16027857148E+02  0.39915569040E+02  0.10566000000E+00 0. -1.
         23    2    1    0    0    0 -0.43404231502E+01 -0.23588979229E+02 -0.16612681585E+02  0.95913632789E+02  0.91368290731E+02 0.  0.
         13    1    3    3    0    0  0.16792549176E+02 -0.53417602456E+02 -0.58482443677E+00  0.55998063749E+02  0.10566000000E+00 0.  1.
         22    1    1    0    0    0  0.43404231502E+01  0.23588979229E+02  0.16612681585E+02  0.29176367211E+02  0.00000000000E+00 0.  1.
</event>
<event>
 5    1  0.1264731E-009  0.9118800E+02  0.7815553E-02  0.1125453E+00
         25   -1    0    0    0    0  0.00000000000E+00  0.00000000000E+00  0.99999998245E-14  0.12509000000E+03  0.12509000000E+03 0.  0.
        -13    1    3    3    0    0  0.12447236187E+02 -0.53395251006E+02  0.52448558631E+01  0.55077274767E+02  0.10566000000E+00 0. -1.
         23    2    1    0    0    0 -0.15785809938E+02 -0.24591785505E+02 -0.77637128055E+00  0.95857304913E+02  0.91291141099E+02 0.  0.
         13    1    3    3    0    0 -0.28233046125E+02  0.28803465501E+02 -0.60212271437E+01  0.40780030146E+02  0.10566000000E+00 0.  1.
         22    1    1    0    0    0  0.15785809938E+02  0.24591785505E+02  0.77637128055E+00  0.29232695087E+02  0.00000000000E+00 0.  1.
</event>
<event>
 5    1  0.1264731E-009  0.9118800E+02  0.7815553E-02  0.1125453E+00
         25   -1    0    0    0    0  0.00000000000E+00  0.00000000000E+00  0.99999998245E-14  0.12509000000E+03  0.12509000000E+03 0.  0.
        -13    1    3    3    0    0 -0.14825781906E+02  0.28775684735E+02  0.21192263414E+02  0.38690658223E+02  0.10566000000E+00 0. -1.
         23    2    1    0    0    0 -0.12110214233E+02  0.61331486775E+01 -0.28586238007E+02  0.93444371473E+02  0.87922720358E+02 0.  0.
         13    1    3    3    0    0  0.27155676721E+01 -0.22642536058E+02 -0.49778501421E+02  0.54753713250E+02  0.10566000000E+00 0.  1.
         22    1    1    0    0    0  0.12110214233E+02 -0.61331486775E+01  0.28586238007E+02  0.31645628527E+02  0.00000000000E+00 0.  1.
</event>
<event>
 5    1  0.1264731E-009  0.9118800E+02  0.7815553E-02  0.1125453E+00
         25   -1    0    0    0    0  0.00000000000E+00  0.00000000000E+00  0.99999998245E-14  0.12509000000E+03  0.12509000000E+03 0.  0.
        -13    1    3    3    0    0  0.21694464284E+01  0.35273905472E+02 -0.27941200653E+02  0.45051934065E+02  0.10566000000E+00 0. -1.
         23    2    1    0    0    0 -0.18252285803E+02  0.22659426006E+02  0.13555439488E+02  0.92991005255E+02  0.87275320651E+02 0.  0.
         13    1    3    3    0    0 -0.20421732232E+02 -0.12614479466E+02  0.41496640140E+02  0.47939071190E+02  0.10566000000E+00 0.  1.
         22    1    1    0    0    0  0.18252285803E+02 -0.22659426006E+02 -0.13555439488E+02  0.32098994745E+02  0.00000000000E+00 0.  1.
</event>
<event>
 5    1  0.1264731E-009  0.9118800E+02  0.7815553E-02  0.1125453E+00
         25   -1    0    0    0    0  0.00000000000E+00  0.00000000000E+00  0.99999998245E-14  0.12509000000E+03  0.12509000000E+03 0.  0.
        -13    1    3    3    0    0  0.92879546665E+01  0.41104142489E+02  0.35728547523E+02  0.55248139369E+02  0.10566000000E+00 0.  1.
         23    2    1    0    0    0 -0.12133218028E+02  0.23827085729E+02  0.27359204997E+01  0.98211937290E+02  0.94462449530E+02 0.  0.
         13    1    3    3    0    0 -0.21421172695E+02 -0.17277056759E+02 -0.32992627023E+02  0.42963797921E+02  0.10566000000E+00 0. -1.
         22    1    1    0    0    0  0.12133218028E+02 -0.23827085729E+02 -0.27359204997E+01  0.26878062710E+02  0.00000000000E+00 0.  1.
</event>
<event>
 5    1  0.1264731E-009  0.9118800E+02  0.7815553E-02  0.1125453E+00
         25   -1    0    0    0    0  0.00000000000E+00  0.00000000000E+00  0.99999998245E-14  0.12509000000E+03  0.12509000000E+03 0.  0.
        -13    1    3    3    0    0  0.38857531580E+02  0.61426302080E+01 -0.37512504180E+02  0.54358428972E+02  0.10566000000E+00 0.  1.
         23    2    1    0    0    0  0.16496410693E+02  0.23390220571E+02 -0.76419511041E+01  0.95465121928E+02  0.90752168591E+02 0.  0.
         13    1    3    3    0    0 -0.22361120887E+02  0.17247590363E+02  0.29870553076E+02  0.41106692956E+02  0.10566000000E+00 0. -1.
         22    1    1    0    0    0 -0.16496410693E+02 -0.23390220571E+02  0.76419511041E+01  0.29624878072E+02  0.00000000000E+00 0.  1.
</event>
<event>
 5    1  0.1264731E-009  0.9118800E+02  0.7815553E-02  0.1125453E+00
         25   -1    0    0    0    0  0.00000000000E+00  0.00000000000E+00  0.99999998245E-14  0.12509000000E+03  0.12509000000E+03 0.  0.
        -13    1    3    3    0    0 -0.13457227758E+02 -0.12424893919E+02  0.49091928301E+02  0.52397552960E+02  0.10566000000E+00 0.  1.
         23    2    1    0    0    0 -0.39079100742E+01 -0.27942328339E+02  0.10661574794E+02  0.94928523722E+02  0.90009499303E+02 0.  0.
         13    1    3    3    0    0  0.95493176841E+01 -0.15517434421E+02 -0.38430353508E+02  0.42530970762E+02  0.10566000000E+00 0. -1.
         22    1    1    0    0    0  0.39079100742E+01  0.27942328339E+02 -0.10661574794E+02  0.30161476278E+02  0.00000000000E+00 0.  1.
</event>
<event>
 5    1  0.1264731E-009  0.9118800E+02  0.7815553E-02  0.1125453E+00
         25   -1    0    0    0    0  0.00000000000E+00  0.00000000000E+00  0.99999998245E-14  0.12509000000E+03  0.12509000000E+03 0.  0.
        -13    1    3    3    0    0 -0.44221308969E+02  0.16062913796E+02 -0.35627166510E+02  0.59015654907E+02  0.10566000000E+00 0. -1.
         23    2    1    0    0    0 -0.22049297680E+02 -0.73723245467E+01 -0.17209518697E+02  0.96164401801E+02  0.91710969587E+02 0.  0.
         13    1    3    3    0    0  0.22172011289E+02 -0.23435238343E+02  0.18417647813E+02  0.37148746894E+02  0.10566000000E+00 0.  1.
         22    1    1    0    0    0  0.22049297680E+02  0.73723245467E+01  0.17209518697E+02  0.28925598199E+02  0.00000000000E+00 0. -1.
</event>
<event>
 5    1  0.1264731E-009  0.9118800E+02  0.7815553E-02  0.1125453E+00
         25   -1    0    0    0    0  0.00000000000E+00  0.00000000000E+00  0.99999998245E-14  0.12509000000E+03  0.12509000000E+03 0.  0.
        -13    1    3    3    0    0  0.17692388406E+02  0.20390830985E+02 -0.51123784587E+02  0.57814004448E+02  0.10566000000E+00 0. -1.
         23    2    1    0    0    0  0.10959332637E+02 -0.50036527051E+01 -0.33603169240E+02  0.89392430122E+02  0.81955415122E+02 0.  0.
         13    1    3    3    0    0 -0.67330557686E+01 -0.25394483690E+02  0.17520615347E+02  0.31578425674E+02  0.10566000000E+00 0.  1.
         22    1    1    0    0    0 -0.10959332637E+02  0.50036527051E+01  0.33603169240E+02  0.35697569878E+02  0.00000000000E+00 0. -1.
</event>
<event>
 5    1  0.1264731E-009  0.9118800E+02  0.7815553E-02  0.1125453E+00
         25   -1    0    0    0    0  0.00000000000E+00  0.00000000000E+00  0.99999998245E-14  0.12509000000E+03  0.12509000000E+03 0.  0.
        -13    1    3    3    0    0 -0.48598624320E+02 -0.26241053113E+02  0.77273328252E+01  0.55768647024E+02  0.10566000000E+00 0.  1.
         23    2    1    0    0    0 -0.23621018664E+02 -0.16030648621E+02 -0.16572195674E+02  0.92081336177E+02  0.85961622743E+02 0.  0.
         13    1    3    3    0    0  0.24977605655E+02  0.10210404492E+02 -0.24299528499E+02  0.36312689152E+02  0.10566000000E+00 0. -1.
         22    1    1    0    0    0  0.23621018664E+02  0.16030648621E+02  0.16572195674E+02  0.33008663823E+02  0.00000000000E+00 0.  1.
</event>
<event>
 5    1  0.1264731E-009  0.9118800E+02  0.7815553E-02  0.1125453E+00
         25   -1    0    0    0    0  0.00000000000E+00  0.00000000000E+00  0.99999998245E-14  0.12509000000E+03  0.12509000000E+03 0.  0.
        -13    1    3    3    0    0  0.52422333544E+02 -0.11899851175E+01  0.70589745733E+01  0.52908953919E+02  0.10566000000E+00 0.  1.
         23    2    1    0    0    0  0.14555106012E+02 -0.24803293713E+01  0.25940123925E+02  0.95242166343E+02  0.90444331363E+02 0.  0.
         13    1    3    3    0    0 -0.37867227532E+02 -0.12903442538E+01  0.18881149351E+02  0.42333212424E+02  0.10566000000E+00 0. -1.
         22    1    1    0    0    0 -0.14555106012E+02  0.24803293713E+01 -0.25940123925E+02  0.29847833657E+02  0.00000000000E+00 0.  1.
</event>
<event>
 5    1  0.1264731E-009  0.9118800E+02  0.7815553E-02  0.1125453E+00
         25   -1    0    0    0    0  0.00000000000E+00  0.00000000000E+00  0.99999998245E-14  0.12509000000E+03  0.12509000000E+03 0.  0.
        -13    1    3    3    0    0  0.22691046291E+01 -0.10955305776E+02  0.53168014377E+02  0.54332462463E+02  0.10566000000E+00 0. -1.
         23    2    1    0    0    0 -0.21167368966E+02 -0.60492413391E+01  0.19281153626E+02  0.95825452936E+02  0.91247486078E+02 0.  0.
         13    1    3    3    0    0 -0.23436473595E+02  0.49060644370E+01 -0.33886860751E+02  0.41492990473E+02  0.10566000000E+00 0.  1.
         22    1    1    0    0    0  0.21167368966E+02  0.60492413391E+01 -0.19281153626E+02  0.29264547064E+02  0.00000000000E+00 0. -1.
</event>
<event>
 5    1  0.1264731E-009  0.9118800E+02  0.7815553E-02  0.1125453E+00
         25   -1    0    0    0    0  0.00000000000E+00  0.00000000000E+00  0.99999998245E-14  0.12509000000E+03  0.12509000000E+03 0.  0.
        -13    1    3    3    0    0  0.23977864942E+02  0.23952799940E+02 -0.15947686959E+02  0.37456835365E+02  0.10566000000E+00 0.  1.
         23    2    1    0    0    0 -0.27567856668E+02  0.20635655826E+02 -0.45130491053E+01  0.90359831200E+02  0.83418909544E+02 0.  0.
         13    1    3    3    0    0 -0.51545721611E+02 -0.33171441138E+01  0.11434637854E+02  0.52902995835E+02  0.10566000000E+00 0. -1.
         22    1    1    0    0    0  0.27567856668E+02 -0.20635655826E+02  0.45130491053E+01  0.34730168800E+02  0.00000000000E+00 0. -1.
</event>
<event>
 5    1  0.1264731E-009  0.9118800E+02  0.7815553E-02  0.1125453E+00
         25   -1    0    0    0    0  0.00000000000E+00  0.00000000000E+00  0.99999998245E-14  0.12509000000E+03  0.12509000000E+03 0.  0.
        -13    1    3    3    0    0 -0.16943731027E+02  0.25928360396E+02  0.17836645729E+02  0.35742509549E+02  0.10566000000E+00 0. -1.
         23    2    1    0    0    0  0.21136716998E+02 -0.76117329745E+01 -0.16675850297E+02  0.97111735803E+02  0.92994117896E+02 0.  0.
         13    1    3    3    0    0  0.38080448025E+02 -0.33540093371E+02 -0.34512496026E+02  0.61369226254E+02  0.10566000000E+00 0.  1.
         22    1    1    0    0    0 -0.21136716998E+02  0.76117329745E+01  0.16675850297E+02  0.27978264197E+02  0.00000000000E+00 0.  1.
</event>
<event>
 5    1  0.1264731E-009  0.9118800E+02  0.7815553E-02  0.1125453E+00
         25   -1    0    0    0    0  0.00000000000E+00  0.00000000000E+00  0.99999998245E-14  0.12509000000E+03  0.12509000000E+03 0.  0.
        -13    1    3    3    0    0 -0.19504600187E+02  0.14369557066E+02 -0.31064010398E+02  0.39394130334E+02  0.10566000000E+00 0.  1.
         23    2    1    0    0    0 -0.23393587109E+02 -0.12624269544E+02  0.16198373017E+02  0.93960923757E+02  0.88654587052E+02 0.  0.
         13    1    3    3    0    0 -0.38889869220E+01 -0.26993826610E+02  0.47262383415E+02  0.54566793423E+02  0.10566000000E+00 0. -1.
         22    1    1    0    0    0  0.23393587109E+02  0.12624269544E+02 -0.16198373017E+02  0.31129076243E+02  0.00000000000E+00 0. -1.
</event>
<event>
 5    1  0.1264731E-009  0.9118800E+02  0.7815553E-02  0.1125453E+00
         25   -1    0    0    0    0  0.00000000000E+00  0.00000000000E+00  0.99999998245E-14  0.12509000000E+03  0.12509000000E+03 0.  0.
        -13    1    3    3    0    0 -0.53180744637E+02 -0.44502942215E+01  0.48300963021E+01  0.53584864590E+02  0.10566000000E+00 0. -1.
         23    2    1    0    0    0 -0.21342983965E+02  0.17813364664E+02 -0.10531986260E+02  0.95361870900E+02  0.90609738780E+02 0.  0.
         13    1    3    3    0    0  0.31837760672E+02  0.22263658886E+02 -0.15362082562E+02  0.41777006310E+02  0.10566000000E+00 0.  1.
         22    1    1    0    0    0  0.21342983965E+02 -0.17813364664E+02  0.10531986260E+02  0.29728129100E+02  0.00000000000E+00 0. -1.
</event>
<event>
 5    1  0.1264731E-009  0.9118800E+02  0.7815553E-02  0.1125453E+00
         25   -1    0    0    0    0  0.00000000000E+00  0.00000000000E+00  0.99999998245E-14  0.12509000000E+03  0.12509000000E+03 0.  0.
        -13    1    3    3    0    0  0.13630195562E+02 -0.25799365344E+02  0.23517005725E+02  0.37475995057E+02  0.10566000000E+00 0. -1.
         23    2    1    0    0    0  0.85579114990E+01  0.16638973439E+02 -0.19464417099E+02  0.98090799654E+02  0.94301899012E+02 0.  0.
         13    1    3    3    0    0 -0.50722840628E+01  0.42438338783E+02 -0.42981422824E+02  0.60614804597E+02  0.10566000000E+00 0.  1.
         22    1    1    0    0    0 -0.85579114990E+01 -0.16638973439E+02  0.19464417099E+02  0.26999200346E+02  0.00000000000E+00 0.  1.
</event>
<event>
 5    1  0.1264731E-009  0.9118800E+02  0.7815553E-02  0.1125453E+00
         25   -1    0    0    0    0  0.00000000000E+00  0.00000000000E+00  0.99999998245E-14  0.12509000000E+03  0.12509000000E+03 0.  0.
        -13    1    3    3    0    0  0.22736075571E+02 -0.97993972810E+01 -0.49904462516E+02  0.55708382336E+02  0.10566000000E+00 0.  1.
         23    2    1    0    0    0 -0.70433751078E+01  0.44981436848E+01 -0.29253503259E+02  0.94666162595E+02  0.89644143468E+02 0.  0.
         13    1    3    3    0    0 -0.29779450679E+02  0.14297540966E+02  0.20650959257E+02  0.38957780259E+02  0.10566000000E+00 0. -1.
         22    1    1    0    0    0  0.70433751078E+01 -0.44981436848E+01  0.29253503259E+02  0.30423837405E+02  0.00000000000E+00 0.  1.
</event>
<event>
 5    1  0.1264731E-009  0.9118800E+02  0.7815553E-02  0.1125453E+00
         25   -1    0    0    0    0  0.00000000000E+00  0.00000000000E+00  0.99999998245E-14  0.12509000000E+03  0.12509000000E+03 0.  0.
        -13    1    3    3    0    0 -0.11004928216E+02 -0.35063979324E+02  0.41911717410E+02  0.55742213011E+02  0.10566000000E+00 0.  1.
         23    2    1    0    0    0 -0.16906725796E+02 -0.24363218353E+02  0.45044877963E+01  0.95095097167E+02  0.90240696524E+02 0.  0.
         13    1    3    3    0    0 -0.59017975805E+01  0.10700760971E+02 -0.37407229613E+02  0.39352884156E+02  0.10566000000E+00 0. -1.
         22    1    1    0    0    0  0.16906725796E+02  0.24363218353E+02 -0.45044877963E+01  0.29994902833E+02  0.00000000000E+00 0.  1.
</event>
<event>
 5    1  0.1264731E-009  0.9118800E+02  0.7815553E-02  0.1125453E+00
         25   -1    0    0    0    0  0.00000000000E+00  0.00000000000E+00  0.99999998245E-14  0.12509000000E+03  0.12509000000E+03 0.  0.
        -13    1    3    3    0    0 -0.59619647383E+02 -0.78097966651E+00 -0.28308241713E+01  0.59692018000E+02  0.10566000000E+00 0. -1.
         23    2    1    0    0    0 -0.27159863728E+02 -0.13610568147E+02  0.75687157048E-02  0.94710634958E+02  0.89706179017E+02 0.  0.
         13    1    3    3    0    0  0.32459783655E+02 -0.12829588481E+02  0.28383928870E+01  0.35018616959E+02  0.10566000000E+00 0.  1.
         22    1    1    0    0    0  0.27159863728E+02  0.13610568147E+02 -0.75687157048E-02  0.30379365042E+02  0.00000000000E+00 0. -1.
</event>
<event>
 5    1  0.1264731E-009  0.9118800E+02  0.7815553E-02  0.1125453E+00
         25   -1    0    0    0    0  0.00000000000E+00  0.00000000000E+00  0.99999998245E-14  0.12509000000E+03  0.12509000000E+03 0.  0.
        -13    1    3    3    0    0  0.82193322780E+01 -0.35011617291E+02  0.44580173733E+02  0.57278039618E+02  0.10566000000E+00 0.  1.
         23    2    1    0    0    0  0.13866906087E+02 -0.25259105345E+02  0.85449597375E+01  0.95034554168E+02  0.90156733868E+02 0.  0.
         13    1    3    3    0    0  0.56475738091E+01  0.97525119458E+01 -0.36035213996E+02  0.37756514550E+02  0.10566000000E+00 0. -1.
         22    1    1    0    0    0 -0.13866906087E+02  0.25259105345E+02 -0.85449597375E+01  0.30055445832E+02  0.00000000000E+00 0.  1.
</event>
<event>
 5    1  0.1264731E-009  0.9118800E+02  0.7815553E-02  0.1125453E+00
         25   -1    0    0    0    0  0.00000000000E+00  0.00000000000E+00  0.99999998245E-14  0.12509000000E+03  0.12509000000E+03 0.  0.
        -13    1    3    3    0    0 -0.31511703474E+01 -0.37548678939E+01  0.53389069194E+02  0.53613736868E+02  0.10566000000E+00 0. -1.
         23    2    1    0    0    0  0.13380305844E+02 -0.18901209479E+02  0.16975184466E+02  0.96376846361E+02  0.92000278926E+02 0.  0.
         13    1    3    3    0    0  0.16531476191E+02 -0.15146341585E+02 -0.36413884728E+02  0.42763109493E+02  0.10566000000E+00 0.  1.
         22    1    1    0    0    0 -0.13380305844E+02  0.18901209479E+02 -0.16975184466E+02  0.28713153639E+02  0.00000000000E+00 0. -1.
</event>
<event>
 5    1  0.1264731E-009  0.9118800E+02  0.7815553E-02  0.1125453E+00
         25   -1    0    0    0    0  0.00000000000E+00  0.00000000000E+00  0.99999998245E-14  0.12509000000E+03  0.12509000000E+03 0.  0.
        -13    1    3    3    0    0 -0.16806964079E+02  0.19335544301E+02  0.49460350175E+02  0.55701658130E+02  0.10566000000E+00 0.  1.
         23    2    1    0    0    0 -0.15597161039E+02 -0.10252591413E+02  0.23472540302E+02  0.95100881784E+02  0.90248714698E+02 0.  0.
         13    1    3    3    0    0  0.12098030392E+01 -0.29588135715E+02 -0.25987809873E+02  0.39399223654E+02  0.10566000000E+00 0. -1.
         22    1    1    0    0    0  0.15597161039E+02  0.10252591413E+02 -0.23472540302E+02  0.29989118216E+02  0.00000000000E+00 0.  1.
</event>
<event>
 5    1  0.1264731E-009  0.9118800E+02  0.7815553E-02  0.1125453E+00
         25   -1    0    0    0    0  0.00000000000E+00  0.00000000000E+00  0.99999998245E-14  0.12509000000E+03  0.12509000000E+03 0.  0.
        -13    1    3    3    0    0  0.31744000690E+01 -0.59063331683E+02  0.32479451100E+01  0.59237777446E+02  0.10566000000E+00 0. -1.
         23    2    1    0    0    0  0.11563587222E+02 -0.33605150896E+02 -0.85698629526E+01  0.88532302217E+02  0.80631899820E+02 0.  0.
         13    1    3    3    0    0  0.83891871529E+01  0.25458180787E+02 -0.11817808063E+02  0.29294524770E+02  0.10566000000E+00 0.  1.
         22    1    1    0    0    0 -0.11563587222E+02  0.33605150896E+02  0.85698629526E+01  0.36557697783E+02  0.00000000000E+00 0. -1.
</event>
<event>
 5    1  0.1264731E-009  0.9118800E+02  0.7815553E-02  0.1125453E+00
         25   -1    0    0    0    0  0.00000000000E+00  0.00000000000E+00  0.99999998245E-14  0.12509000000E+03  0.12509000000E+03 0.  0.
        -13    1    3    3    0    0 -0.11560109355E+00  0.18152124670E+02  0.47481623592E+02  0.50833342765E+02  0.10566000000E+00 0.  1.
         23    2    1    0    0    0  0.18561344472E+02  0.21339563769E+02  0.63729526101E+01  0.96098363008E+02  0.91620851106E+02 0.  0.
         13    1    3    3    0    0  0.18676945566E+02  0.31874390994E+01 -0.41108670982E+02  0.45265020243E+02  0.10566000000E+00 0. -1.
         22    1    1    0    0    0 -0.18561344472E+02 -0.21339563769E+02 -0.63729526101E+01  0.28991636992E+02  0.00000000000E+00 0.  1.
</event>
<event>
 5    1  0.1264731E-009  0.9118800E+02  0.7815553E-02  0.1125453E+00
         25   -1    0    0    0    0  0.00000000000E+00  0.00000000000E+00  0.99999998245E-14  0.12509000000E+03  0.12509000000E+03 0.  0.
        -13    1    3    3    0    0  0.31007346650E+02 -0.48792614298E+02 -0.15702832685E+02  0.59906300793E+02  0.10566000000E+00 0. -1.
         23    2    1    0    0    0  0.50080818559E+01 -0.30612024532E+02 -0.35963569877E+01  0.93863237225E+02  0.88516645830E+02 0.  0.
         13    1    3    3    0    0 -0.25999264794E+02  0.18180589766E+02  0.12106475697E+02  0.33956936433E+02  0.10566000000E+00 0.  1.
         22    1    1    0    0    0 -0.50080818559E+01  0.30612024532E+02  0.35963569877E+01  0.31226762775E+02  0.00000000000E+00 0. -1.
</event>
<event>
 5    1  0.1264731E-009  0.9118800E+02  0.7815553E-02  0.1125453E+00
         25   -1    0    0    0    0  0.00000000000E+00  0.00000000000E+00  0.99999998245E-14  0.12509000000E+03  0.12509000000E+03 0.  0.
        -13    1    3    3    0    0  0.12769783108E+02 -0.13048817037E+02 -0.53164060106E+02  0.56211808703E+02  0.10566000000E+00 0.  1.
         23    2    1    0    0    0  0.22139729381E+02 -0.12541060827E+02 -0.14913644939E+02  0.95596566339E+02  0.90933167033E+02 0.  0.
         13    1    3    3    0    0  0.93699462735E+01  0.50775620931E+00  0.38250415167E+02  0.39384757635E+02  0.10566000000E+00 0. -1.
         22    1    1    0    0    0 -0.22139729381E+02  0.12541060827E+02  0.14913644939E+02  0.29493433661E+02  0.00000000000E+00 0.  1.
</event>
<event>
 5    1  0.1264731E-009  0.9118800E+02  0.7815553E-02  0.1125453E+00
         25   -1    0    0    0    0  0.00000000000E+00  0.00000000000E+00  0.99999998245E-14  0.12509000000E+03  0.12509000000E+03 0.  0.
        -13    1    3    3    0    0  0.43559331215E+02  0.13330255476E+02 -0.30252777158E+02  0.54684117774E+02  0.10566000000E+00 0. -1.
         23    2    1    0    0    0  0.17444427491E+02  0.13200527533E+02  0.86718699093E+01  0.10155782404E+03  0.98793867819E+02 0.  0.
         13    1    3    3    0    0 -0.26114903724E+02 -0.12972794280E+00  0.38924647067E+02  0.46873706267E+02  0.10566000000E+00 0.  1.
         22    1    1    0    0    0 -0.17444427491E+02 -0.13200527533E+02 -0.86718699093E+01  0.23532175959E+02  0.00000000000E+00 0.  1.
</event>
<event>
 5    1  0.1264731E-009  0.9118800E+02  0.7815553E-02  0.1125453E+00
         25   -1    0    0    0    0  0.00000000000E+00  0.00000000000E+00  0.99999998245E-14  0.12509000000E+03  0.12509000000E+03 0.  0.
        -13    1    3    3    0    0  0.18686903711E+02 -0.24637953807E+02  0.25030150823E+02  0.39783774989E+02  0.10566000000E+00 0.  1.
         23    2    1    0    0    0  0.51977502403E+01 -0.10726594745E+02 -0.27146167420E+02  0.95442220185E+02  0.90720596040E+02 0.  0.
         13    1    3    3    0    0 -0.13489153471E+02  0.13911359061E+02 -0.52176318243E+02  0.55658445196E+02  0.10566000000E+00 0. -1.
         22    1    1    0    0    0 -0.51977502403E+01  0.10726594745E+02  0.27146167420E+02  0.29647779815E+02  0.00000000000E+00 0. -1.
</event>
<event>
 5    1  0.1264731E-009  0.9118800E+02  0.7815553E-02  0.1125453E+00
         25   -1    0    0    0    0  0.00000000000E+00  0.00000000000E+00  0.99999998245E-14  0.12509000000E+03  0.12509000000E+03 0.  0.
        -13    1    3    3    0    0  0.27162726272E+02 -0.20246717357E+02  0.16652031535E+00  0.33878933798E+02  0.10566000000E+00 0. -1.
         23    2    1    0    0    0 -0.28100843424E+02  0.73184773285E+01  0.41138012401E+01  0.95761841650E+02  0.91160240479E+02 0.  0.
         13    1    3    3    0    0 -0.55263569695E+02  0.27565194686E+02  0.39472809247E+01  0.61882907852E+02  0.10566000000E+00 0.  1.
         22    1    1    0    0    0  0.28100843424E+02 -0.73184773285E+01 -0.41138012401E+01  0.29328158350E+02  0.00000000000E+00 0.  1.
</event>
<event>
 5    1  0.1264731E-009  0.9118800E+02  0.7815553E-02  0.1125453E+00
         25   -1    0    0    0    0  0.00000000000E+00  0.00000000000E+00  0.99999998245E-14  0.12509000000E+03  0.12509000000E+03 0.  0.
        -13    1    3    3    0    0 -0.41898526995E+02 -0.29642140330E+02 -0.33952652050E+02  0.61538092211E+02  0.10566000000E+00 0. -1.
         23    2    1    0    0    0 -0.22871517273E+02 -0.11982293945E+02 -0.84670614474E+01  0.97916983971E+02  0.94071052667E+02 0.  0.
         13    1    3    3    0    0  0.19027009722E+02  0.17659846385E+02  0.25485590602E+02  0.36378891760E+02  0.10566000000E+00 0.  1.
         22    1    1    0    0    0  0.22871517273E+02  0.11982293945E+02  0.84670614474E+01  0.27173016029E+02  0.00000000000E+00 0. -1.
</event>
<event>
 5    1  0.1264731E-009  0.9118800E+02  0.7815553E-02  0.1125453E+00
         25   -1    0    0    0    0  0.00000000000E+00  0.00000000000E+00  0.99999998245E-14  0.12509000000E+03  0.12509000000E+03 0.  0.
        -13    1    3    3    0    0  0.13602236656E+02 -0.37669633735E+02  0.16125989432E+02  0.43175002571E+02  0.10566000000E+00 0. -1.
         23    2    1    0    0    0 -0.26255524202E+02 -0.52035804303E+01  0.14591114813E+02  0.94605078615E+02  0.89558865936E+02 0.  0.
         13    1    3    3    0    0 -0.39857760858E+02  0.32466053305E+02 -0.15348746196E+01  0.51430076044E+02  0.10566000000E+00 0.  1.
         22    1    1    0    0    0  0.26255524202E+02  0.52035804303E+01 -0.14591114813E+02  0.30484921385E+02  0.00000000000E+00 0. -1.
</event>
<event>
 5    1  0.1264731E-009  0.9118800E+02  0.7815553E-02  0.1125453E+00
         25   -1    0    0    0    0  0.00000000000E+00  0.00000000000E+00  0.99999998245E-14  0.12509000000E+03  0.12509000000E+03 0.  0.
        -13    1    3    3    0    0  0.35084296837E+02 -0.31743816167E+02 -0.32997758918E+02  0.57683975305E+02  0.10566000000E+00 0. -1.
         23    2    1    0    0    0  0.13571709597E+02 -0.23716342102E+02 -0.14637570130E+00  0.97764597717E+02  0.93868199923E+02 0.  0.
         13    1    3    3    0    0 -0.21512587240E+02  0.80274740652E+01  0.32851383217E+02  0.40080622412E+02  0.10566000000E+00 0.  1.
         22    1    1    0    0    0 -0.13571709597E+02  0.23716342102E+02  0.14637570130E+00  0.27325402283E+02  0.00000000000E+00 0. -1.
</event>
<event>
 5    1  0.1264731E-009  0.9118800E+02  0.7815553E-02  0.1125453E+00
         25   -1    0    0    0    0  0.00000000000E+00  0.00000000000E+00  0.99999998245E-14  0.12509000000E+03  0.12509000000E+03 0.  0.
        -13    1    3    3    0    0  0.30799291464E+02  0.24409636333E+02  0.43337174093E+02  0.58502551423E+02  0.10566000000E+00 0.  1.
         23    2    1    0    0    0  0.17376292260E+02 -0.40354839838E+01  0.23100099322E+02  0.95903783178E+02  0.91354804884E+02 0.  0.
         13    1    3    3    0    0 -0.13422999203E+02 -0.28445120317E+02 -0.20237074771E+02  0.37401231755E+02  0.10566000000E+00 0. -1.
         22    1    1    0    0    0 -0.17376292260E+02  0.40354839838E+01 -0.23100099322E+02  0.29186216822E+02  0.00000000000E+00 0.  1.
</event>
<event>
 5    1  0.1264731E-009  0.9118800E+02  0.7815553E-02  0.1125453E+00
         25   -1    0    0    0    0  0.00000000000E+00  0.00000000000E+00  0.99999998245E-14  0.12509000000E+03  0.12509000000E+03 0.  0.
        -13    1    3    3    0    0  0.19764023208E+02  0.15047425156E+02  0.26842592841E+02  0.36572907618E+02  0.10566000000E+00 0.  1.
         23    2    1    0    0    0 -0.36807811161E+01  0.13323007018E+02 -0.26686359821E+02  0.95036506590E+02  0.90159442760E+02 0.  0.
         13    1    3    3    0    0 -0.23444804324E+02 -0.17244181379E+01 -0.53528952662E+02  0.58463598972E+02  0.10566000000E+00 0. -1.
         22    1    1    0    0    0  0.36807811161E+01 -0.13323007018E+02  0.26686359821E+02  0.30053493410E+02  0.00000000000E+00 0. -1.
</event>
<event>
 5    1  0.1264731E-009  0.9118800E+02  0.7815553E-02  0.1125453E+00
         25   -1    0    0    0    0  0.00000000000E+00  0.00000000000E+00  0.99999998245E-14  0.12509000000E+03  0.12509000000E+03 0.  0.
        -13    1    3    3    0    0 -0.94294729203E+01 -0.55680312662E+02  0.14169439128E+02  0.58223675141E+02  0.10566000000E+00 0.  1.
         23    2    1    0    0    0 -0.18573314263E+02 -0.35029997612E+02 -0.99718272868E+00  0.85428140376E+02  0.75663095755E+02 0.  0.
         13    1    3    3    0    0 -0.91438413431E+01  0.20650315049E+02 -0.15166621857E+02  0.27204465235E+02  0.10566000000E+00 0. -1.
         22    1    1    0    0    0  0.18573314263E+02  0.35029997612E+02  0.99718272868E+00  0.39661859624E+02  0.00000000000E+00 0.  1.
</event>
<event>
 5    1  0.1264731E-009  0.9118800E+02  0.7815553E-02  0.1125453E+00
         25   -1    0    0    0    0  0.00000000000E+00  0.00000000000E+00  0.99999998245E-14  0.12509000000E+03  0.12509000000E+03 0.  0.
        -13    1    3    3    0    0  0.27940513157E+02 -0.45709470118E+02 -0.88465355828E+01  0.54298253101E+02  0.10566000000E+00 0.  1.
         23    2    1    0    0    0  0.19344754454E+01 -0.22422583570E+02  0.16283328989E+02  0.97311208591E+02  0.93262050510E+02 0.  0.
         13    1    3    3    0    0 -0.26006037712E+02  0.23286886548E+02  0.25129864572E+02  0.43012955490E+02  0.10566000000E+00 0. -1.
         22    1    1    0    0    0 -0.19344754454E+01  0.22422583570E+02 -0.16283328989E+02  0.27778791409E+02  0.00000000000E+00 0.  1.
</event>
<event>
 5    1  0.1264731E-009  0.9118800E+02  0.7815553E-02  0.1125453E+00
         25   -1    0    0    0    0  0.00000000000E+00  0.00000000000E+00  0.99999998245E-14  0.12509000000E+03  0.12509000000E+03 0.  0.
        -13    1    3    3    0    0  0.19798528761E+02  0.18564330328E+02  0.27573864656E+02  0.38690377069E+02  0.10566000000E+00 0. -1.
         23    2    1    0    0    0 -0.16017441352E+02  0.29982130185E+02 -0.76955129105E+01  0.90237346201E+02  0.83235035727E+02 0.  0.
         13    1    3    3    0    0 -0.35815970113E+02  0.11417799857E+02 -0.35269377566E+02  0.51546969132E+02  0.10566000000E+00 0.  1.
         22    1    1    0    0    0  0.16017441352E+02 -0.29982130185E+02  0.76955129105E+01  0.34852653799E+02  0.00000000000E+00 0.  1.
</event>
<event>
 5    1  0.1264731E-009  0.9118800E+02  0.7815553E-02  0.1125453E+00
         25   -1    0    0    0    0  0.00000000000E+00  0.00000000000E+00  0.99999998245E-14  0.12509000000E+03  0.12509000000E+03 0.  0.
        -13    1    3    3    0    0  0.34233325483E+01 -0.42210616290E+02 -0.48352413088E+01  0.42624477191E+02  0.10566000000E+00 0.  1.
         23    2    1    0    0    0 -0.19451163168E+02  0.34087385747E-01  0.20411376631E+02  0.96894730778E+02  0.92701756434E+02 0.  0.
         13    1    3    3    0    0 -0.22874495716E+02  0.42244703675E+02  0.25246617940E+02  0.54270253586E+02  0.10566000000E+00 0. -1.
         22    1    1    0    0    0  0.19451163168E+02 -0.34087385747E-01 -0.20411376631E+02  0.28195269222E+02  0.00000000000E+00 0. -1.
</event>
<event>
 5    1  0.1264731E-009  0.9118800E+02  0.7815553E-02  0.1125453E+00
         25   -1    0    0    0    0  0.00000000000E+00  0.00000000000E+00  0.99999998245E-14  0.12509000000E+03  0.12509000000E+03 0.  0.
        -13    1    3    3    0    0 -0.36096688314E+02  0.12576474466E+01  0.15302533162E+01  0.36151146919E+02  0.10566000000E+00 0. -1.
         23    2    1    0    0    0  0.14105059774E+02 -0.27616105598E+02  0.87823544035E+00  0.94067857955E+02  0.88805341073E+02 0.  0.
         13    1    3    3    0    0  0.50201748087E+02 -0.28873753044E+02 -0.65201787584E+00  0.57916711036E+02  0.10566000000E+00 0.  1.
         22    1    1    0    0    0 -0.14105059774E+02  0.27616105598E+02 -0.87823544035E+00  0.31022142045E+02  0.00000000000E+00 0.  1.
</event>
<event>
 5    1  0.1264731E-009  0.9118800E+02  0.7815553E-02  0.1125453E+00
         25   -1    0    0    0    0  0.00000000000E+00  0.00000000000E+00  0.99999998245E-14  0.12509000000E+03  0.12509000000E+03 0.  0.
        -13    1    3    3    0    0  0.10648421225E+02  0.34480340043E+02 -0.45689457177E+02  0.58222164038E+02  0.10566000000E+00 0.  1.
         23    2    1    0    0    0 -0.49836108563E+01  0.25905071067E+02 -0.12498842054E+02  0.95898731839E+02  0.91347887942E+02 0.  0.
         13    1    3    3    0    0 -0.15632032081E+02 -0.85752689752E+01  0.33190615123E+02  0.37676567801E+02  0.10566000000E+00 0. -1.
         22    1    1    0    0    0  0.49836108563E+01 -0.25905071067E+02  0.12498842054E+02  0.29191268161E+02  0.00000000000E+00 0.  1.
</event>
<event>
 5    1  0.1264731E-009  0.9118800E+02  0.7815553E-02  0.1125453E+00
         25   -1    0    0    0    0  0.00000000000E+00  0.00000000000E+00  0.99999998245E-14  0.12509000000E+03  0.12509000000E+03 0.  0.
        -13    1    3    3    0    0 -0.16742735094E+02  0.50577607716E+02 -0.29640240765E+02  0.60966946925E+02  0.10566000000E+00 0.  1.
         23    2    1    0    0    0 -0.54815762843E+01  0.28914037453E+02 -0.26321250166E+02  0.85607377864E+02  0.75958842106E+02 0.  0.
         13    1    3    3    0    0  0.11261158809E+02 -0.21663570263E+02  0.33189905990E+01  0.24640430940E+02  0.10566000000E+00 0. -1.
         22    1    1    0    0    0  0.54815762843E+01 -0.28914037453E+02  0.26321250166E+02  0.39482622136E+02  0.00000000000E+00 0.  1.
</event>
<event>
 5    1  0.1264731E-009  0.9118800E+02  0.7815553E-02  0.1125453E+00
         25   -1    0    0    0    0  0.00000000000E+00  0.00000000000E+00  0.99999998245E-14  0.12509000000E+03  0.12509000000E+03 0.  0.
        -13    1    3    3    0    0  0.28998500205E+02 -0.62647158119E+00  0.49701000141E+02  0.57545686718E+02  0.10566000000E+00 0.  1.
         23    2    1    0    0    0  0.17772323957E+02 -0.17791832298E+02  0.25372400276E+02  0.89366569439E+02  0.81915933994E+02 0.  0.
         13    1    3    3    0    0 -0.11226176249E+02 -0.17165360716E+02 -0.24328599865E+02  0.31820882721E+02  0.10566000000E+00 0. -1.
         22    1    1    0    0    0 -0.17772323957E+02  0.17791832298E+02 -0.25372400276E+02  0.35723430561E+02  0.00000000000E+00 0.  1.
</event>
<event>
 5    1  0.1264731E-009  0.9118800E+02  0.7815553E-02  0.1125453E+00
         25   -1    0    0    0    0  0.00000000000E+00  0.00000000000E+00  0.99999998245E-14  0.12509000000E+03  0.12509000000E+03 0.  0.
        -13    1    3    3    0    0  0.21332503013E+02 -0.33384718572E+01 -0.26709900127E+02  0.34346047924E+02  0.10566000000E+00 0. -1.
         23    2    1    0    0    0 -0.86047517908E+01 -0.16587711429E+02  0.23979930360E+02  0.94688832524E+02  0.89675771649E+02 0.  0.
         13    1    3    3    0    0 -0.29937254804E+02 -0.13249239572E+02  0.50689830487E+02  0.60342784600E+02  0.10566000000E+00 0.  1.
         22    1    1    0    0    0  0.86047517908E+01  0.16587711429E+02 -0.23979930360E+02  0.30401167476E+02  0.00000000000E+00 0.  1.
</event>
<event>
 5    1  0.1264731E-009  0.9118800E+02  0.7815553E-02  0.1125453E+00
         25   -1    0    0    0    0  0.00000000000E+00  0.00000000000E+00  0.99999998245E-14  0.12509000000E+03  0.12509000000E+03 0.  0.
        -13    1    3    3    0    0  0.17808978448E+02 -0.38294981984E+02  0.38163668275E+02  0.56922246080E+02  0.10566000000E+00 0.  1.
         23    2    1    0    0    0 -0.49876133237E+01 -0.87464655976E+01  0.27602914541E+02  0.95708069528E+02  0.91086424535E+02 0.  0.
         13    1    3    3    0    0 -0.22796591772E+02  0.29548516387E+02 -0.10560753734E+02  0.38785823448E+02  0.10566000000E+00 0. -1.
         22    1    1    0    0    0  0.49876133237E+01  0.87464655976E+01 -0.27602914541E+02  0.29381930472E+02  0.00000000000E+00 0.  1.
</event>
<event>
 5    1  0.1264731E-009  0.9118800E+02  0.7815553E-02  0.1125453E+00
         25   -1    0    0    0    0  0.00000000000E+00  0.00000000000E+00  0.99999998245E-14  0.12509000000E+03  0.12509000000E+03 0.  0.
        -13    1    3    3    0    0 -0.23165505721E+02 -0.35346137139E+02 -0.98919396448E+01  0.43403360468E+02  0.10566000000E+00 0.  1.
         23    2    1    0    0    0 -0.12264804978E+02  0.14907031066E+02 -0.21578920039E+02  0.96136678836E+02  0.91673148802E+02 0.  0.
         13    1    3    3    0    0  0.10900700743E+02  0.50253168205E+02 -0.11686980394E+02  0.52733318368E+02  0.10566000000E+00 0. -1.
         22    1    1    0    0    0  0.12264804978E+02 -0.14907031066E+02  0.21578920039E+02  0.28953321164E+02  0.00000000000E+00 0. -1.
</event>
<event>
 5    1  0.1264731E-009  0.9118800E+02  0.7815553E-02  0.1125453E+00
         25   -1    0    0    0    0  0.00000000000E+00  0.00000000000E+00  0.99999998245E-14  0.12509000000E+03  0.12509000000E+03 0.  0.
        -13    1    3    3    0    0  0.41806069290E+02 -0.21806907092E+02  0.88148868959E+01  0.47968760891E+02  0.10566000000E+00 0.  1.
         23    2    1    0    0    0 -0.37887724325E+01 -0.21569690742E+02  0.20558480007E+02  0.95052399307E+02  0.90181490110E+02 0.  0.
         13    1    3    3    0    0 -0.45594841722E+02  0.23721635018E+00  0.11743593111E+02  0.47083638416E+02  0.10566000000E+00 0. -1.
         22    1    1    0    0    0  0.37887724325E+01  0.21569690742E+02 -0.20558480007E+02  0.30037600693E+02  0.00000000000E+00 0. -1.
</event>
<event>
 5    1  0.1264731E-009  0.9118800E+02  0.7815553E-02  0.1125453E+00
         25   -1    0    0    0    0  0.00000000000E+00  0.00000000000E+00  0.99999998245E-14  0.12509000000E+03  0.12509000000E+03 0.  0.
        -13    1    3    3    0    0  0.35413316948E+02  0.25823836078E+01 -0.45044390814E+02  0.57356604068E+02  0.10566000000E+00 0.  1.
         23    2    1    0    0    0  0.10710747352E+01 -0.46253836766E+01 -0.28580973855E+02  0.96117367366E+02  0.91646794094E+02 0.  0.
         13    1    3    3    0    0 -0.34342242213E+02 -0.72077672843E+01  0.16463416959E+02  0.38760763298E+02  0.10566000000E+00 0. -1.
         22    1    1    0    0    0 -0.10710747352E+01  0.46253836766E+01  0.28580973855E+02  0.28972632634E+02  0.00000000000E+00 0.  1.
</event>
<event>
 5    1  0.1264731E-009  0.9118800E+02  0.7815553E-02  0.1125453E+00
         25   -1    0    0    0    0  0.00000000000E+00  0.00000000000E+00  0.99999998245E-14  0.12509000000E+03  0.12509000000E+03 0.  0.
        -13    1    3    3    0    0 -0.14403157612E+02  0.47191804014E+02  0.58928220301E+01  0.49691587123E+02  0.10566000000E+00 0. -1.
         23    2    1    0    0    0 -0.54895172330E+01  0.87028918710E+01  0.28206610569E+02  0.95065210140E+02  0.90199258161E+02 0.  0.
         13    1    3    3    0    0  0.89136403787E+01 -0.38488912143E+02  0.22313788539E+02  0.45373623017E+02  0.10566000000E+00 0.  1.
         22    1    1    0    0    0  0.54895172330E+01 -0.87028918710E+01 -0.28206610569E+02  0.30024789860E+02  0.00000000000E+00 0. -1.
</event>
<event>
 5    1  0.1264731E-009  0.9118800E+02  0.7815553E-02  0.1125453E+00
         25   -1    0    0    0    0  0.00000000000E+00  0.00000000000E+00  0.99999998245E-14  0.12509000000E+03  0.12509000000E+03 0.  0.
        -13    1    3    3    0    0 -0.29884024466E+02  0.46548921872E+01 -0.26890720611E+02  0.40470297239E+02  0.10566000000E+00 0.  1.
         23    2    1    0    0    0 -0.52182962516E+01  0.21437187371E+02  0.19512335307E+02  0.95636395004E+02  0.90987939871E+02 0.  0.
         13    1    3    3    0    0  0.24665728215E+02  0.16782295184E+02  0.46403055918E+02  0.55166097765E+02  0.10566000000E+00 0. -1.
         22    1    1    0    0    0  0.52182962516E+01 -0.21437187371E+02 -0.19512335307E+02  0.29453604996E+02  0.00000000000E+00 0. -1.
</event>
<event>
 5    1  0.1264731E-009  0.9118800E+02  0.7815553E-02  0.1125453E+00
         25   -1    0    0    0    0  0.00000000000E+00  0.00000000000E+00  0.99999998245E-14  0.12509000000E+03  0.12509000000E+03 0.  0.
        -13    1    3    3    0    0  0.28709980729E+02 -0.19992025811E+02 -0.20403427160E+01  0.35044518144E+02  0.10566000000E+00 0. -1.
         23    2    1    0    0    0 -0.25972205429E+02  0.16336719095E+01  0.13369054386E+02  0.95833275065E+02  0.91258208703E+02 0.  0.
         13    1    3    3    0    0 -0.54682186158E+02  0.21625697721E+02  0.15409397102E+02  0.60788756921E+02  0.10566000000E+00 0.  1.
         22    1    1    0    0    0  0.25972205429E+02 -0.16336719095E+01 -0.13369054386E+02  0.29256724935E+02  0.00000000000E+00 0.  1.
</event>
<event>
 5    1  0.1264731E-009  0.9118800E+02  0.7815553E-02  0.1125453E+00
         25   -1    0    0    0    0  0.00000000000E+00  0.00000000000E+00  0.99999998245E-14  0.12509000000E+03  0.12509000000E+03 0.  0.
        -13    1    3    3    0    0  0.97158001126E+01 -0.36336690052E+02  0.15551376617E+02  0.40701453223E+02  0.10566000000E+00 0. -1.
         23    2    1    0    0    0 -0.15097400780E+01  0.10073298570E+02 -0.21605474163E+02  0.10120387070E+03  0.98344680952E+02 0.  0.
         13    1    3    3    0    0 -0.11225540191E+02  0.46409988622E+02 -0.37156850780E+02  0.60502417476E+02  0.10566000000E+00 0.  1.
         22    1    1    0    0    0  0.15097400780E+01 -0.10073298570E+02  0.21605474163E+02  0.23886129301E+02  0.00000000000E+00 0.  1.
</event>
<event>
 5    1  0.1264731E-009  0.9118800E+02  0.7815553E-02  0.1125453E+00
         25   -1    0    0    0    0  0.00000000000E+00  0.00000000000E+00  0.99999998245E-14  0.12509000000E+03  0.12509000000E+03 0.  0.
        -13    1    3    3    0    0 -0.24082998296E+01  0.13546178232E+02 -0.35391594097E+02  0.37972028515E+02  0.10566000000E+00 0. -1.
         23    2    1    0    0    0  0.12351060029E+01 -0.30779404866E+02 -0.86883171670E+00  0.94273573872E+02  0.89094638510E+02 0.  0.
         13    1    3    3    0    0  0.36434058325E+01 -0.44325583099E+02  0.34522762381E+02  0.56301545357E+02  0.10566000000E+00 0.  1.
         22    1    1    0    0    0 -0.12351060029E+01  0.30779404866E+02  0.86883171670E+00  0.30816426128E+02  0.00000000000E+00 0.  1.
</event>
<event>
 5    1  0.1264731E-009  0.9118800E+02  0.7815553E-02  0.1125453E+00
         25   -1    0    0    0    0  0.00000000000E+00  0.00000000000E+00  0.99999998245E-14  0.12509000000E+03  0.12509000000E+03 0.  0.
        -13    1    3    3    0    0 -0.83788898680E+01 -0.41256297731E+02  0.43552262763E-01  0.42098704953E+02  0.10566000000E+00 0. -1.
         23    2    1    0    0    0  0.18008593988E+02  0.22319127947E+01  0.21194341800E+02  0.97188548129E+02  0.93097383803E+02 0.  0.
         13    1    3    3    0    0  0.26387483856E+02  0.43488210526E+02  0.21150789538E+02  0.55089843176E+02  0.10566000000E+00 0.  1.
         22    1    1    0    0    0 -0.18008593988E+02 -0.22319127947E+01 -0.21194341800E+02  0.27901451871E+02  0.00000000000E+00 0.  1.
</event>
<event>
 5    1  0.1264731E-009  0.9118800E+02  0.7815553E-02  0.1125453E+00
         25   -1    0    0    0    0  0.00000000000E+00  0.00000000000E+00  0.99999998245E-14  0.12509000000E+03  0.12509000000E+03 0.  0.
        -13    1    3    3    0    0 -0.36482168172E+02  0.29796920356E+02  0.15388774782E+02  0.49554319797E+02  0.10566000000E+00 0. -1.
         23    2    1    0    0    0 -0.23516129227E+01  0.24726924311E+02 -0.15455241009E+02  0.95835678201E+02  0.91261502685E+02 0.  0.
         13    1    3    3    0    0  0.34130555250E+02 -0.50699960446E+01 -0.30844015791E+02  0.46281358404E+02  0.10566000000E+00 0.  1.
         22    1    1    0    0    0  0.23516129227E+01 -0.24726924311E+02  0.15455241009E+02  0.29254321799E+02  0.00000000000E+00 0.  1.
</event>
<event>
 5    1  0.1264731E-009  0.9118800E+02  0.7815553E-02  0.1125453E+00
         25   -1    0    0    0    0  0.00000000000E+00  0.00000000000E+00  0.99999998245E-14  0.12509000000E+03  0.12509000000E+03 0.  0.
        -13    1    3    3    0    0  0.24028968498E+02  0.93789457924E+01 -0.49836020509E+02  0.56115916240E+02  0.10566000000E+00 0. -1.
         23    2    1    0    0    0  0.22747668092E+02 -0.10431754441E+02 -0.15874386721E+02  0.95454311074E+02  0.90737266018E+02 0.  0.
         13    1    3    3    0    0 -0.12813004059E+01 -0.19810700234E+02  0.33961633788E+02  0.39338394833E+02  0.10566000000E+00 0.  1.
         22    1    1    0    0    0 -0.22747668092E+02  0.10431754441E+02  0.15874386721E+02  0.29635688926E+02  0.00000000000E+00 0. -1.
</event>
<event>
 5    1  0.1264731E-009  0.9118800E+02  0.7815553E-02  0.1125453E+00
         25   -1    0    0    0    0  0.00000000000E+00  0.00000000000E+00  0.99999998245E-14  0.12509000000E+03  0.12509000000E+03 0.  0.
        -13    1    3    3    0    0  0.19759779773E+02  0.35917037288E+02 -0.30855614991E+02  0.51308504215E+02  0.10566000000E+00 0.  1.
         23    2    1    0    0    0  0.28615408004E+02  0.53860981857E+01  0.51101459089E+00  0.95967624327E+02  0.91442179295E+02 0.  0.
         13    1    3    3    0    0  0.88556282310E+01 -0.30530939102E+02  0.31366629582E+02  0.44659120112E+02  0.10566000000E+00 0. -1.
         22    1    1    0    0    0 -0.28615408004E+02 -0.53860981857E+01 -0.51101459089E+00  0.29122375673E+02  0.00000000000E+00 0. -1.
</event>
<event>
 5    1  0.1264731E-009  0.9118800E+02  0.7815553E-02  0.1125453E+00
         25   -1    0    0    0    0  0.00000000000E+00  0.00000000000E+00  0.99999998245E-14  0.12509000000E+03  0.12509000000E+03 0.  0.
        -13    1    3    3    0    0 -0.21357248815E+02  0.12114422846E+02  0.56830627862E+02  0.61908179953E+02  0.10566000000E+00 0. -1.
         23    2    1    0    0    0 -0.11710305813E+02 -0.12494300995E+00  0.29169496155E+02  0.93657431239E+02  0.88225325430E+02 0.  0.
         13    1    3    3    0    0  0.96469430023E+01 -0.12239365856E+02 -0.27661131707E+02  0.31749251286E+02  0.10566000000E+00 0.  1.
         22    1    1    0    0    0  0.11710305813E+02  0.12494300995E+00 -0.29169496155E+02  0.31432568761E+02  0.00000000000E+00 0. -1.
</event>
<event>
 5    1  0.1264731E-009  0.9118800E+02  0.7815553E-02  0.1125453E+00
         25   -1    0    0    0    0  0.00000000000E+00  0.00000000000E+00  0.99999998245E-14  0.12509000000E+03  0.12509000000E+03 0.  0.
        -13    1    3    3    0    0 -0.32057651873E+02 -0.42680225772E+02 -0.32594229978E+02  0.62543502520E+02  0.10566000000E+00 0.  1.
         23    2    1    0    0    0 -0.15033159633E+02 -0.20390693814E+02 -0.15234552304E+02  0.95528743824E+02  0.90839820728E+02 0.  0.
         13    1    3    3    0    0  0.17024492239E+02  0.22289531958E+02  0.17359677674E+02  0.32985241304E+02  0.10566000000E+00 0. -1.
         22    1    1    0    0    0  0.15033159633E+02  0.20390693814E+02  0.15234552304E+02  0.29561256176E+02  0.00000000000E+00 0.  1.
</event>
<event>
 5    1  0.1264731E-009  0.9118800E+02  0.7815553E-02  0.1125453E+00
         25   -1    0    0    0    0  0.00000000000E+00  0.00000000000E+00  0.99999998245E-14  0.12509000000E+03  0.12509000000E+03 0.  0.
        -13    1    3    3    0    0  0.14162160175E+02  0.58004582372E+01 -0.34209697038E+02  0.37477014716E+02  0.10566000000E+00 0.  1.
         23    2    1    0    0    0  0.18848135398E+02  0.47090732326E+01  0.23053549865E+02  0.94942135398E+02  0.90028414036E+02 0.  0.
         13    1    3    3    0    0  0.46859752230E+01 -0.10913850045E+01  0.57263246903E+02  0.57465120682E+02  0.10566000000E+00 0. -1.
         22    1    1    0    0    0 -0.18848135398E+02 -0.47090732326E+01 -0.23053549865E+02  0.30147864602E+02  0.00000000000E+00 0. -1.
</event>
<event>
 5    1  0.1264731E-009  0.9118800E+02  0.7815553E-02  0.1125453E+00
         25   -1    0    0    0    0  0.00000000000E+00  0.00000000000E+00  0.99999998245E-14  0.12509000000E+03  0.12509000000E+03 0.  0.
        -13    1    3    3    0    0  0.39248268243E+02 -0.12346421089E+02 -0.21389880479E+01  0.41200086259E+02  0.10566000000E+00 0. -1.
         23    2    1    0    0    0 -0.10886682106E+02  0.20728265946E+02 -0.42257302743E+01  0.10129845417E+03  0.98464913373E+02 0.  0.
         13    1    3    3    0    0 -0.50134950350E+02  0.33074687035E+02 -0.20867422264E+01  0.60098367916E+02  0.10566000000E+00 0.  1.
         22    1    1    0    0    0  0.10886682106E+02 -0.20728265946E+02  0.42257302743E+01  0.23791545825E+02  0.00000000000E+00 0.  1.
</event>
<event>
 5    1  0.1264731E-009  0.9118800E+02  0.7815553E-02  0.1125453E+00
         25   -1    0    0    0    0  0.00000000000E+00  0.00000000000E+00  0.99999998245E-14  0.12509000000E+03  0.12509000000E+03 0.  0.
        -13    1    3    3    0    0 -0.51231153859E+02 -0.37953195931E+01  0.19638912946E+01  0.51409178262E+02  0.10566000000E+00 0.  1.
         23    2    1    0    0    0 -0.13546395937E+02 -0.19481602905E+02 -0.16478126603E+02  0.96201137943E+02  0.91761062497E+02 0.  0.
         13    1    3    3    0    0  0.37684757923E+02 -0.15686283311E+02 -0.18442017898E+02  0.44791959680E+02  0.10566000000E+00 0. -1.
         22    1    1    0    0    0  0.13546395937E+02  0.19481602905E+02  0.16478126603E+02  0.28888862057E+02  0.00000000000E+00 0.  1.
</event>
<event>
 5    1  0.1264731E-009  0.9118800E+02  0.7815553E-02  0.1125453E+00
         25   -1    0    0    0    0  0.00000000000E+00  0.00000000000E+00  0.99999998245E-14  0.12509000000E+03  0.12509000000E+03 0.  0.
        -13    1    3    3    0    0 -0.31155817517E+02  0.14604614948E+02  0.51173826364E+02  0.61666452887E+02  0.10566000000E+00 0. -1.
         23    2    1    0    0    0 -0.19268141073E+02  0.10305771529E+02  0.19373956795E+02  0.95886911309E+02  0.91331699706E+02 0.  0.
         13    1    3    3    0    0  0.11887676444E+02 -0.42988434189E+01 -0.31799869569E+02  0.34220458422E+02  0.10566000000E+00 0.  1.
         22    1    1    0    0    0  0.19268141073E+02 -0.10305771529E+02 -0.19373956795E+02  0.29203088691E+02  0.00000000000E+00 0. -1.
</event>
<event>
 5    1  0.1264731E-009  0.9118800E+02  0.7815553E-02  0.1125453E+00
         25   -1    0    0    0    0  0.00000000000E+00  0.00000000000E+00  0.99999998245E-14  0.12509000000E+03  0.12509000000E+03 0.  0.
        -13    1    3    3    0    0 -0.36393165962E+00 -0.43415037439E+02 -0.38744438932E+01  0.43589223457E+02  0.10566000000E+00 0.  1.
         23    2    1    0    0    0  0.26601324483E+02 -0.20075563941E+01 -0.15341830998E+02  0.94316106432E+02  0.89154334764E+02 0.  0.
         13    1    3    3    0    0  0.26965256143E+02  0.41407481045E+02 -0.11467387105E+02  0.50726882975E+02  0.10566000000E+00 0. -1.
         22    1    1    0    0    0 -0.26601324483E+02  0.20075563941E+01  0.15341830998E+02  0.30773893568E+02  0.00000000000E+00 0.  1.
</event>
<event>
 5    1  0.1264731E-009  0.9118800E+02  0.7815553E-02  0.1125453E+00
         25   -1    0    0    0    0  0.00000000000E+00  0.00000000000E+00  0.99999998245E-14  0.12509000000E+03  0.12509000000E+03 0.  0.
        -13    1    3    3    0    0 -0.29558299521E+02  0.36261900941E+02  0.38514381312E+01  0.46941061664E+02  0.10566000000E+00 0.  1.
         23    2    1    0    0    0  0.82625235323E+01  0.18990547520E+02 -0.21175816923E+02  0.95470320519E+02  0.90759333886E+02 0.  0.
         13    1    3    3    0    0  0.37820823054E+02 -0.17271353421E+02 -0.25027255054E+02  0.48529258855E+02  0.10566000000E+00 0. -1.
         22    1    1    0    0    0 -0.82625235323E+01 -0.18990547520E+02  0.21175816923E+02  0.29619679481E+02  0.00000000000E+00 0. -1.
</event>
<event>
 5    1  0.1264731E-009  0.9118800E+02  0.7815553E-02  0.1125453E+00
         25   -1    0    0    0    0  0.00000000000E+00  0.00000000000E+00  0.99999998245E-14  0.12509000000E+03  0.12509000000E+03 0.  0.
        -13    1    3    3    0    0 -0.27191809934E+02  0.19149102996E+02 -0.28770046448E+02  0.43975099883E+02  0.10566000000E+00 0.  1.
         23    2    1    0    0    0  0.15732424509E+02  0.16336704035E+02  0.84779017051E+01  0.10087694780E+03  0.97927966893E+02 0.  0.
         13    1    3    3    0    0  0.42924234443E+02 -0.28123989611E+01  0.37247948153E+02  0.56901847914E+02  0.10566000000E+00 0. -1.
         22    1    1    0    0    0 -0.15732424509E+02 -0.16336704035E+02 -0.84779017051E+01  0.24213052203E+02  0.00000000000E+00 0. -1.
</event>
<event>
 5    1  0.1264731E-009  0.9118800E+02  0.7815553E-02  0.1125453E+00
         25   -1    0    0    0    0  0.00000000000E+00  0.00000000000E+00  0.99999998245E-14  0.12509000000E+03  0.12509000000E+03 0.  0.
        -13    1    3    3    0    0 -0.49539997830E+02 -0.16249295885E+02  0.29284933275E+02  0.59798574253E+02  0.10566000000E+00 0.  1.
         23    2    1    0    0    0 -0.26561859718E+02  0.97186994431E+00  0.37083336587E+01  0.98252923755E+02  0.94516709449E+02 0.  0.
         13    1    3    3    0    0  0.22978138112E+02  0.17221165830E+02 -0.25576599616E+02  0.38454349502E+02  0.10566000000E+00 0. -1.
         22    1    1    0    0    0  0.26561859718E+02 -0.97186994431E+00 -0.37083336587E+01  0.26837076245E+02  0.00000000000E+00 0.  1.
</event>
<event>
 5    1  0.1264731E-009  0.9118800E+02  0.7815553E-02  0.1125453E+00
         25   -1    0    0    0    0  0.00000000000E+00  0.00000000000E+00  0.99999998245E-14  0.12509000000E+03  0.12509000000E+03 0.  0.
        -13    1    3    3    0    0  0.25943064652E+02  0.36854380695E+02 -0.20795722708E+02  0.49636289415E+02  0.10566000000E+00 0. -1.
         23    2    1    0    0    0  0.25489918336E+02 -0.84624862633E+01 -0.11365302182E+02  0.95926329034E+02  0.91385671183E+02 0.  0.
         13    1    3    3    0    0 -0.45314631595E+00 -0.45316866959E+02  0.94304205250E+01  0.46290039618E+02  0.10566000000E+00 0.  1.
         22    1    1    0    0    0 -0.25489918336E+02  0.84624862633E+01  0.11365302182E+02  0.29163670966E+02  0.00000000000E+00 0. -1.
</event>
<event>
 5    1  0.1264731E-009  0.9118800E+02  0.7815553E-02  0.1125453E+00
         25   -1    0    0    0    0  0.00000000000E+00  0.00000000000E+00  0.99999998245E-14  0.12509000000E+03  0.12509000000E+03 0.  0.
        -13    1    3    3    0    0  0.46211991384E+02 -0.24162703929E+02  0.38134695142E+01  0.52287074145E+02  0.10566000000E+00 0.  1.
         23    2    1    0    0    0  0.11054273153E+02 -0.28194959429E+02 -0.13791928609E+02  0.91812830846E+02  0.85570005966E+02 0.  0.
         13    1    3    3    0    0 -0.35157718231E+02 -0.40322554997E+01 -0.17605398124E+02  0.39525756701E+02  0.10566000000E+00 0. -1.
         22    1    1    0    0    0 -0.11054273153E+02  0.28194959429E+02  0.13791928609E+02  0.33277169154E+02  0.00000000000E+00 0.  1.
</event>
<event>
 5    1  0.1264731E-009  0.9118800E+02  0.7815553E-02  0.1125453E+00
         25   -1    0    0    0    0  0.00000000000E+00  0.00000000000E+00  0.99999998245E-14  0.12509000000E+03  0.12509000000E+03 0.  0.
        -13    1    3    3    0    0  0.31975942621E+02  0.24903161881E+02 -0.83235840142E+00  0.40538036000E+02  0.10566000000E+00 0. -1.
         23    2    1    0    0    0  0.10225669675E+02 -0.23341314380E+02  0.14674291392E+02  0.95683944414E+02  0.91053287219E+02 0.  0.
         13    1    3    3    0    0 -0.21750272946E+02 -0.48244476261E+02  0.15506649793E+02  0.55145908414E+02  0.10566000000E+00 0.  1.
         22    1    1    0    0    0 -0.10225669675E+02  0.23341314380E+02 -0.14674291392E+02  0.29406055586E+02  0.00000000000E+00 0.  1.
</event>
<event>
 5    1  0.1264731E-009  0.9118800E+02  0.7815553E-02  0.1125453E+00
         25   -1    0    0    0    0  0.00000000000E+00  0.00000000000E+00  0.99999998245E-14  0.12509000000E+03  0.12509000000E+03 0.  0.
        -13    1    3    3    0    0  0.62705392116E+01 -0.32632604266E+02  0.41594842981E+02  0.53238601126E+02  0.10566000000E+00 0.  1.
         23    2    1    0    0    0 -0.14186679073E+02  0.45292622434E+00  0.26622792294E+02  0.94919814803E+02  0.89997395337E+02 0.  0.
         13    1    3    3    0    0 -0.20457218285E+02  0.33085530491E+02 -0.14972050687E+02  0.41681213678E+02  0.10566000000E+00 0. -1.
         22    1    1    0    0    0  0.14186679073E+02 -0.45292622434E+00 -0.26622792294E+02  0.30170185197E+02  0.00000000000E+00 0.  1.
</event>
<event>
 5    1  0.1264731E-009  0.9118800E+02  0.7815553E-02  0.1125453E+00
         25   -1    0    0    0    0  0.00000000000E+00  0.00000000000E+00  0.99999998245E-14  0.12509000000E+03  0.12509000000E+03 0.  0.
        -13    1    3    3    0    0  0.38072333738E+02  0.25290046544E+00 -0.37976310347E+02  0.53775253291E+02  0.10566000000E+00 0. -1.
         23    2    1    0    0    0  0.40212681953E+01  0.19568481479E+02 -0.19890089382E+02  0.96899368207E+02  0.92708013882E+02 0.  0.
         13    1    3    3    0    0 -0.34051065542E+02  0.19315581013E+02  0.18086220965E+02  0.43124114916E+02  0.10566000000E+00 0.  1.
         22    1    1    0    0    0 -0.40212681953E+01 -0.19568481479E+02  0.19890089382E+02  0.28190631793E+02  0.00000000000E+00 0. -1.
</event>
<event>
 5    1  0.1264731E-009  0.9118800E+02  0.7815553E-02  0.1125453E+00
         25   -1    0    0    0    0  0.00000000000E+00  0.00000000000E+00  0.99999998245E-14  0.12509000000E+03  0.12509000000E+03 0.  0.
        -13    1    3    3    0    0  0.26327626027E+02 -0.90811989749E+01  0.28621061092E+02  0.39934801478E+02  0.10566000000E+00 0.  1.
         23    2    1    0    0    0  0.81473828400E+01  0.25378838279E+02 -0.11678674728E+02  0.95989197212E+02  0.91471685556E+02 0.  0.
         13    1    3    3    0    0 -0.18180243187E+02  0.34460037254E+02 -0.40299735820E+02  0.56054395734E+02  0.10566000000E+00 0. -1.
         22    1    1    0    0    0 -0.81473828400E+01 -0.25378838279E+02  0.11678674728E+02  0.29100802788E+02  0.00000000000E+00 0.  1.
</event>
<event>
 5    1  0.1264731E-009  0.9118800E+02  0.7815553E-02  0.1125453E+00
         25   -1    0    0    0    0  0.00000000000E+00  0.00000000000E+00  0.99999998245E-14  0.12509000000E+03  0.12509000000E+03 0.  0.
        -13    1    3    3    0    0 -0.57138472075E+01 -0.59137013349E+02 -0.68564581504E+01  0.59806827204E+02  0.10566000000E+00 0.  1.
         23    2    1    0    0    0  0.81069768736E+01 -0.28010480471E+02  0.42338249259E+01  0.95624166162E+02  0.90971126136E+02 0.  0.
         13    1    3    3    0    0  0.13820824081E+02  0.31126532878E+02  0.11090283076E+02  0.35817338958E+02  0.10566000000E+00 0. -1.
         22    1    1    0    0    0 -0.81069768736E+01  0.28010480471E+02 -0.42338249259E+01  0.29465833838E+02  0.00000000000E+00 0.  1.
</event>
<event>
 5    1  0.1264731E-009  0.9118800E+02  0.7815553E-02  0.1125453E+00
         25   -1    0    0    0    0  0.00000000000E+00  0.00000000000E+00  0.99999998245E-14  0.12509000000E+03  0.12509000000E+03 0.  0.
        -13    1    3    3    0    0 -0.24536011063E+02  0.83356429541E+00  0.36460622430E+02  0.43955646058E+02  0.10566000000E+00 0. -1.
         23    2    1    0    0    0 -0.10678000112E+02  0.22457271101E+02 -0.10983670429E+02  0.97905634497E+02  0.94055959611E+02 0.  0.
         13    1    3    3    0    0  0.13858010951E+02  0.21623706806E+02 -0.47444292860E+02  0.53949988439E+02  0.10566000000E+00 0.  1.
         22    1    1    0    0    0  0.10678000112E+02 -0.22457271101E+02  0.10983670429E+02  0.27184365503E+02  0.00000000000E+00 0.  1.
</event>
<event>
 5    1  0.1264731E-009  0.9118800E+02  0.7815553E-02  0.1125453E+00
         25   -1    0    0    0    0  0.00000000000E+00  0.00000000000E+00  0.99999998245E-14  0.12509000000E+03  0.12509000000E+03 0.  0.
        -13    1    3    3    0    0 -0.33842868549E+01  0.48404586038E+02  0.23073893320E+02  0.53729629294E+02  0.10566000000E+00 0. -1.
         23    2    1    0    0    0  0.18552546637E+02  0.14683001654E+02  0.20058807248E+02  0.94071565602E+02  0.88810563461E+02 0.  0.
         13    1    3    3    0    0  0.21936833492E+02 -0.33721584384E+02 -0.30150860721E+01  0.40341936308E+02  0.10566000000E+00 0.  1.
         22    1    1    0    0    0 -0.18552546637E+02 -0.14683001654E+02 -0.20058807248E+02  0.31018434398E+02  0.00000000000E+00 0.  1.
</event>
<event>
 5    1  0.1264731E-009  0.9118800E+02  0.7815553E-02  0.1125453E+00
         25   -1    0    0    0    0  0.00000000000E+00  0.00000000000E+00  0.99999998245E-14  0.12509000000E+03  0.12509000000E+03 0.  0.
        -13    1    3    3    0    0 -0.44256657939E+02  0.26571004480E+02  0.64312895962E+01  0.52019637647E+02  0.10566000000E+00 0. -1.
         23    2    1    0    0    0 -0.19486816661E+02 -0.91835837362E+01 -0.13289813203E+02  0.99778078525E+02  0.96514100448E+02 0.  0.
         13    1    3    3    0    0  0.24769841278E+02 -0.35754588217E+02 -0.19721102799E+02  0.47758440878E+02  0.10566000000E+00 0.  1.
         22    1    1    0    0    0  0.19486816661E+02  0.91835837362E+01  0.13289813203E+02  0.25311921475E+02  0.00000000000E+00 0. -1.
</event>
<event>
 5    1  0.1264731E-009  0.9118800E+02  0.7815553E-02  0.1125453E+00
         25   -1    0    0    0    0  0.00000000000E+00  0.00000000000E+00  0.99999998245E-14  0.12509000000E+03  0.12509000000E+03 0.  0.
        -13    1    3    3    0    0 -0.18116977092E+02 -0.29611422443E+02 -0.29615890772E+02  0.45630837690E+02  0.10566000000E+00 0.  1.
         23    2    1    0    0    0  0.13170750030E+02  0.75067019384E+01  0.88208471100E+01  0.10755071341E+03  0.10611092960E+03 0.  0.
         13    1    3    3    0    0  0.31287727122E+02  0.37118124382E+02  0.38436737882E+02  0.61919875720E+02  0.10566000000E+00 0. -1.
         22    1    1    0    0    0 -0.13170750030E+02 -0.75067019384E+01 -0.88208471100E+01  0.17539286590E+02  0.00000000000E+00 0. -1.
</event>
<event>
 5    1  0.1264731E-009  0.9118800E+02  0.7815553E-02  0.1125453E+00
         25   -1    0    0    0    0  0.00000000000E+00  0.00000000000E+00  0.99999998245E-14  0.12509000000E+03  0.12509000000E+03 0.  0.
        -13    1    3    3    0    0 -0.20282536265E+02 -0.98955927730E+00 -0.27507615011E+02  0.34191235025E+02  0.10566000000E+00 0. -1.
         23    2    1    0    0    0  0.21798570153E+02 -0.32310993696E+01  0.18308179443E+02  0.96440268791E+02  0.92086472112E+02 0.  0.
         13    1    3    3    0    0  0.42081106418E+02 -0.22415400923E+01  0.45815794454E+02  0.62249033766E+02  0.10566000000E+00 0.  1.
         22    1    1    0    0    0 -0.21798570153E+02  0.32310993696E+01 -0.18308179443E+02  0.28649731209E+02  0.00000000000E+00 0.  1.
</event>
<event>
 5    1  0.1264731E-009  0.9118800E+02  0.7815553E-02  0.1125453E+00
         25   -1    0    0    0    0  0.00000000000E+00  0.00000000000E+00  0.99999998245E-14  0.12509000000E+03  0.12509000000E+03 0.  0.
        -13    1    3    3    0    0  0.29184263639E+02  0.45810527833E+01 -0.31049413390E+02  0.42857724213E+02  0.10566000000E+00 0. -1.
         23    2    1    0    0    0  0.13102536883E+02 -0.23725589601E+02  0.10830314426E+02  0.95903088803E+02  0.91353854088E+02 0.  0.
         13    1    3    3    0    0 -0.16081726757E+02 -0.28306642384E+02  0.41879727816E+02  0.53045364590E+02  0.10566000000E+00 0.  1.
         22    1    1    0    0    0 -0.13102536883E+02  0.23725589601E+02 -0.10830314426E+02  0.29186911197E+02  0.00000000000E+00 0.  1.
</event>
<event>
 5    1  0.1264731E-009  0.9118800E+02  0.7815553E-02  0.1125453E+00
         25   -1    0    0    0    0  0.00000000000E+00  0.00000000000E+00  0.99999998245E-14  0.12509000000E+03  0.12509000000E+03 0.  0.
        -13    1    3    3    0    0 -0.12518312489E+02 -0.27389111613E+02  0.29390734921E+02  0.42079663090E+02  0.10566000000E+00 0.  1.
         23    2    1    0    0    0  0.15057486658E+02 -0.18812902210E+02 -0.16204751463E+02  0.96051281640E+02  0.91556548322E+02 0.  0.
         13    1    3    3    0    0  0.27575799147E+02  0.85762094035E+01 -0.45595486383E+02  0.53971618550E+02  0.10566000000E+00 0. -1.
         22    1    1    0    0    0 -0.15057486658E+02  0.18812902210E+02  0.16204751463E+02  0.29038718360E+02  0.00000000000E+00 0. -1.
</event>
<event>
 5    1  0.1264731E-009  0.9118800E+02  0.7815553E-02  0.1125453E+00
         25   -1    0    0    0    0  0.00000000000E+00  0.00000000000E+00  0.99999998245E-14  0.12509000000E+03  0.12509000000E+03 0.  0.
        -13    1    3    3    0    0  0.16613987122E+02  0.16645012566E+02  0.52814721122E+02  0.57814245154E+02  0.10566000000E+00 0.  1.
         23    2    1    0    0    0  0.22998983578E+02  0.31961570473E+01  0.17897491206E+02  0.95772959615E+02  0.91175495263E+02 0.  0.
         13    1    3    3    0    0  0.63849964555E+01 -0.13448855518E+02 -0.34917229916E+02  0.37958714461E+02  0.10566000000E+00 0. -1.
         22    1    1    0    0    0 -0.22998983578E+02 -0.31961570473E+01 -0.17897491206E+02  0.29317040385E+02  0.00000000000E+00 0.  1.
</event>
<event>
 5    1  0.1264731E-009  0.9118800E+02  0.7815553E-02  0.1125453E+00
         25   -1    0    0    0    0  0.00000000000E+00  0.00000000000E+00  0.99999998245E-14  0.12509000000E+03  0.12509000000E+03 0.  0.
        -13    1    3    3    0    0 -0.31716877158E+02  0.23916842185E+02 -0.32335079763E+02  0.51220544551E+02  0.10566000000E+00 0. -1.
         23    2    1    0    0    0 -0.24293394641E+02 -0.13042220302E+02 -0.69935410581E+01  0.96643943153E+02  0.92362728403E+02 0.  0.
         13    1    3    3    0    0  0.74234825172E+01 -0.36959062487E+02  0.25341538705E+02  0.45423398602E+02  0.10566000000E+00 0.  1.
         22    1    1    0    0    0  0.24293394641E+02  0.13042220302E+02  0.69935410581E+01  0.28446056847E+02  0.00000000000E+00 0. -1.
</event>
<event>
 5    1  0.1264731E-009  0.9118800E+02  0.7815553E-02  0.1125453E+00
         25   -1    0    0    0    0  0.00000000000E+00  0.00000000000E+00  0.99999998245E-14  0.12509000000E+03  0.12509000000E+03 0.  0.
        -13    1    3    3    0    0  0.33371828794E+02 -0.49324839911E+02 -0.31773688933E+01  0.59638289935E+02  0.10566000000E+00 0. -1.
         23    2    1    0    0    0  0.17460488569E+02 -0.18376444319E+02 -0.14064524690E+02  0.96100808537E+02  0.91624189928E+02 0.  0.
         13    1    3    3    0    0 -0.15911340225E+02  0.30948395591E+02 -0.10887155797E+02  0.36462518602E+02  0.10566000000E+00 0.  1.
         22    1    1    0    0    0 -0.17460488569E+02  0.18376444319E+02  0.14064524690E+02  0.28989191463E+02  0.00000000000E+00 0. -1.
</event>
<event>
 5    1  0.1264731E-009  0.9118800E+02  0.7815553E-02  0.1125453E+00
         25   -1    0    0    0    0  0.00000000000E+00  0.00000000000E+00  0.99999998245E-14  0.12509000000E+03  0.12509000000E+03 0.  0.
        -13    1    3    3    0    0  0.37383165715E+02  0.32920769166E+02  0.84024548506E+01  0.50516240289E+02  0.10566000000E+00 0. -1.
         23    2    1    0    0    0  0.26982377427E+02 -0.10848679559E+02  0.22831635909E+01  0.95918860568E+02  0.91375447670E+02 0.  0.
         13    1    3    3    0    0 -0.10400788288E+02 -0.43769448725E+02 -0.61192912598E+01  0.45402620279E+02  0.10566000000E+00 0.  1.
         22    1    1    0    0    0 -0.26982377427E+02  0.10848679559E+02 -0.22831635909E+01  0.29171139432E+02  0.00000000000E+00 0.  1.
</event>
<event>
 5    1  0.1264731E-009  0.9118800E+02  0.7815553E-02  0.1125453E+00
         25   -1    0    0    0    0  0.00000000000E+00  0.00000000000E+00  0.99999998245E-14  0.12509000000E+03  0.12509000000E+03 0.  0.
        -13    1    3    3    0    0 -0.40447788395E+02  0.13225601289E+02 -0.32572285552E+00  0.42556519769E+02  0.10566000000E+00 0.  1.
         23    2    1    0    0    0  0.48815748937E+01 -0.60355446758E+01  0.25686893368E+02  0.98255804207E+02  0.94520521562E+02 0.  0.
         13    1    3    3    0    0  0.45329363288E+02 -0.19261145964E+02  0.26012616224E+02  0.55699284437E+02  0.10566000000E+00 0. -1.
         22    1    1    0    0    0 -0.48815748937E+01  0.60355446758E+01 -0.25686893368E+02  0.26834195793E+02  0.00000000000E+00 0. -1.
</event>
<event>
 5    1  0.1264731E-009  0.9118800E+02  0.7815553E-02  0.1125453E+00
         25   -1    0    0    0    0  0.00000000000E+00  0.00000000000E+00  0.99999998245E-14  0.12509000000E+03  0.12509000000E+03 0.  0.
        -13    1    3    3    0    0 -0.13227247563E+02 -0.37780624903E+02  0.48688014073E+01  0.40324336168E+02  0.10566000000E+00 0. -1.
         23    2    1    0    0    0  0.24252819478E+02 -0.41010088313E+00 -0.14669287917E+02  0.96742946478E+02  0.92496714806E+02 0.  0.
         13    1    3    3    0    0  0.37480067040E+02  0.37370524020E+02 -0.19538089325E+02  0.56418610311E+02  0.10566000000E+00 0.  1.
         22    1    1    0    0    0 -0.24252819478E+02  0.41010088313E+00  0.14669287917E+02  0.28347053522E+02  0.00000000000E+00 0.  1.
</event>
<event>
 5    1  0.1264731E-009  0.9118800E+02  0.7815553E-02  0.1125453E+00
         25   -1    0    0    0    0  0.00000000000E+00  0.00000000000E+00  0.99999998245E-14  0.12509000000E+03  0.12509000000E+03 0.  0.
        -13    1    3    3    0    0 -0.11771417410E+02 -0.41999808960E+02 -0.10819112838E+02  0.44940122242E+02  0.10566000000E+00 0. -1.
         23    2    1    0    0    0  0.22720754151E+02 -0.58433090342E+01 -0.18128139938E+02  0.95441958121E+02  0.90720234692E+02 0.  0.
         13    1    3    3    0    0  0.34492171562E+02  0.36156499926E+02 -0.73090270999E+01  0.50501835878E+02  0.10566000000E+00 0.  1.
         22    1    1    0    0    0 -0.22720754151E+02  0.58433090342E+01  0.18128139938E+02  0.29648041879E+02  0.00000000000E+00 0. -1.
</event>
<event>
 5    1  0.1264731E-009  0.9118800E+02  0.7815553E-02  0.1125453E+00
         25   -1    0    0    0    0  0.00000000000E+00  0.00000000000E+00  0.99999998245E-14  0.12509000000E+03  0.12509000000E+03 0.  0.
        -13    1    3    3    0    0 -0.19534668574E+01  0.17839075115E+02 -0.59369073425E+02  0.62022146666E+02  0.10566000000E+00 0. -1.
         23    2    1    0    0    0  0.12450221172E+01  0.13238951298E+02 -0.25706969669E+02  0.96147501816E+02  0.91687915804E+02 0.  0.
         13    1    3    3    0    0  0.31984889746E+01 -0.46001238165E+01  0.33662103756E+02  0.34125355150E+02  0.10566000000E+00 0.  1.
         22    1    1    0    0    0 -0.12450221172E+01 -0.13238951298E+02  0.25706969669E+02  0.28942498184E+02  0.00000000000E+00 0. -1.
</event>
<event>
 5    1  0.1264731E-009  0.9118800E+02  0.7815553E-02  0.1125453E+00
         25   -1    0    0    0    0  0.00000000000E+00  0.00000000000E+00  0.99999998245E-14  0.12509000000E+03  0.12509000000E+03 0.  0.
        -13    1    3    3    0    0 -0.40102987022E+02  0.30578727811E+00  0.13458343512E+01  0.40126867659E+02  0.10566000000E+00 0. -1.
         23    2    1    0    0    0  0.11428327176E+02  0.21724358356E+02  0.13260874667E+02  0.97190085933E+02  0.93099450045E+02 0.  0.
         13    1    3    3    0    0  0.51531314198E+02  0.21418571078E+02  0.11915040316E+02  0.57063218274E+02  0.10566000000E+00 0.  1.
         22    1    1    0    0    0 -0.11428327176E+02 -0.21724358356E+02 -0.13260874667E+02  0.27899914067E+02  0.00000000000E+00 0.  1.
</event>
<event>
 5    1  0.1264731E-009  0.9118800E+02  0.7815553E-02  0.1125453E+00
         25   -1    0    0    0    0  0.00000000000E+00  0.00000000000E+00  0.99999998245E-14  0.12509000000E+03  0.12509000000E+03 0.  0.
        -13    1    3    3    0    0  0.28221698262E+02 -0.28929902389E+02  0.28344336866E+02  0.49364117549E+02  0.10566000000E+00 0. -1.
         23    2    1    0    0    0  0.18402395519E+02  0.14419584338E+02  0.19416421402E+02  0.94699705605E+02  0.89690937381E+02 0.  0.
         13    1    3    3    0    0 -0.98193027432E+01  0.43349486727E+02 -0.89279154635E+01  0.45335588056E+02  0.10566000000E+00 0.  1.
         22    1    1    0    0    0 -0.18402395519E+02 -0.14419584338E+02 -0.19416421402E+02  0.30390294395E+02  0.00000000000E+00 0. -1.
</event>
<event>
 5    1  0.1264731E-009  0.9118800E+02  0.7815553E-02  0.1125453E+00
         25   -1    0    0    0    0  0.00000000000E+00  0.00000000000E+00  0.99999998245E-14  0.12509000000E+03  0.12509000000E+03 0.  0.
        -13    1    3    3    0    0  0.16324570651E+02  0.35086482787E+02 -0.18317539594E+02  0.42814673912E+02  0.10566000000E+00 0. -1.
         23    2    1    0    0    0  0.24998260524E+02 -0.46905914626E+01  0.15122355084E+02  0.95499455889E+02  0.90799481135E+02 0.  0.
         13    1    3    3    0    0  0.86736898723E+01 -0.39777074250E+02  0.33439894678E+02  0.52684781978E+02  0.10566000000E+00 0.  1.
         22    1    1    0    0    0 -0.24998260524E+02  0.46905914626E+01 -0.15122355084E+02  0.29590544111E+02  0.00000000000E+00 0.  1.
</event>
<event>
 5    1  0.1264731E-009  0.9118800E+02  0.7815553E-02  0.1125453E+00
         25   -1    0    0    0    0  0.00000000000E+00  0.00000000000E+00  0.99999998245E-14  0.12509000000E+03  0.12509000000E+03 0.  0.
        -13    1    3    3    0    0 -0.30281221353E+02 -0.51064586389E+02 -0.10231124770E+02  0.60243102740E+02  0.10566000000E+00 0.  1.
         23    2    1    0    0    0 -0.20027228836E+02 -0.18108037753E+02 -0.13482655707E+02  0.94910985254E+02  0.89985122053E+02 0.  0.
         13    1    3    3    0    0  0.10253992517E+02  0.32956548636E+02 -0.32515309369E+01  0.34667882514E+02  0.10566000000E+00 0. -1.
         22    1    1    0    0    0  0.20027228836E+02  0.18108037753E+02  0.13482655707E+02  0.30179014746E+02  0.00000000000E+00 0.  1.
</event>
<event>
 5    1  0.1264731E-009  0.9118800E+02  0.7815553E-02  0.1125453E+00
         25   -1    0    0    0    0  0.00000000000E+00  0.00000000000E+00  0.99999998245E-14  0.12509000000E+03  0.12509000000E+03 0.  0.
        -13    1    3    3    0    0 -0.15320217537E+02  0.31509610850E+02 -0.60077725047E+01  0.35548124223E+02  0.10566000000E+00 0.  1.
         23    2    1    0    0    0 -0.96479225047E+01 -0.27956179566E+02 -0.89536313919E+00  0.95502298843E+02  0.90803397649E+02 0.  0.
         13    1    3    3    0    0  0.56722950325E+01 -0.59465790416E+02  0.51124093655E+01  0.59954174620E+02  0.10566000000E+00 0. -1.
         22    1    1    0    0    0  0.96479225047E+01  0.27956179566E+02  0.89536313919E+00  0.29587701157E+02  0.00000000000E+00 0. -1.
</event>
<event>
 5    1  0.1264731E-009  0.9118800E+02  0.7815553E-02  0.1125453E+00
         25   -1    0    0    0    0  0.00000000000E+00  0.00000000000E+00  0.99999998245E-14  0.12509000000E+03  0.12509000000E+03 0.  0.
        -13    1    3    3    0    0 -0.79444213758E+00 -0.34501511464E+02  0.20667920743E+01  0.34572651404E+02  0.10566000000E+00 0.  1.
         23    2    1    0    0    0  0.17000695574E+02  0.22080606715E+02  0.12063717613E+02  0.94723733756E+02  0.89724442663E+02 0.  0.
         13    1    3    3    0    0  0.17795137712E+02  0.56582118179E+02  0.99969255391E+01  0.60151082352E+02  0.10566000000E+00 0. -1.
         22    1    1    0    0    0 -0.17000695574E+02 -0.22080606715E+02 -0.12063717613E+02  0.30366266244E+02  0.00000000000E+00 0. -1.
</event>
<event>
 5    1  0.1264731E-009  0.9118800E+02  0.7815553E-02  0.1125453E+00
         25   -1    0    0    0    0  0.00000000000E+00  0.00000000000E+00  0.99999998245E-14  0.12509000000E+03  0.12509000000E+03 0.  0.
        -13    1    3    3    0    0 -0.35274292287E+02  0.66920509623E+01 -0.13764410522E+02  0.38451650205E+02  0.10566000000E+00 0.  1.
         23    2    1    0    0    0  0.43142787736E+01 -0.25434395603E+02  0.13182974556E+02  0.96119112904E+02  0.91649176572E+02 0.  0.
         13    1    3    3    0    0  0.39588571061E+02 -0.32126446565E+02  0.26947385078E+02  0.57667462699E+02  0.10566000000E+00 0. -1.
         22    1    1    0    0    0 -0.43142787736E+01  0.25434395603E+02 -0.13182974556E+02  0.28970887096E+02  0.00000000000E+00 0. -1.
</event>
<event>
 5    1  0.1264731E-009  0.9118800E+02  0.7815553E-02  0.1125453E+00
         25   -1    0    0    0    0  0.00000000000E+00  0.00000000000E+00  0.99999998245E-14  0.12509000000E+03  0.12509000000E+03 0.  0.
        -13    1    3    3    0    0  0.44496565820E+02  0.18607462555E+02 -0.22844210119E+01  0.48284695048E+02  0.10566000000E+00 0. -1.
         23    2    1    0    0    0  0.55834868267E+01  0.83865329931E+01 -0.27524395957E+02  0.95779564425E+02  0.91184556411E+02 0.  0.
         13    1    3    3    0    0 -0.38913078993E+02 -0.10220929561E+02 -0.25239974945E+02  0.47494869377E+02  0.10566000000E+00 0.  1.
         22    1    1    0    0    0 -0.55834868267E+01 -0.83865329931E+01  0.27524395957E+02  0.29310435575E+02  0.00000000000E+00 0.  1.
</event>
<event>
 5    1  0.1264731E-009  0.9118800E+02  0.7815553E-02  0.1125453E+00
         25   -1    0    0    0    0  0.00000000000E+00  0.00000000000E+00  0.99999998245E-14  0.12509000000E+03  0.12509000000E+03 0.  0.
        -13    1    3    3    0    0  0.28356250680E+02 -0.14190167017E+02 -0.17141558357E+02  0.36045554227E+02  0.10566000000E+00 0. -1.
         23    2    1    0    0    0 -0.21888254245E+02 -0.54733424049E+01  0.16500375781E+02  0.97137977678E+02  0.93029410164E+02 0.  0.
         13    1    3    3    0    0 -0.50244504925E+02  0.87168246119E+01  0.33641934138E+02  0.61092423451E+02  0.10566000000E+00 0.  1.
         22    1    1    0    0    0  0.21888254245E+02  0.54733424049E+01 -0.16500375781E+02  0.27952022322E+02  0.00000000000E+00 0.  1.
</event>
<event>
 5    1  0.1264731E-009  0.9118800E+02  0.7815553E-02  0.1125453E+00
         25   -1    0    0    0    0  0.00000000000E+00  0.00000000000E+00  0.99999998245E-14  0.12509000000E+03  0.12509000000E+03 0.  0.
        -13    1    3    3    0    0 -0.20370520822E+02  0.25548170189E+02 -0.20140977093E+02  0.38384075355E+02  0.10566000000E+00 0.  1.
         23    2    1    0    0    0  0.23910748936E+01  0.27385416024E+02  0.24332858253E+02  0.88378064056E+02  0.80392263095E+02 0.  0.
         13    1    3    3    0    0  0.22761595715E+02  0.18372458350E+01  0.44473835346E+02  0.49993988701E+02  0.10566000000E+00 0. -1.
         22    1    1    0    0    0 -0.23910748936E+01 -0.27385416024E+02 -0.24332858253E+02  0.36711935944E+02  0.00000000000E+00 0. -1.
</event>
<event>
 5    1  0.1264731E-009  0.9118800E+02  0.7815553E-02  0.1125453E+00
         25   -1    0    0    0    0  0.00000000000E+00  0.00000000000E+00  0.99999998245E-14  0.12509000000E+03  0.12509000000E+03 0.  0.
        -13    1    3    3    0    0 -0.35109010020E+02 -0.19022521032E+02 -0.27868222955E+02  0.48694434032E+02  0.10566000000E+00 0.  1.
         23    2    1    0    0    0  0.75270241345E+00  0.15226579322E+00 -0.35085419708E+02  0.89996176870E+02  0.82871801171E+02 0.  0.
         13    1    3    3    0    0  0.35861712434E+02  0.19174786825E+02 -0.72171967526E+01  0.41301742838E+02  0.10566000000E+00 0. -1.
         22    1    1    0    0    0 -0.75270241345E+00 -0.15226579322E+00  0.35085419708E+02  0.35093823130E+02  0.00000000000E+00 0.  1.
</event>
<event>
 5    1  0.1264731E-009  0.9118800E+02  0.7815553E-02  0.1125453E+00
         25   -1    0    0    0    0  0.00000000000E+00  0.00000000000E+00  0.99999998245E-14  0.12509000000E+03  0.12509000000E+03 0.  0.
        -13    1    3    3    0    0  0.11792822863E+02  0.40168764310E+02 -0.73782715271E+01  0.42509414863E+02  0.10566000000E+00 0. -1.
         23    2    1    0    0    0 -0.18999735646E+02 -0.80667625842E+00 -0.22193327192E+02  0.95863565851E+02  0.91299719631E+02 0.  0.
         13    1    3    3    0    0 -0.30792558509E+02 -0.40975440568E+02 -0.14815055665E+02  0.53354150988E+02  0.10566000000E+00 0.  1.
         22    1    1    0    0    0  0.18999735646E+02  0.80667625842E+00  0.22193327192E+02  0.29226434149E+02  0.00000000000E+00 0. -1.
</event>
<event>
 5    1  0.1264731E-009  0.9118800E+02  0.7815553E-02  0.1125453E+00
         25   -1    0    0    0    0  0.00000000000E+00  0.00000000000E+00  0.99999998245E-14  0.12509000000E+03  0.12509000000E+03 0.  0.
        -13    1    3    3    0    0 -0.42627851534E+02 -0.41740791391E+02  0.13598553292E+02  0.61191169363E+02  0.10566000000E+00 0.  1.
         23    2    1    0    0    0 -0.21601477451E+02 -0.95576854065E+01  0.85710044399E+01  0.99961623699E+02  0.96751697231E+02 0.  0.
         13    1    3    3    0    0  0.21026374083E+02  0.32183105985E+02 -0.50275488521E+01  0.38770454336E+02  0.10566000000E+00 0. -1.
         22    1    1    0    0    0  0.21601477451E+02  0.95576854065E+01 -0.85710044399E+01  0.25128376301E+02  0.00000000000E+00 0.  1.
</event>
<event>
 5    1  0.1264731E-009  0.9118800E+02  0.7815553E-02  0.1125453E+00
         25   -1    0    0    0    0  0.00000000000E+00  0.00000000000E+00  0.99999998245E-14  0.12509000000E+03  0.12509000000E+03 0.  0.
        -13    1    3    3    0    0  0.27687682441E+02 -0.10991637049E+02 -0.16349065355E+02  0.33981273461E+02  0.10566000000E+00 0. -1.
         23    2    1    0    0    0 -0.15043293188E+02  0.42991074937E+01  0.25144757751E+02  0.95475107842E+02  0.90765931824E+02 0.  0.
         13    1    3    3    0    0 -0.42730975629E+02  0.15290744543E+02  0.41493823106E+02  0.61493834381E+02  0.10566000000E+00 0.  1.
         22    1    1    0    0    0  0.15043293188E+02 -0.42991074937E+01 -0.25144757751E+02  0.29614892158E+02  0.00000000000E+00 0.  1.
</event>
<event>
 5    1  0.1264731E-009  0.9118800E+02  0.7815553E-02  0.1125453E+00
         25   -1    0    0    0    0  0.00000000000E+00  0.00000000000E+00  0.99999998245E-14  0.12509000000E+03  0.12509000000E+03 0.  0.
        -13    1    3    3    0    0 -0.11974143505E+02 -0.38325761664E+01  0.43606631150E+02  0.45383016614E+02  0.10566000000E+00 0.  1.
         23    2    1    0    0    0  0.19950778344E+02  0.18934929981E+02  0.17594190419E+02  0.92438496721E+02  0.86479795383E+02 0.  0.
         13    1    3    3    0    0  0.31924921849E+02  0.22767506147E+02 -0.26012440731E+02  0.47055480106E+02  0.10566000000E+00 0. -1.
         22    1    1    0    0    0 -0.19950778344E+02 -0.18934929981E+02 -0.17594190419E+02  0.32651503279E+02  0.00000000000E+00 0.  1.
</event>
<event>
 5    1  0.1264731E-009  0.9118800E+02  0.7815553E-02  0.1125453E+00
         25   -1    0    0    0    0  0.00000000000E+00  0.00000000000E+00  0.99999998245E-14  0.12509000000E+03  0.12509000000E+03 0.  0.
        -13    1    3    3    0    0 -0.53691126107E+02  0.16788884810E+02  0.14318175659E+02  0.58048471075E+02  0.10566000000E+00 0.  1.
         23    2    1    0    0    0 -0.23293186307E+02 -0.72461332686E+01  0.14325179633E+02  0.96800607161E+02  0.92574660677E+02 0.  0.
         13    1    3    3    0    0  0.30397939801E+02 -0.24035018079E+02  0.70039740276E-02  0.38752136086E+02  0.10566000000E+00 0. -1.
         22    1    1    0    0    0  0.23293186307E+02  0.72461332686E+01 -0.14325179633E+02  0.28289392839E+02  0.00000000000E+00 0.  1.
</event>
<event>
 5    1  0.1264731E-009  0.9118800E+02  0.7815553E-02  0.1125453E+00
         25   -1    0    0    0    0  0.00000000000E+00  0.00000000000E+00  0.99999998245E-14  0.12509000000E+03  0.12509000000E+03 0.  0.
        -13    1    3    3    0    0 -0.22937670672E+02 -0.16385748191E+02 -0.48640487800E+02  0.56218659688E+02  0.10566000000E+00 0. -1.
         23    2    1    0    0    0 -0.25035542150E+02  0.31621817579E+01 -0.13534412938E+02  0.96455089527E+02  0.92106602358E+02 0.  0.
         13    1    3    3    0    0 -0.20978714772E+01  0.19547929949E+02  0.35106074862E+02  0.40236429840E+02  0.10566000000E+00 0.  1.
         22    1    1    0    0    0  0.25035542150E+02 -0.31621817579E+01  0.13534412938E+02  0.28634910473E+02  0.00000000000E+00 0. -1.
</event>
<event>
 5    1  0.1264731E-009  0.9118800E+02  0.7815553E-02  0.1125453E+00
         25   -1    0    0    0    0  0.00000000000E+00  0.00000000000E+00  0.99999998245E-14  0.12509000000E+03  0.12509000000E+03 0.  0.
        -13    1    3    3    0    0  0.57250405576E+02 -0.80468524713E+01 -0.19379899653E+02  0.60975014948E+02  0.10566000000E+00 0.  1.
         23    2    1    0    0    0  0.21246470559E+02 -0.96394591526E+01 -0.29166719007E+00  0.10175726005E+03  0.99046066144E+02 0.  0.
         13    1    3    3    0    0 -0.36003935017E+02 -0.15926066813E+01  0.19088232463E+02  0.40782245099E+02  0.10566000000E+00 0. -1.
         22    1    1    0    0    0 -0.21246470559E+02  0.96394591526E+01  0.29166719007E+00  0.23332739953E+02  0.00000000000E+00 0.  1.
</event>
<event>
 5    1  0.1264731E-009  0.9118800E+02  0.7815553E-02  0.1125453E+00
         25   -1    0    0    0    0  0.00000000000E+00  0.00000000000E+00  0.99999998245E-14  0.12509000000E+03  0.12509000000E+03 0.  0.
        -13    1    3    3    0    0 -0.64382507836E+01  0.31972001294E+02  0.41563763207E+02  0.52831974370E+02  0.10566000000E+00 0.  1.
         23    2    1    0    0    0 -0.14046404902E+02 -0.52115711004E+01  0.28357551876E+02  0.93018007353E+02  0.87314013649E+02 0.  0.
         13    1    3    3    0    0 -0.76081541182E+01 -0.37183572394E+02 -0.13206211332E+02  0.40186032982E+02  0.10566000000E+00 0. -1.
         22    1    1    0    0    0  0.14046404902E+02  0.52115711004E+01 -0.28357551876E+02  0.32071992647E+02  0.00000000000E+00 0.  1.
</event>
<event>
 5    1  0.1264731E-009  0.9118800E+02  0.7815553E-02  0.1125453E+00
         25   -1    0    0    0    0  0.00000000000E+00  0.00000000000E+00  0.99999998245E-14  0.12509000000E+03  0.12509000000E+03 0.  0.
        -13    1    3    3    0    0 -0.30668955251E+02  0.13978279060E+02 -0.17651379572E+02  0.38046806258E+02  0.10566000000E+00 0. -1.
         23    2    1    0    0    0 -0.19734000215E+01 -0.24906370452E+02  0.14605300457E+02  0.96149778885E+02  0.91691022360E+02 0.  0.
         13    1    3    3    0    0  0.28695555229E+02 -0.38884649512E+02  0.32256680029E+02  0.58102972627E+02  0.10566000000E+00 0.  1.
         22    1    1    0    0    0  0.19734000215E+01  0.24906370452E+02 -0.14605300457E+02  0.28940221115E+02  0.00000000000E+00 0.  1.
</event>
<event>
 5    1  0.1264731E-009  0.9118800E+02  0.7815553E-02  0.1125453E+00
         25   -1    0    0    0    0  0.00000000000E+00  0.00000000000E+00  0.99999998245E-14  0.12509000000E+03  0.12509000000E+03 0.  0.
        -13    1    3    3    0    0  0.31779048201E+02 -0.10879580311E+02 -0.33319072414E+02  0.47312206912E+02  0.10566000000E+00 0.  1.
         23    2    1    0    0    0  0.12172276740E+02 -0.14644078101E+02  0.15807940431E+02  0.10034117528E+03  0.97241180222E+02 0.  0.
         13    1    3    3    0    0 -0.19606771461E+02 -0.37644977898E+01  0.49127012845E+02  0.53028968365E+02  0.10566000000E+00 0. -1.
         22    1    1    0    0    0 -0.12172276740E+02  0.14644078101E+02 -0.15807940431E+02  0.24748824722E+02  0.00000000000E+00 0.  1.
</event>
<event>
 5    1  0.1264731E-009  0.9118800E+02  0.7815553E-02  0.1125453E+00
         25   -1    0    0    0    0  0.00000000000E+00  0.00000000000E+00  0.99999998245E-14  0.12509000000E+03  0.12509000000E+03 0.  0.
        -13    1    3    3    0    0 -0.52716527246E+01  0.16036345131E+01  0.60472568330E+02  0.60723180504E+02  0.10566000000E+00 0. -1.
         23    2    1    0    0    0  0.67986559602E+01 -0.46053051721E+01  0.27780367615E+02  0.96121406948E+02  0.91652307611E+02 0.  0.
         13    1    3    3    0    0  0.12070308685E+02 -0.62089396852E+01 -0.32692200715E+02  0.35398226444E+02  0.10566000000E+00 0.  1.
         22    1    1    0    0    0 -0.67986559602E+01  0.46053051721E+01 -0.27780367615E+02  0.28968593052E+02  0.00000000000E+00 0. -1.
</event>
<event>
 5    1  0.1264731E-009  0.9118800E+02  0.7815553E-02  0.1125453E+00
         25   -1    0    0    0    0  0.00000000000E+00  0.00000000000E+00  0.99999998245E-14  0.12509000000E+03  0.12509000000E+03 0.  0.
        -13    1    3    3    0    0 -0.98653212175E+01 -0.23655415150E+01  0.60819309448E+02  0.61659710631E+02  0.10566000000E+00 0.  1.
         23    2    1    0    0    0  0.20596916077E+01  0.19824424228E+01  0.29475088570E+02  0.95476603476E+02  0.90767993024E+02 0.  0.
         13    1    3    3    0    0  0.11925012825E+02  0.43479839378E+01 -0.31344220877E+02  0.33816892845E+02  0.10566000000E+00 0. -1.
         22    1    1    0    0    0 -0.20596916077E+01 -0.19824424228E+01 -0.29475088570E+02  0.29613396524E+02  0.00000000000E+00 0.  1.
</event>
<event>
 5    1  0.1264731E-009  0.9118800E+02  0.7815553E-02  0.1125453E+00
         25   -1    0    0    0    0  0.00000000000E+00  0.00000000000E+00  0.99999998245E-14  0.12509000000E+03  0.12509000000E+03 0.  0.
        -13    1    3    3    0    0  0.22964931536E+02 -0.18318721650E+02 -0.21062460276E+02  0.36146950635E+02  0.10566000000E+00 0.  1.
         23    2    1    0    0    0 -0.17136765955E+02 -0.26110130719E+00  0.21665562834E+02  0.97465128340E+02  0.93468271131E+02 0.  0.
         13    1    3    3    0    0 -0.40101697491E+02  0.18057620342E+02  0.42728023111E+02  0.61318177705E+02  0.10566000000E+00 0. -1.
         22    1    1    0    0    0  0.17136765955E+02  0.26110130719E+00 -0.21665562834E+02  0.27624871660E+02  0.00000000000E+00 0. -1.
</event>
<event>
 5    1  0.1264731E-009  0.9118800E+02  0.7815553E-02  0.1125453E+00
         25   -1    0    0    0    0  0.00000000000E+00  0.00000000000E+00  0.99999998245E-14  0.12509000000E+03  0.12509000000E+03 0.  0.
        -13    1    3    3    0    0 -0.30116461380E+02  0.19187832485E+02 -0.18039627859E+01  0.35755273839E+02  0.10566000000E+00 0.  1.
         23    2    1    0    0    0  0.11431772554E+02 -0.24499203013E+02 -0.92799996979E+01  0.96506529840E+02  0.92176436985E+02 0.  0.
         13    1    3    3    0    0  0.41548233934E+02 -0.43687035498E+02 -0.74760369120E+01  0.60751256000E+02  0.10566000000E+00 0. -1.
         22    1    1    0    0    0 -0.11431772554E+02  0.24499203013E+02  0.92799996979E+01  0.28583470160E+02  0.00000000000E+00 0. -1.
</event>
<event>
 5    1  0.1264731E-009  0.9118800E+02  0.7815553E-02  0.1125453E+00
         25   -1    0    0    0    0  0.00000000000E+00  0.00000000000E+00  0.99999998245E-14  0.12509000000E+03  0.12509000000E+03 0.  0.
        -13    1    3    3    0    0  0.20800632617E+02  0.26032897319E+01  0.33645592635E+02  0.39641903366E+02  0.10566000000E+00 0. -1.
         23    2    1    0    0    0 -0.11086209765E+02 -0.30244397333E+02  0.89499726966E+01  0.91657536311E+02  0.85342687645E+02 0.  0.
         13    1    3    3    0    0 -0.31886842382E+02 -0.32847687065E+02 -0.24695619938E+02  0.52015632946E+02  0.10566000000E+00 0.  1.
         22    1    1    0    0    0  0.11086209765E+02  0.30244397333E+02 -0.89499726966E+01  0.33432463689E+02  0.00000000000E+00 0.  1.
</event>
<event>
 5    1  0.1264731E-009  0.9118800E+02  0.7815553E-02  0.1125453E+00
         25   -1    0    0    0    0  0.00000000000E+00  0.00000000000E+00  0.99999998245E-14  0.12509000000E+03  0.12509000000E+03 0.  0.
        -13    1    3    3    0    0 -0.24989930178E+02 -0.84985083072E+01 -0.40320540245E+02  0.48192098765E+02  0.10566000000E+00 0. -1.
         23    2    1    0    0    0 -0.58293181095E+00  0.24438461325E+02 -0.13779149281E+02  0.97028582424E+02  0.92882197707E+02 0.  0.
         13    1    3    3    0    0  0.24406998367E+02  0.32936969632E+02  0.26541390963E+02  0.48836483659E+02  0.10566000000E+00 0.  1.
         22    1    1    0    0    0  0.58293181095E+00 -0.24438461325E+02  0.13779149281E+02  0.28061417576E+02  0.00000000000E+00 0.  1.
</event>
<event>
 5    1  0.1264731E-009  0.9118800E+02  0.7815553E-02  0.1125453E+00
         25   -1    0    0    0    0  0.00000000000E+00  0.00000000000E+00  0.99999998245E-14  0.12509000000E+03  0.12509000000E+03 0.  0.
        -13    1    3    3    0    0  0.39696776793E+02 -0.26037574114E+02 -0.19042894436E+02  0.51151073753E+02  0.10566000000E+00 0.  1.
         23    2    1    0    0    0  0.22633650619E+02  0.14359950471E+02 -0.12586920657E+02  0.95477149926E+02  0.90768746099E+02 0.  0.
         13    1    3    3    0    0 -0.17063126174E+02  0.40397524585E+02  0.64559737786E+01  0.44326076173E+02  0.10566000000E+00 0. -1.
         22    1    1    0    0    0 -0.22633650619E+02 -0.14359950471E+02  0.12586920657E+02  0.29612850074E+02  0.00000000000E+00 0. -1.
</event>
<event>
 5    1  0.1264731E-009  0.9118800E+02  0.7815553E-02  0.1125453E+00
         25   -1    0    0    0    0  0.00000000000E+00  0.00000000000E+00  0.99999998245E-14  0.12509000000E+03  0.12509000000E+03 0.  0.
        -13    1    3    3    0    0 -0.32692103714E+02 -0.45560335892E+01 -0.33309259805E+02  0.46894019236E+02  0.10566000000E+00 0.  1.
         23    2    1    0    0    0  0.15259210274E+02 -0.51084010230E+01 -0.24693023575E+02  0.95616542916E+02  0.90960643175E+02 0.  0.
         13    1    3    3    0    0  0.47951313988E+02 -0.55236743380E+00  0.86162362306E+01  0.48722523680E+02  0.10566000000E+00 0. -1.
         22    1    1    0    0    0 -0.15259210274E+02  0.51084010230E+01  0.24693023575E+02  0.29473457084E+02  0.00000000000E+00 0.  1.
</event>
<event>
 5    1  0.1264731E-009  0.9118800E+02  0.7815553E-02  0.1125453E+00
         25   -1    0    0    0    0  0.00000000000E+00  0.00000000000E+00  0.99999998245E-14  0.12509000000E+03  0.12509000000E+03 0.  0.
        -13    1    3    3    0    0 -0.11322482994E+02  0.32475009341E+02  0.42310456465E+01  0.34651663223E+02  0.10566000000E+00 0. -1.
         23    2    1    0    0    0  0.21517858518E+02 -0.18793699407E+02 -0.45292042295E+01  0.96163626851E+02  0.91709912580E+02 0.  0.
         13    1    3    3    0    0  0.32840341512E+02 -0.51268708748E+02 -0.87602498759E+01  0.61511963627E+02  0.10566000000E+00 0.  1.
         22    1    1    0    0    0 -0.21517858518E+02  0.18793699407E+02  0.45292042295E+01  0.28926373149E+02  0.00000000000E+00 0.  1.
</event>
<event>
 5    1  0.1264731E-009  0.9118800E+02  0.7815553E-02  0.1125453E+00
         25   -1    0    0    0    0  0.00000000000E+00  0.00000000000E+00  0.99999998245E-14  0.12509000000E+03  0.12509000000E+03 0.  0.
        -13    1    3    3    0    0  0.56175058629E+02  0.18666143783E+02  0.13892864144E+02  0.60803659214E+02  0.10566000000E+00 0.  1.
         23    2    1    0    0    0  0.41242976027E+02  0.54587043504E+01  0.33561807674E+01  0.83352193708E+02  0.72149454065E+02 0.  0.
         13    1    3    3    0    0 -0.14932082602E+02 -0.13207439432E+02 -0.10536683377E+02  0.22548534494E+02  0.10566000000E+00 0. -1.
         22    1    1    0    0    0 -0.41242976027E+02 -0.54587043504E+01 -0.33561807674E+01  0.41737806292E+02  0.00000000000E+00 0.  1.
</event>
<event>
 5    1  0.1264731E-009  0.9118800E+02  0.7815553E-02  0.1125453E+00
         25   -1    0    0    0    0  0.00000000000E+00  0.00000000000E+00  0.99999998245E-14  0.12509000000E+03  0.12509000000E+03 0.  0.
        -13    1    3    3    0    0 -0.16066495603E+02 -0.26210180819E+02 -0.31245637504E+02  0.43833855484E+02  0.10566000000E+00 0. -1.
         23    2    1    0    0    0 -0.51114507100E+01  0.22354325520E+02 -0.19507359302E+02  0.94983856694E+02  0.90086365049E+02 0.  0.
         13    1    3    3    0    0  0.10955044892E+02  0.48564506340E+02  0.11738278202E+02  0.51150001210E+02  0.10566000000E+00 0.  1.
         22    1    1    0    0    0  0.51114507100E+01 -0.22354325520E+02  0.19507359302E+02  0.30106143306E+02  0.00000000000E+00 0.  1.
</event>
<event>
 5    1  0.1264731E-009  0.9118800E+02  0.7815553E-02  0.1125453E+00
         25   -1    0    0    0    0  0.00000000000E+00  0.00000000000E+00  0.99999998245E-14  0.12509000000E+03  0.12509000000E+03 0.  0.
        -13    1    3    3    0    0  0.31360657117E+02  0.21043789869E+02 -0.46098158126E+02  0.59593483314E+02  0.10566000000E+00 0.  1.
         23    2    1    0    0    0  0.21049276799E+02 -0.21346760733E+01 -0.20765606005E+02  0.95444776296E+02  0.90724120463E+02 0.  0.
         13    1    3    3    0    0 -0.10311380318E+02 -0.23178465942E+02  0.25332552121E+02  0.35851292982E+02  0.10566000000E+00 0. -1.
         22    1    1    0    0    0 -0.21049276799E+02  0.21346760733E+01  0.20765606005E+02  0.29645223704E+02  0.00000000000E+00 0.  1.
</event>
<event>
 5    1  0.1264731E-009  0.9118800E+02  0.7815553E-02  0.1125453E+00
         25   -1    0    0    0    0  0.00000000000E+00  0.00000000000E+00  0.99999998245E-14  0.12509000000E+03  0.12509000000E+03 0.  0.
        -13    1    3    3    0    0 -0.27739195025E+02  0.89540479347E+01  0.18922682990E+02  0.34752223103E+02  0.10566000000E+00 0.  1.
         23    2    1    0    0    0  0.13876549899E+02  0.13576943305E+02 -0.23668027036E+02  0.94478441229E+02  0.89381812058E+02 0.  0.
         13    1    3    3    0    0  0.41615744923E+02  0.46228953708E+01 -0.42590710026E+02  0.59726218126E+02  0.10566000000E+00 0. -1.
         22    1    1    0    0    0 -0.13876549899E+02 -0.13576943305E+02  0.23668027036E+02  0.30611558771E+02  0.00000000000E+00 0. -1.
</event>
<event>
 5    1  0.1264731E-009  0.9118800E+02  0.7815553E-02  0.1125453E+00
         25   -1    0    0    0    0  0.00000000000E+00  0.00000000000E+00  0.99999998245E-14  0.12509000000E+03  0.12509000000E+03 0.  0.
        -13    1    3    3    0    0 -0.30236415875E+01 -0.20679083668E+02 -0.38450481162E+02  0.43763198871E+02  0.10566000000E+00 0.  1.
         23    2    1    0    0    0  0.27735460025E+02 -0.39013385363E+01  0.16730013342E+01  0.97031576690E+02  0.92886230176E+02 0.  0.
         13    1    3    3    0    0  0.30759101613E+02  0.16777745131E+02  0.40123482497E+02  0.53268377819E+02  0.10566000000E+00 0. -1.
         22    1    1    0    0    0 -0.27735460025E+02  0.39013385363E+01 -0.16730013342E+01  0.28058423310E+02  0.00000000000E+00 0. -1.
</event>
<event>
 5    1  0.1264731E-009  0.9118800E+02  0.7815553E-02  0.1125453E+00
         25   -1    0    0    0    0  0.00000000000E+00  0.00000000000E+00  0.99999998245E-14  0.12509000000E+03  0.12509000000E+03 0.  0.
        -13    1    3    3    0    0 -0.22500476898E+02 -0.26269405329E+02  0.51484861518E+02  0.62024634191E+02  0.10566000000E+00 0. -1.
         23    2    1    0    0    0 -0.84400199469E+01 -0.17589911525E+02  0.23256074927E+02  0.94734045969E+02  0.89738818359E+02 0.  0.
         13    1    3    3    0    0  0.14060456951E+02  0.86794938038E+01 -0.28228786591E+02  0.32709411777E+02  0.10566000000E+00 0.  1.
         22    1    1    0    0    0  0.84400199469E+01  0.17589911525E+02 -0.23256074927E+02  0.30355954031E+02  0.00000000000E+00 0. -1.
</event>
<event>
 5    1  0.1264731E-009  0.9118800E+02  0.7815553E-02  0.1125453E+00
         25   -1    0    0    0    0  0.00000000000E+00  0.00000000000E+00  0.99999998245E-14  0.12509000000E+03  0.12509000000E+03 0.  0.
        -13    1    3    3    0    0  0.22743803263E+02 -0.52822736518E+02 -0.72605962423E+01  0.57967659104E+02  0.10566000000E+00 0.  1.
         23    2    1    0    0    0 -0.12938380235E+01 -0.26558420998E+02  0.88762056151E+01  0.97057683491E+02  0.92921381586E+02 0.  0.
         13    1    3    3    0    0 -0.24037641287E+02  0.26264315521E+02  0.16136801857E+02  0.39090024388E+02  0.10566000000E+00 0. -1.
         22    1    1    0    0    0  0.12938380235E+01  0.26558420998E+02 -0.88762056151E+01  0.28032316509E+02  0.00000000000E+00 0.  1.
</event>
<event>
 5    1  0.1264731E-009  0.9118800E+02  0.7815553E-02  0.1125453E+00
         25   -1    0    0    0    0  0.00000000000E+00  0.00000000000E+00  0.99999998245E-14  0.12509000000E+03  0.12509000000E+03 0.  0.
        -13    1    3    3    0    0 -0.59827498248E+01 -0.40737648719E+02  0.21422650455E+02  0.46414334372E+02  0.10566000000E+00 0.  1.
         23    2    1    0    0    0  0.60191252828E+01  0.76267125733E+01  0.26845988663E+02  0.96539978614E+02  0.92221818187E+02 0.  0.
         13    1    3    3    0    0  0.12001875108E+02  0.48364361292E+02  0.54233382077E+01  0.50125644242E+02  0.10566000000E+00 0. -1.
         22    1    1    0    0    0 -0.60191252828E+01 -0.76267125733E+01 -0.26845988663E+02  0.28550021386E+02  0.00000000000E+00 0.  1.
</event>
<event>
 5    1  0.1264731E-009  0.9118800E+02  0.7815553E-02  0.1125453E+00
         25   -1    0    0    0    0  0.00000000000E+00  0.00000000000E+00  0.99999998245E-14  0.12509000000E+03  0.12509000000E+03 0.  0.
        -13    1    3    3    0    0 -0.10049727158E+02  0.40985845555E+02  0.35377323311E+02  0.55067256337E+02  0.10566000000E+00 0. -1.
         23    2    1    0    0    0 -0.19763170427E+02  0.25842342771E+02  0.26057416791E+01  0.92452606187E+02  0.86500201825E+02 0.  0.
         13    1    3    3    0    0 -0.97134432693E+01 -0.15143502784E+02 -0.32771581631E+02  0.37385349850E+02  0.10566000000E+00 0.  1.
         22    1    1    0    0    0  0.19763170427E+02 -0.25842342771E+02 -0.26057416791E+01  0.32637393813E+02  0.00000000000E+00 0. -1.
</event>
<event>
 5    1  0.1264731E-009  0.9118800E+02  0.7815553E-02  0.1125453E+00
         25   -1    0    0    0    0  0.00000000000E+00  0.00000000000E+00  0.99999998245E-14  0.12509000000E+03  0.12509000000E+03 0.  0.
        -13    1    3    3    0    0 -0.40979466997E+02  0.24543556634E+02 -0.14050020106E+02  0.49790733240E+02  0.10566000000E+00 0.  1.
         23    2    1    0    0    0 -0.21755356087E+02  0.11640091939E+01  0.20116602893E+02  0.95436532279E+02  0.90712752938E+02 0.  0.
         13    1    3    3    0    0  0.19224110909E+02 -0.23379547440E+02  0.34166622999E+02  0.45645799039E+02  0.10566000000E+00 0. -1.
         22    1    1    0    0    0  0.21755356087E+02 -0.11640091939E+01 -0.20116602893E+02  0.29653467721E+02  0.00000000000E+00 0. -1.
</event>
<event>
 5    1  0.1264731E-009  0.9118800E+02  0.7815553E-02  0.1125453E+00
         25   -1    0    0    0    0  0.00000000000E+00  0.00000000000E+00  0.99999998245E-14  0.12509000000E+03  0.12509000000E+03 0.  0.
        -13    1    3    3    0    0 -0.16994463942E+02 -0.12358280992E+02  0.35729585989E+02  0.41450613900E+02  0.10566000000E+00 0. -1.
         23    2    1    0    0    0 -0.27046266606E+02  0.88222881750E+01 -0.11677182082E+02  0.94337928731E+02  0.89184947777E+02 0.  0.
         13    1    3    3    0    0 -0.10051802664E+02  0.21180569167E+02 -0.47406768071E+02  0.52887314831E+02  0.10566000000E+00 0.  1.
         22    1    1    0    0    0  0.27046266606E+02 -0.88222881750E+01  0.11677182082E+02  0.30752071269E+02  0.00000000000E+00 0.  1.
</event>
<event>
 5    1  0.1264731E-009  0.9118800E+02  0.7815553E-02  0.1125453E+00
         25   -1    0    0    0    0  0.00000000000E+00  0.00000000000E+00  0.99999998245E-14  0.12509000000E+03  0.12509000000E+03 0.  0.
        -13    1    3    3    0    0 -0.99182091625E+01  0.45421960063E+02  0.17590960898E+02  0.49708936805E+02  0.10566000000E+00 0. -1.
         23    2    1    0    0    0 -0.28169939904E+02  0.49943828015E+01  0.34057018522E+01  0.96278749092E+02  0.91866802208E+02 0.  0.
         13    1    3    3    0    0 -0.18251730742E+02 -0.40427577261E+02 -0.14185259045E+02  0.46569812287E+02  0.10566000000E+00 0.  1.
         22    1    1    0    0    0  0.28169939904E+02 -0.49943828015E+01 -0.34057018522E+01  0.28811250908E+02  0.00000000000E+00 0. -1.
</event>
<event>
 5    1  0.1264731E-009  0.9118800E+02  0.7815553E-02  0.1125453E+00
         25   -1    0    0    0    0  0.00000000000E+00  0.00000000000E+00  0.99999998245E-14  0.12509000000E+03  0.12509000000E+03 0.  0.
        -13    1    3    3    0    0  0.51247489553E+02 -0.30654200014E+02 -0.11289980808E+02  0.60773843013E+02  0.10566000000E+00 0. -1.
         23    2    1    0    0    0  0.17968610391E+02 -0.21778502147E+02 -0.96390488947E+01  0.95255701303E+02  0.90463049098E+02 0.  0.
         13    1    3    3    0    0 -0.33278879162E+02  0.88756978670E+01  0.16509319130E+01  0.34481858290E+02  0.10566000000E+00 0.  1.
         22    1    1    0    0    0 -0.17968610391E+02  0.21778502147E+02  0.96390488947E+01  0.29834298697E+02  0.00000000000E+00 0. -1.
</event>
<event>
 5    1  0.1264731E-009  0.9118800E+02  0.7815553E-02  0.1125453E+00
         25   -1    0    0    0    0  0.00000000000E+00  0.00000000000E+00  0.99999998245E-14  0.12509000000E+03  0.12509000000E+03 0.  0.
        -13    1    3    3    0    0  0.31276435823E+02  0.25359657227E+02 -0.69667945637E+01  0.40864104578E+02  0.10566000000E+00 0. -1.
         23    2    1    0    0    0 -0.17880508650E+02  0.29230025716E+02 -0.67098934654E+01  0.90173962664E+02  0.83139725037E+02 0.  0.
         13    1    3    3    0    0 -0.49156944474E+02  0.38703684887E+01  0.25690109823E+00  0.49309858086E+02  0.10566000000E+00 0.  1.
         22    1    1    0    0    0  0.17880508650E+02 -0.29230025716E+02  0.67098934654E+01  0.34916037336E+02  0.00000000000E+00 0.  1.
</event>
<event>
 5    1  0.1264731E-009  0.9118800E+02  0.7815553E-02  0.1125453E+00
         25   -1    0    0    0    0  0.00000000000E+00  0.00000000000E+00  0.99999998245E-14  0.12509000000E+03  0.12509000000E+03 0.  0.
        -13    1    3    3    0    0 -0.45527980006E+02 -0.12370374596E+02  0.10274292564E+02  0.48284525293E+02  0.10566000000E+00 0. -1.
         23    2    1    0    0    0 -0.10718461958E+02 -0.19201634899E+02 -0.20334789193E+02  0.95138508199E+02  0.90300852052E+02 0.  0.
         13    1    3    3    0    0  0.34809518048E+02 -0.68312603033E+01 -0.30609081757E+02  0.46853982906E+02  0.10566000000E+00 0.  1.
         22    1    1    0    0    0  0.10718461958E+02  0.19201634899E+02  0.20334789193E+02  0.29951491801E+02  0.00000000000E+00 0. -1.
</event>
<event>
 5    1  0.1264731E-009  0.9118800E+02  0.7815553E-02  0.1125453E+00
         25   -1    0    0    0    0  0.00000000000E+00  0.00000000000E+00  0.99999998245E-14  0.12509000000E+03  0.12509000000E+03 0.  0.
        -13    1    3    3    0    0  0.19253195729E+02  0.25197041067E+02  0.17251797629E+02  0.36100029222E+02  0.10566000000E+00 0.  1.
         23    2    1    0    0    0 -0.91215682636E+01 -0.15328970034E+02  0.32626127866E+02  0.87906071356E+02  0.79654458958E+02 0.  0.
         13    1    3    3    0    0 -0.28374763992E+02 -0.40526011101E+02  0.15374330236E+02  0.51806042134E+02  0.10566000000E+00 0. -1.
         22    1    1    0    0    0  0.91215682636E+01  0.15328970034E+02 -0.32626127866E+02  0.37183928644E+02  0.00000000000E+00 0. -1.
</event>
<event>
 5    1  0.1264731E-009  0.9118800E+02  0.7815553E-02  0.1125453E+00
         25   -1    0    0    0    0  0.00000000000E+00  0.00000000000E+00  0.99999998245E-14  0.12509000000E+03  0.12509000000E+03 0.  0.
        -13    1    3    3    0    0  0.11629466315E+02 -0.22846683556E+02  0.54753146400E+02  0.60457701255E+02  0.10566000000E+00 0. -1.
         23    2    1    0    0    0  0.12412603091E+02 -0.17616494009E+02  0.19748989096E+02  0.95859260239E+02  0.91293820309E+02 0.  0.
         13    1    3    3    0    0  0.78313677547E+00  0.52301895479E+01 -0.35004157304E+02  0.35401558984E+02  0.10566000000E+00 0.  1.
         22    1    1    0    0    0 -0.12412603091E+02  0.17616494009E+02 -0.19748989096E+02  0.29230739761E+02  0.00000000000E+00 0. -1.
</event>
<event>
 5    1  0.1264731E-009  0.9118800E+02  0.7815553E-02  0.1125453E+00
         25   -1    0    0    0    0  0.00000000000E+00  0.00000000000E+00  0.99999998245E-14  0.12509000000E+03  0.12509000000E+03 0.  0.
        -13    1    3    3    0    0  0.10045042752E+02 -0.96404583377E+01  0.32422062139E+02  0.35285161162E+02  0.10566000000E+00 0.  1.
         23    2    1    0    0    0 -0.58992705050E+01 -0.93966004895E+01 -0.26518105524E+02  0.96344436624E+02  0.91956201828E+02 0.  0.
         13    1    3    3    0    0 -0.15944313257E+02  0.24385784818E+00 -0.58940167662E+02  0.61059275462E+02  0.10566000000E+00 0. -1.
         22    1    1    0    0    0  0.58992705050E+01  0.93966004895E+01  0.26518105524E+02  0.28745563376E+02  0.00000000000E+00 0. -1.
</event>
<event>
 5    1  0.1264731E-009  0.9118800E+02  0.7815553E-02  0.1125453E+00
         25   -1    0    0    0    0  0.00000000000E+00  0.00000000000E+00  0.99999998245E-14  0.12509000000E+03  0.12509000000E+03 0.  0.
        -13    1    3    3    0    0  0.29056189819E+02 -0.34213861473E+02  0.85123083405E+01  0.45687208725E+02  0.10566000000E+00 0.  1.
         23    2    1    0    0    0 -0.37300144758E+01  0.11494696365E+01  0.27352509379E+02  0.97460413363E+02  0.93461960792E+02 0.  0.
         13    1    3    3    0    0 -0.32786204295E+02  0.35363331110E+02  0.18840201038E+02  0.51773204638E+02  0.10566000000E+00 0. -1.
         22    1    1    0    0    0  0.37300144758E+01 -0.11494696365E+01 -0.27352509379E+02  0.27629586637E+02  0.00000000000E+00 0. -1.
</event>
<event>
 5    1  0.1264731E-009  0.9118800E+02  0.7815553E-02  0.1125453E+00
         25   -1    0    0    0    0  0.00000000000E+00  0.00000000000E+00  0.99999998245E-14  0.12509000000E+03  0.12509000000E+03 0.  0.
        -13    1    3    3    0    0 -0.11971097843E+02 -0.33188539978E+01  0.41421658405E+02  0.43244501668E+02  0.10566000000E+00 0. -1.
         23    2    1    0    0    0 -0.24806035893E+02  0.15194689608E+02 -0.56750645984E+01  0.95451775235E+02  0.90733770055E+02 0.  0.
         13    1    3    3    0    0 -0.12834938050E+02  0.18513543606E+02 -0.47096723004E+02  0.52207273567E+02  0.10566000000E+00 0.  1.
         22    1    1    0    0    0  0.24806035893E+02 -0.15194689608E+02  0.56750645984E+01  0.29638224765E+02  0.00000000000E+00 0. -1.
</event>
<event>
 5    1  0.1264731E-009  0.9118800E+02  0.7815553E-02  0.1125453E+00
         25   -1    0    0    0    0  0.00000000000E+00  0.00000000000E+00  0.99999998245E-14  0.12509000000E+03  0.12509000000E+03 0.  0.
        -13    1    3    3    0    0  0.23026713038E+02 -0.11477943480E+02 -0.22061155970E+02  0.33892159368E+02  0.10566000000E+00 0. -1.
         23    2    1    0    0    0 -0.89847761831E+01  0.17168924104E+02  0.22234066417E+02  0.95596748783E+02  0.90933418007E+02 0.  0.
         13    1    3    3    0    0 -0.32011489221E+02  0.28646867584E+02  0.44295222387E+02  0.61704589415E+02  0.10566000000E+00 0.  1.
         22    1    1    0    0    0  0.89847761831E+01 -0.17168924104E+02 -0.22234066417E+02  0.29493251217E+02  0.00000000000E+00 0.  1.
</event>
<event>
 5    1  0.1264731E-009  0.9118800E+02  0.7815553E-02  0.1125453E+00
         25   -1    0    0    0    0  0.00000000000E+00  0.00000000000E+00  0.99999998245E-14  0.12509000000E+03  0.12509000000E+03 0.  0.
        -13    1    3    3    0    0 -0.17910248610E+02 -0.28704658902E+02  0.10517933709E+02  0.35431236805E+02  0.10566000000E+00 0.  1.
         23    2    1    0    0    0  0.20433409710E+02  0.71131077798E+01 -0.19569986081E+02  0.95916297975E+02  0.91371939496E+02 0.  0.
         13    1    3    3    0    0  0.38343658320E+02  0.35817766682E+02 -0.30087919790E+02  0.60485061170E+02  0.10566000000E+00 0. -1.
         22    1    1    0    0    0 -0.20433409710E+02 -0.71131077798E+01  0.19569986081E+02  0.29173702025E+02  0.00000000000E+00 0. -1.
</event>
<event>
 5    1  0.1264731E-009  0.9118800E+02  0.7815553E-02  0.1125453E+00
         25   -1    0    0    0    0  0.00000000000E+00  0.00000000000E+00  0.99999998245E-14  0.12509000000E+03  0.12509000000E+03 0.  0.
        -13    1    3    3    0    0  0.42530674889E+02  0.13561316706E+01 -0.97379612647E+01  0.43652450713E+02  0.10566000000E+00 0.  1.
         23    2    1    0    0    0  0.84399154117E+01  0.31029256581E+02 -0.15814217216E+02  0.89255151008E+02  0.81745615045E+02 0.  0.
         13    1    3    3    0    0 -0.34090759477E+02  0.29673124911E+02 -0.60762559514E+01  0.45602700294E+02  0.10566000000E+00 0. -1.
         22    1    1    0    0    0 -0.84399154117E+01 -0.31029256581E+02  0.15814217216E+02  0.35834848992E+02  0.00000000000E+00 0. -1.
</event>
<event>
 5    1  0.1264731E-009  0.9118800E+02  0.7815553E-02  0.1125453E+00
         25   -1    0    0    0    0  0.00000000000E+00  0.00000000000E+00  0.99999998245E-14  0.12509000000E+03  0.12509000000E+03 0.  0.
        -13    1    3    3    0    0  0.34865395305E+02 -0.23437622704E+02 -0.44097668944E+02  0.60905939925E+02  0.10566000000E+00 0. -1.
         23    2    1    0    0    0  0.22318944299E+02 -0.11220211840E+02 -0.12212198318E+02  0.97284133423E+02  0.93225728207E+02 0.  0.
         13    1    3    3    0    0 -0.12546451005E+02  0.12217410864E+02  0.31885470627E+02  0.36378193498E+02  0.10566000000E+00 0.  1.
         22    1    1    0    0    0 -0.22318944299E+02  0.11220211840E+02  0.12212198318E+02  0.27805866577E+02  0.00000000000E+00 0. -1.
</event>
<event>
 5    1  0.1264731E-009  0.9118800E+02  0.7815553E-02  0.1125453E+00
         25   -1    0    0    0    0  0.00000000000E+00  0.00000000000E+00  0.99999998245E-14  0.12509000000E+03  0.12509000000E+03 0.  0.
        -13    1    3    3    0    0 -0.17237850132E+02  0.24314571640E+02  0.87132800316E+01  0.31052766127E+02  0.10566000000E+00 0.  1.
         23    2    1    0    0    0 -0.74035140957E+01 -0.33571802193E+02  0.80923655686E+01  0.89771954981E+02  0.82532657761E+02 0.  0.
         13    1    3    3    0    0  0.98343360368E+01 -0.57886373833E+02 -0.62091446300E+00  0.58719188854E+02  0.10566000000E+00 0. -1.
         22    1    1    0    0    0  0.74035140957E+01  0.33571802193E+02 -0.80923655686E+01  0.35318045019E+02  0.00000000000E+00 0. -1.
</event>
<event>
 5    1  0.1264731E-009  0.9118800E+02  0.7815553E-02  0.1125453E+00
         25   -1    0    0    0    0  0.00000000000E+00  0.00000000000E+00  0.99999998245E-14  0.12509000000E+03  0.12509000000E+03 0.  0.
        -13    1    3    3    0    0  0.46460228166E+02 -0.21754270424E+02  0.26683442358E+02  0.57825758474E+02  0.10566000000E+00 0.  1.
         23    2    1    0    0    0  0.10396160096E+02 -0.19371628187E+02  0.21502059355E+02  0.94338110955E+02  0.89185203361E+02 0.  0.
         13    1    3    3    0    0 -0.36064068071E+02  0.23826422367E+01 -0.51813830034E+01  0.36512352481E+02  0.10566000000E+00 0. -1.
         22    1    1    0    0    0 -0.10396160096E+02  0.19371628187E+02 -0.21502059355E+02  0.30751889045E+02  0.00000000000E+00 0.  1.
</event>
<event>
 5    1  0.1264731E-009  0.9118800E+02  0.7815553E-02  0.1125453E+00
         25   -1    0    0    0    0  0.00000000000E+00  0.00000000000E+00  0.99999998245E-14  0.12509000000E+03  0.12509000000E+03 0.  0.
        -13    1    3    3    0    0 -0.30435592029E+02 -0.85847927372E+01 -0.50688385810E+02  0.59744016843E+02  0.10566000000E+00 0. -1.
         23    2    1    0    0    0 -0.20773538645E+02 -0.11886433942E+02 -0.15047256166E+02  0.96819040734E+02  0.92599565392E+02 0.  0.
         13    1    3    3    0    0  0.96620533834E+01 -0.33016412048E+01  0.35641129643E+02  0.37075023891E+02  0.10566000000E+00 0.  1.
         22    1    1    0    0    0  0.20773538645E+02  0.11886433942E+02  0.15047256166E+02  0.28270959266E+02  0.00000000000E+00 0. -1.
</event>
<event>
 5    1  0.1264731E-009  0.9118800E+02  0.7815553E-02  0.1125453E+00
         25   -1    0    0    0    0  0.00000000000E+00  0.00000000000E+00  0.99999998245E-14  0.12509000000E+03  0.12509000000E+03 0.  0.
        -13    1    3    3    0    0 -0.43660162757E+02 -0.20428200364E+02  0.19757065234E+02  0.52094855531E+02  0.10566000000E+00 0.  1.
         23    2    1    0    0    0 -0.24985348462E+02  0.63263498465E+01 -0.11122854375E+02  0.97018515722E+02  0.92868639289E+02 0.  0.
         13    1    3    3    0    0  0.18674814295E+02  0.26754550210E+02 -0.30879919609E+02  0.44923660192E+02  0.10566000000E+00 0. -1.
         22    1    1    0    0    0  0.24985348462E+02 -0.63263498465E+01  0.11122854375E+02  0.28071484278E+02  0.00000000000E+00 0.  1.
</event>
<event>
 5    1  0.1264731E-009  0.9118800E+02  0.7815553E-02  0.1125453E+00
         25   -1    0    0    0    0  0.00000000000E+00  0.00000000000E+00  0.99999998245E-14  0.12509000000E+03  0.12509000000E+03 0.  0.
        -13    1    3    3    0    0 -0.16442749661E+02  0.14990201193E+02 -0.51090151113E+02  0.55725082799E+02  0.10566000000E+00 0.  1.
         23    2    1    0    0    0  0.12656468893E+02 -0.10515785645E+01 -0.20975454217E+02  0.10056936171E+03  0.97534275072E+02 0.  0.
         13    1    3    3    0    0  0.29099218554E+02 -0.16041779758E+02  0.30114696896E+02  0.44844278915E+02  0.10566000000E+00 0. -1.
         22    1    1    0    0    0 -0.12656468893E+02  0.10515785645E+01  0.20975454217E+02  0.24520638285E+02  0.00000000000E+00 0.  1.
</event>
<event>
 5    1  0.1264731E-009  0.9118800E+02  0.7815553E-02  0.1125453E+00
         25   -1    0    0    0    0  0.00000000000E+00  0.00000000000E+00  0.99999998245E-14  0.12509000000E+03  0.12509000000E+03 0.  0.
        -13    1    3    3    0    0 -0.72645664587E+01 -0.29948001083E+02 -0.34591912723E+02  0.46327834879E+02  0.10566000000E+00 0.  1.
         23    2    1    0    0    0  0.10867776968E+02 -0.23580500582E+02  0.11820316798E+02  0.96561619865E+02  0.92251167785E+02 0.  0.
         13    1    3    3    0    0  0.18132343426E+02  0.63675005007E+01  0.46412229522E+02  0.50233784985E+02  0.10566000000E+00 0. -1.
         22    1    1    0    0    0 -0.10867776968E+02  0.23580500582E+02 -0.11820316798E+02  0.28528380135E+02  0.00000000000E+00 0. -1.
</event>
<event>
 5    1  0.1264731E-009  0.9118800E+02  0.7815553E-02  0.1125453E+00
         25   -1    0    0    0    0  0.00000000000E+00  0.00000000000E+00  0.99999998245E-14  0.12509000000E+03  0.12509000000E+03 0.  0.
        -13    1    3    3    0    0 -0.43024021252E+01 -0.48703029669E+02  0.36127588900E+02  0.60792348258E+02  0.10566000000E+00 0. -1.
         23    2    1    0    0    0  0.58812760645E+01 -0.18482835351E+02  0.22254511677E+02  0.95569364832E+02  0.90895740239E+02 0.  0.
         13    1    3    3    0    0  0.10183678190E+02  0.30220194318E+02 -0.13873077223E+02  0.34777016574E+02  0.10566000000E+00 0.  1.
         22    1    1    0    0    0 -0.58812760645E+01  0.18482835351E+02 -0.22254511677E+02  0.29520635168E+02  0.00000000000E+00 0. -1.
</event>
<event>
 5    1  0.1264731E-009  0.9118800E+02  0.7815553E-02  0.1125453E+00
         25   -1    0    0    0    0  0.00000000000E+00  0.00000000000E+00  0.99999998245E-14  0.12509000000E+03  0.12509000000E+03 0.  0.
        -13    1    3    3    0    0 -0.38640236147E+02 -0.22776145806E+02 -0.26408664564E+02  0.52050450481E+02  0.10566000000E+00 0.  1.
         23    2    1    0    0    0 -0.15411076581E+02  0.14121845475E+02 -0.20073354101E+02  0.96109535099E+02  0.91636103099E+02 0.  0.
         13    1    3    3    0    0  0.23229159565E+02  0.36897991280E+02  0.63353104631E+01  0.44059084618E+02  0.10566000000E+00 0. -1.
         22    1    1    0    0    0  0.15411076581E+02 -0.14121845475E+02  0.20073354101E+02  0.28980464901E+02  0.00000000000E+00 0.  1.
</event>
<event>
 5    1  0.1264731E-009  0.9118800E+02  0.7815553E-02  0.1125453E+00
         25   -1    0    0    0    0  0.00000000000E+00  0.00000000000E+00  0.99999998245E-14  0.12509000000E+03  0.12509000000E+03 0.  0.
        -13    1    3    3    0    0  0.10445510216E+02 -0.44482734825E+02 -0.10932570215E+02  0.46982492875E+02  0.10566000000E+00 0. -1.
         23    2    1    0    0    0 -0.24165019274E+02 -0.12448316543E+02  0.62892973750E+01  0.97189032226E+02  0.93098034256E+02 0.  0.
         13    1    3    3    0    0 -0.34610529490E+02  0.32034418283E+02  0.17221867590E+02  0.50206539351E+02  0.10566000000E+00 0.  1.
         22    1    1    0    0    0  0.24165019274E+02  0.12448316543E+02 -0.62892973750E+01  0.27900967774E+02  0.00000000000E+00 0. -1.
</event>
<event>
 5    1  0.1264731E-009  0.9118800E+02  0.7815553E-02  0.1125453E+00
         25   -1    0    0    0    0  0.00000000000E+00  0.00000000000E+00  0.99999998245E-14  0.12509000000E+03  0.12509000000E+03 0.  0.
        -13    1    3    3    0    0 -0.17223408978E+02 -0.27140391063E+02  0.12063688284E+02  0.34333516903E+02  0.10566000000E+00 0. -1.
         23    2    1    0    0    0  0.10090591173E+02  0.17274354713E+02 -0.21009286859E+02  0.96079424423E+02  0.91594990596E+02 0.  0.
         13    1    3    3    0    0  0.27314000151E+02  0.44414745776E+02 -0.33072975143E+02  0.61745907520E+02  0.10566000000E+00 0.  1.
         22    1    1    0    0    0 -0.10090591173E+02 -0.17274354713E+02  0.21009286859E+02  0.29010575577E+02  0.00000000000E+00 0.  1.
</event>
<event>
 5    1  0.1264731E-009  0.9118800E+02  0.7815553E-02  0.1125453E+00
         25   -1    0    0    0    0  0.00000000000E+00  0.00000000000E+00  0.99999998245E-14  0.12509000000E+03  0.12509000000E+03 0.  0.
        -13    1    3    3    0    0  0.23374416081E+02 -0.29086673495E+02  0.88779728566E+01  0.38356583114E+02  0.10566000000E+00 0.  1.
         23    2    1    0    0    0 -0.20759035903E+02 -0.55200197735E+01 -0.19673567022E+02  0.95961707409E+02  0.91434084780E+02 0.  0.
         13    1    3    3    0    0 -0.44133451983E+02  0.23566653721E+02 -0.28551539878E+02  0.57605124295E+02  0.10566000000E+00 0. -1.
         22    1    1    0    0    0  0.20759035903E+02  0.55200197735E+01  0.19673567022E+02  0.29128292591E+02  0.00000000000E+00 0. -1.
</event>
<event>
 5    1  0.1264731E-009  0.9118800E+02  0.7815553E-02  0.1125453E+00
         25   -1    0    0    0    0  0.00000000000E+00  0.00000000000E+00  0.99999998245E-14  0.12509000000E+03  0.12509000000E+03 0.  0.
        -13    1    3    3    0    0 -0.28709152786E+02 -0.97858357975E+01  0.36137417417E+02  0.47179467330E+02  0.10566000000E+00 0. -1.
         23    2    1    0    0    0  0.67008984269E+01  0.19223082372E+02  0.22063153471E+02  0.95069812181E+02  0.90205640131E+02 0.  0.
         13    1    3    3    0    0  0.35410051213E+02  0.29008918169E+02 -0.14074263946E+02  0.47890344851E+02  0.10566000000E+00 0.  1.
         22    1    1    0    0    0 -0.67008984269E+01 -0.19223082372E+02 -0.22063153471E+02  0.30020187819E+02  0.00000000000E+00 0.  1.
</event>
<event>
 5    1  0.1264731E-009  0.9118800E+02  0.7815553E-02  0.1125453E+00
         25   -1    0    0    0    0  0.00000000000E+00  0.00000000000E+00  0.99999998245E-14  0.12509000000E+03  0.12509000000E+03 0.  0.
        -13    1    3    3    0    0 -0.23397574671E+02 -0.26324513721E+02  0.35435115117E+02  0.49960835367E+02  0.10566000000E+00 0. -1.
         23    2    1    0    0    0 -0.25167462831E+02 -0.80739458680E+00 -0.65025944049E+01  0.99083523781E+02  0.95609664153E+02 0.  0.
         13    1    3    3    0    0 -0.17698881599E+01  0.25517119134E+02 -0.41937709522E+02  0.49122688414E+02  0.10566000000E+00 0.  1.
         22    1    1    0    0    0  0.25167462831E+02  0.80739458680E+00  0.65025944049E+01  0.26006476219E+02  0.00000000000E+00 0. -1.
</event>
<event>
 5    1  0.1264731E-009  0.9118800E+02  0.7815553E-02  0.1125453E+00
         25   -1    0    0    0    0  0.00000000000E+00  0.00000000000E+00  0.99999998245E-14  0.12509000000E+03  0.12509000000E+03 0.  0.
        -13    1    3    3    0    0 -0.94930382791E+01  0.57466662425E+02 -0.22260065899E+02  0.62354284246E+02  0.10566000000E+00 0. -1.
         23    2    1    0    0    0 -0.48271623693E+01  0.25699155718E+02 -0.13629692015E+02  0.95602433034E+02  0.90941237051E+02 0.  0.
         13    1    3    3    0    0  0.46658759097E+01 -0.31767506707E+02  0.86303738837E+01  0.33248148787E+02  0.10566000000E+00 0.  1.
         22    1    1    0    0    0  0.48271623693E+01 -0.25699155718E+02  0.13629692015E+02  0.29487566966E+02  0.00000000000E+00 0. -1.
</event>
<event>
 5    1  0.1264731E-009  0.9118800E+02  0.7815553E-02  0.1125453E+00
         25   -1    0    0    0    0  0.00000000000E+00  0.00000000000E+00  0.99999998245E-14  0.12509000000E+03  0.12509000000E+03 0.  0.
        -13    1    3    3    0    0 -0.36361866656E+02  0.18188951223E+02  0.10813408177E+02  0.42070943105E+02  0.10566000000E+00 0.  1.
         23    2    1    0    0    0  0.17660843269E+02  0.15409025745E+02  0.16445863492E+02  0.96457677611E+02  0.92110117168E+02 0.  0.
         13    1    3    3    0    0  0.54022709925E+02 -0.27799254778E+01  0.56324553152E+01  0.54386734506E+02  0.10566000000E+00 0. -1.
         22    1    1    0    0    0 -0.17660843269E+02 -0.15409025745E+02 -0.16445863492E+02  0.28632322389E+02  0.00000000000E+00 0. -1.
</event>
<event>
 5    1  0.1264731E-009  0.9118800E+02  0.7815553E-02  0.1125453E+00
         25   -1    0    0    0    0  0.00000000000E+00  0.00000000000E+00  0.99999998245E-14  0.12509000000E+03  0.12509000000E+03 0.  0.
        -13    1    3    3    0    0  0.41331629674E+02  0.40168214542E+02  0.18141369120E+02  0.60422756545E+02  0.10566000000E+00 0.  1.
         23    2    1    0    0    0  0.10194261396E+02  0.22568592293E+02  0.14544938846E+02  0.96370327831E+02  0.91991415451E+02 0.  0.
         13    1    3    3    0    0 -0.31137368277E+02 -0.17599622249E+02 -0.35964302746E+01  0.35947571285E+02  0.10566000000E+00 0. -1.
         22    1    1    0    0    0 -0.10194261396E+02 -0.22568592293E+02 -0.14544938846E+02  0.28719672169E+02  0.00000000000E+00 0.  1.
</event>
<event>
 5    1  0.1264731E-009  0.9118800E+02  0.7815553E-02  0.1125453E+00
         25   -1    0    0    0    0  0.00000000000E+00  0.00000000000E+00  0.99999998245E-14  0.12509000000E+03  0.12509000000E+03 0.  0.
        -13    1    3    3    0    0 -0.15677506476E+02 -0.34263709335E+02 -0.31774912109E+02  0.49289371981E+02  0.10566000000E+00 0.  1.
         23    2    1    0    0    0 -0.12826190049E+02 -0.21779314046E+02  0.13565922371E+02  0.96404046621E+02  0.92037254869E+02 0.  0.
         13    1    3    3    0    0  0.28513164274E+01  0.12484395289E+02  0.45340834480E+02  0.47114674640E+02  0.10566000000E+00 0. -1.
         22    1    1    0    0    0  0.12826190049E+02  0.21779314046E+02 -0.13565922371E+02  0.28685953379E+02  0.00000000000E+00 0. -1.
</event>
<event>
 5    1  0.1264731E-009  0.9118800E+02  0.7815553E-02  0.1125453E+00
         25   -1    0    0    0    0  0.00000000000E+00  0.00000000000E+00  0.99999998245E-14  0.12509000000E+03  0.12509000000E+03 0.  0.
        -13    1    3    3    0    0 -0.57132788928E+01 -0.25477825916E+02 -0.49746323974E+02  0.56182462406E+02  0.10566000000E+00 0.  1.
         23    2    1    0    0    0 -0.15566560042E+02  0.24108475120E+01 -0.28243205717E+02  0.92751035167E+02  0.86930695834E+02 0.  0.
         13    1    3    3    0    0 -0.98532811497E+01  0.27888673428E+02  0.21503118257E+02  0.36568572761E+02  0.10566000000E+00 0. -1.
         22    1    1    0    0    0  0.15566560042E+02 -0.24108475120E+01  0.28243205717E+02  0.32338964833E+02  0.00000000000E+00 0.  1.
</event>
<event>
 5    1  0.1264731E-009  0.9118800E+02  0.7815553E-02  0.1125453E+00
         25   -1    0    0    0    0  0.00000000000E+00  0.00000000000E+00  0.99999998245E-14  0.12509000000E+03  0.12509000000E+03 0.  0.
        -13    1    3    3    0    0  0.29714077098E+01 -0.86941408097E+01  0.45049692691E+02  0.45977204393E+02  0.10566000000E+00 0. -1.
         23    2    1    0    0    0  0.17829825899E+02  0.22019067035E+02  0.31592295630E+02  0.82653987606E+02  0.70928601561E+02 0.  0.
         13    1    3    3    0    0  0.14858418189E+02  0.30713207845E+02 -0.13457397060E+02  0.36676783214E+02  0.10566000000E+00 0.  1.
         22    1    1    0    0    0 -0.17829825899E+02 -0.22019067035E+02 -0.31592295630E+02  0.42436012394E+02  0.00000000000E+00 0.  1.
</event>
<event>
 5    1  0.1264731E-009  0.9118800E+02  0.7815553E-02  0.1125453E+00
         25   -1    0    0    0    0  0.00000000000E+00  0.00000000000E+00  0.99999998245E-14  0.12509000000E+03  0.12509000000E+03 0.  0.
        -13    1    3    3    0    0  0.37418368728E+02 -0.36948444894E+02  0.13752107231E+02  0.54354884929E+02  0.10566000000E+00 0. -1.
         23    2    1    0    0    0  0.88298800116E+01 -0.11669880209E+02  0.26691041592E+02  0.94650476574E+02  0.89622252423E+02 0.  0.
         13    1    3    3    0    0 -0.28588488716E+02  0.25278564685E+02  0.12938934361E+02  0.40295591645E+02  0.10566000000E+00 0.  1.
         22    1    1    0    0    0 -0.88298800116E+01  0.11669880209E+02 -0.26691041592E+02  0.30439523426E+02  0.00000000000E+00 0. -1.
</event>
<event>
 5    1  0.1264731E-009  0.9118800E+02  0.7815553E-02  0.1125453E+00
         25   -1    0    0    0    0  0.00000000000E+00  0.00000000000E+00  0.99999998245E-14  0.12509000000E+03  0.12509000000E+03 0.  0.
        -13    1    3    3    0    0 -0.13150344282E+02 -0.42582271369E+02 -0.42031592336E+02  0.61260487331E+02  0.10566000000E+00 0. -1.
         23    2    1    0    0    0 -0.11611230888E+02 -0.14067063690E+02 -0.23655058205E+02  0.95219199169E+02  0.90412560787E+02 0.  0.
         13    1    3    3    0    0  0.15391133936E+01  0.28515207678E+02  0.18376534131E+02  0.33958711838E+02  0.10566000000E+00 0.  1.
         22    1    1    0    0    0  0.11611230888E+02  0.14067063690E+02  0.23655058205E+02  0.29870800831E+02  0.00000000000E+00 0. -1.
</event>
<event>
 5    1  0.1264731E-009  0.9118800E+02  0.7815553E-02  0.1125453E+00
         25   -1    0    0    0    0  0.00000000000E+00  0.00000000000E+00  0.99999998245E-14  0.12509000000E+03  0.12509000000E+03 0.  0.
        -13    1    3    3    0    0  0.28441036649E+02  0.36135536062E+02 -0.69695991274E+01  0.46510816034E+02  0.10566000000E+00 0. -1.
         23    2    1    0    0    0  0.15435090677E+02 -0.33168808783E+00  0.24314931178E+02  0.96287779263E+02  0.91879097275E+02 0.  0.
         13    1    3    3    0    0 -0.13005945972E+02 -0.36467224150E+02  0.31284530305E+02  0.49776963229E+02  0.10566000000E+00 0.  1.
         22    1    1    0    0    0 -0.15435090677E+02  0.33168808783E+00 -0.24314931178E+02  0.28802220737E+02  0.00000000000E+00 0.  1.
</event>
<event>
 5    1  0.1264731E-009  0.9118800E+02  0.7815553E-02  0.1125453E+00
         25   -1    0    0    0    0  0.00000000000E+00  0.00000000000E+00  0.99999998245E-14  0.12509000000E+03  0.12509000000E+03 0.  0.
        -13    1    3    3    0    0 -0.85733631177E+01  0.39576432583E+02  0.83577517971E+01  0.41348032000E+02  0.10566000000E+00 0.  1.
         23    2    1    0    0    0  0.25052107609E+02 -0.64790268874E+01 -0.12837277430E+01  0.99181819014E+02  0.95738181416E+02 0.  0.
         13    1    3    3    0    0  0.33625470727E+02 -0.46055459470E+02 -0.96414795401E+01  0.57833787014E+02  0.10566000000E+00 0. -1.
         22    1    1    0    0    0 -0.25052107609E+02  0.64790268874E+01  0.12837277430E+01  0.25908180986E+02  0.00000000000E+00 0. -1.
</event>
<event>
 5    1  0.1264731E-009  0.9118800E+02  0.7815553E-02  0.1125453E+00
         25   -1    0    0    0    0  0.00000000000E+00  0.00000000000E+00  0.99999998245E-14  0.12509000000E+03  0.12509000000E+03 0.  0.
        -13    1    3    3    0    0 -0.86225926085E+01  0.30605008162E+02 -0.15512656782E+02  0.35378938824E+02  0.10566000000E+00 0.  1.
         23    2    1    0    0    0  0.25232451055E+02 -0.96821779242E+01  0.12855776347E+02  0.95161883770E+02  0.90333227451E+02 0.  0.
         13    1    3    3    0    0  0.33855043663E+02 -0.40287186086E+02  0.28368433129E+02  0.59782944946E+02  0.10566000000E+00 0. -1.
         22    1    1    0    0    0 -0.25232451055E+02  0.96821779242E+01 -0.12855776347E+02  0.29928116230E+02  0.00000000000E+00 0. -1.
</event>
<event>
 5    1  0.1264731E-009  0.9118800E+02  0.7815553E-02  0.1125453E+00
         25   -1    0    0    0    0  0.00000000000E+00  0.00000000000E+00  0.99999998245E-14  0.12509000000E+03  0.12509000000E+03 0.  0.
        -13    1    3    3    0    0 -0.49918130083E+01 -0.20750637550E+02 -0.44043652851E+02  0.48942432268E+02  0.10566000000E+00 0. -1.
         23    2    1    0    0    0 -0.93660562501E+00  0.19555105154E+02 -0.23934824988E+02  0.94168240430E+02  0.88946626079E+02 0.  0.
         13    1    3    3    0    0  0.40552073833E+01  0.40305742704E+02  0.20108827863E+02  0.45225808162E+02  0.10566000000E+00 0.  1.
         22    1    1    0    0    0  0.93660562501E+00 -0.19555105154E+02  0.23934824988E+02  0.30921759570E+02  0.00000000000E+00 0. -1.
</event>
<event>
 5    1  0.1264731E-009  0.9118800E+02  0.7815553E-02  0.1125453E+00
         25   -1    0    0    0    0  0.00000000000E+00  0.00000000000E+00  0.99999998245E-14  0.12509000000E+03  0.12509000000E+03 0.  0.
        -13    1    3    3    0    0 -0.16126298217E+02  0.59996751253E+02  0.32123119697E+01  0.62209306115E+02  0.10566000000E+00 0.  1.
         23    2    1    0    0    0 -0.10380468943E+02  0.27089659233E+02  0.49532650722E+01  0.95659767114E+02  0.91020066121E+02 0.  0.
         13    1    3    3    0    0  0.57458292739E+01 -0.32907092021E+02  0.17409531025E+01  0.33450460999E+02  0.10566000000E+00 0. -1.
         22    1    1    0    0    0  0.10380468943E+02 -0.27089659233E+02 -0.49532650722E+01  0.29430232886E+02  0.00000000000E+00 0.  1.
</event>
<event>
 5    1  0.1264731E-009  0.9118800E+02  0.7815553E-02  0.1125453E+00
         25   -1    0    0    0    0  0.00000000000E+00  0.00000000000E+00  0.99999998245E-14  0.12509000000E+03  0.12509000000E+03 0.  0.
        -13    1    3    3    0    0 -0.57824390061E+02  0.15176997794E+02 -0.79168958598E+01  0.60304972863E+02  0.10566000000E+00 0.  1.
         23    2    1    0    0    0 -0.28954279438E+02  0.15737702338E+02 -0.13071817746E+02  0.89637242817E+02  0.82328229108E+02 0.  0.
         13    1    3    3    0    0  0.28870110623E+02  0.56070454439E+00 -0.51549218862E+01  0.29332269954E+02  0.10566000000E+00 0. -1.
         22    1    1    0    0    0  0.28954279438E+02 -0.15737702338E+02  0.13071817746E+02  0.35452757183E+02  0.00000000000E+00 0.  1.
</event>
<event>
 5    1  0.1264731E-009  0.9118800E+02  0.7815553E-02  0.1125453E+00
         25   -1    0    0    0    0  0.00000000000E+00  0.00000000000E+00  0.99999998245E-14  0.12509000000E+03  0.12509000000E+03 0.  0.
        -13    1    3    3    0    0 -0.52386152477E+00 -0.20991042346E+02  0.29614934072E+02  0.36303633066E+02  0.10566000000E+00 0.  1.
         23    2    1    0    0    0  0.17730654439E+02  0.42052933043E+01 -0.21970420687E+02  0.96545999163E+02  0.92229984119E+02 0.  0.
         13    1    3    3    0    0  0.18254515964E+02  0.25196335650E+02 -0.51585354759E+02  0.60242366097E+02  0.10566000000E+00 0. -1.
         22    1    1    0    0    0 -0.17730654439E+02 -0.42052933043E+01  0.21970420687E+02  0.28544000837E+02  0.00000000000E+00 0. -1.
</event>
<event>
 5    1  0.1264731E-009  0.9118800E+02  0.7815553E-02  0.1125453E+00
         25   -1    0    0    0    0  0.00000000000E+00  0.00000000000E+00  0.99999998245E-14  0.12509000000E+03  0.12509000000E+03 0.  0.
        -13    1    3    3    0    0 -0.32813485415E+02  0.21986200045E+02  0.22707549173E+02  0.45560528652E+02  0.10566000000E+00 0.  1.
         23    2    1    0    0    0  0.16918138179E+02  0.75406160768E+01 -0.70296535610E+01  0.10527837918E+03  0.10339747001E+03 0.  0.
         13    1    3    3    0    0  0.49731623594E+02 -0.14445583968E+02 -0.29737202734E+02  0.59717850530E+02  0.10566000000E+00 0. -1.
         22    1    1    0    0    0 -0.16918138179E+02 -0.75406160768E+01  0.70296535610E+01  0.19811620818E+02  0.00000000000E+00 0. -1.
</event>
<event>
 5    1  0.1264731E-009  0.9118800E+02  0.7815553E-02  0.1125453E+00
         25   -1    0    0    0    0  0.00000000000E+00  0.00000000000E+00  0.99999998245E-14  0.12509000000E+03  0.12509000000E+03 0.  0.
        -13    1    3    3    0    0 -0.11415179064E+02  0.27007554664E+02  0.20575357824E+02  0.35819978163E+02  0.10566000000E+00 0. -1.
         23    2    1    0    0    0  0.26718200706E+00 -0.36876298829E+01 -0.29310785938E+02  0.95546943748E+02  0.90864879282E+02 0.  0.
         13    1    3    3    0    0  0.11682361071E+02 -0.30695184547E+02 -0.49886143762E+02  0.59726965585E+02  0.10566000000E+00 0.  1.
         22    1    1    0    0    0 -0.26718200706E+00  0.36876298829E+01  0.29310785938E+02  0.29543056252E+02  0.00000000000E+00 0.  1.
</event>
<event>
 5    1  0.1264731E-009  0.9118800E+02  0.7815553E-02  0.1125453E+00
         25   -1    0    0    0    0  0.00000000000E+00  0.00000000000E+00  0.99999998245E-14  0.12509000000E+03  0.12509000000E+03 0.  0.
        -13    1    3    3    0    0 -0.44033566204E+02  0.38711438555E+00 -0.74815129575E+01  0.44666419269E+02  0.10566000000E+00 0.  1.
         23    2    1    0    0    0 -0.72096859224E+01 -0.15886069704E+02  0.23751092528E+02  0.95620334613E+02  0.90965857405E+02 0.  0.
         13    1    3    3    0    0  0.36823880281E+02 -0.16273184090E+02  0.31232605486E+02  0.50953915344E+02  0.10566000000E+00 0. -1.
         22    1    1    0    0    0  0.72096859224E+01  0.15886069704E+02 -0.23751092528E+02  0.29469665387E+02  0.00000000000E+00 0. -1.
</event>
<event>
 5    1  0.1264731E-009  0.9118800E+02  0.7815553E-02  0.1125453E+00
         25   -1    0    0    0    0  0.00000000000E+00  0.00000000000E+00  0.99999998245E-14  0.12509000000E+03  0.12509000000E+03 0.  0.
        -13    1    3    3    0    0  0.81423239132E+01  0.22882043377E+02  0.30344905670E+02  0.38867850622E+02  0.10566000000E+00 0.  1.
         23    2    1    0    0    0  0.25212935123E+00  0.19680076988E+02 -0.24099834637E+02  0.93974553210E+02  0.88673815876E+02 0.  0.
         13    1    3    3    0    0 -0.78901945620E+01 -0.32019663897E+01 -0.54444740307E+02  0.55106702588E+02  0.10566000000E+00 0. -1.
         22    1    1    0    0    0 -0.25212935123E+00 -0.19680076988E+02  0.24099834637E+02  0.31115446790E+02  0.00000000000E+00 0. -1.
</event>
<event>
 5    1  0.1264731E-009  0.9118800E+02  0.7815553E-02  0.1125453E+00
         25   -1    0    0    0    0  0.00000000000E+00  0.00000000000E+00  0.99999998245E-14  0.12509000000E+03  0.12509000000E+03 0.  0.
        -13    1    3    3    0    0 -0.11649094644E+02 -0.49607277148E+01  0.41106077326E+02  0.43011986500E+02  0.10566000000E+00 0. -1.
         23    2    1    0    0    0  0.66260383512E+01 -0.30386948182E+02  0.89589971878E+00  0.93976118205E+02  0.88676023550E+02 0.  0.
         13    1    3    3    0    0  0.18275132996E+02 -0.25426220467E+02 -0.40210177607E+02  0.50964131705E+02  0.10566000000E+00 0.  1.
         22    1    1    0    0    0 -0.66260383512E+01  0.30386948182E+02 -0.89589971878E+00  0.31113881795E+02  0.00000000000E+00 0.  1.
</event>
<event>
 5    1  0.1264731E-009  0.9118800E+02  0.7815553E-02  0.1125453E+00
         25   -1    0    0    0    0  0.00000000000E+00  0.00000000000E+00  0.99999998245E-14  0.12509000000E+03  0.12509000000E+03 0.  0.
        -13    1    3    3    0    0  0.60464171124E+01 -0.49962554385E+01 -0.40938522446E+02  0.41683276172E+02  0.10566000000E+00 0.  1.
         23    2    1    0    0    0 -0.14522248669E+01  0.29115417798E+02  0.57244324299E+00  0.95932767589E+02  0.91394483944E+02 0.  0.
         13    1    3    3    0    0 -0.74986419793E+01  0.34111673237E+02  0.41510965689E+02  0.54249491417E+02  0.10566000000E+00 0. -1.
         22    1    1    0    0    0  0.14522248669E+01 -0.29115417798E+02 -0.57244324299E+00  0.29157232411E+02  0.00000000000E+00 0. -1.
</event>
<event>
 5    1  0.1264731E-009  0.9118800E+02  0.7815553E-02  0.1125453E+00
         25   -1    0    0    0    0  0.00000000000E+00  0.00000000000E+00  0.99999998245E-14  0.12509000000E+03  0.12509000000E+03 0.  0.
        -13    1    3    3    0    0 -0.78731312157E+01 -0.64711181744E+01 -0.54834236307E+02  0.55773346690E+02  0.10566000000E+00 0.  1.
         23    2    1    0    0    0  0.86063252183E+00  0.17172773530E+02 -0.22638269812E+02  0.96662265318E+02  0.92387539405E+02 0.  0.
         13    1    3    3    0    0  0.87337637375E+01  0.23643891705E+02  0.32195966496E+02  0.40888918628E+02  0.10566000000E+00 0. -1.
         22    1    1    0    0    0 -0.86063252183E+00 -0.17172773530E+02  0.22638269812E+02  0.28427734682E+02  0.00000000000E+00 0.  1.
</event>
<event>
 5    1  0.1264731E-009  0.9118800E+02  0.7815553E-02  0.1125453E+00
         25   -1    0    0    0    0  0.00000000000E+00  0.00000000000E+00  0.99999998245E-14  0.12509000000E+03  0.12509000000E+03 0.  0.
        -13    1    3    3    0    0  0.47033276363E+02  0.37699195528E+02 -0.86708271702E+00  0.60283674618E+02  0.10566000000E+00 0. -1.
         23    2    1    0    0    0  0.24840207761E+02  0.14360881950E+02 -0.11469414338E+02  0.94189865417E+02  0.88977033161E+02 0.  0.
         13    1    3    3    0    0 -0.22193068603E+02 -0.23338313579E+02 -0.10602331621E+02  0.33906190800E+02  0.10566000000E+00 0.  1.
         22    1    1    0    0    0 -0.24840207761E+02 -0.14360881950E+02  0.11469414338E+02  0.30900134583E+02  0.00000000000E+00 0. -1.
</event>
<event>
 5    1  0.1264731E-009  0.9118800E+02  0.7815553E-02  0.1125453E+00
         25   -1    0    0    0    0  0.00000000000E+00  0.00000000000E+00  0.99999998245E-14  0.12509000000E+03  0.12509000000E+03 0.  0.
        -13    1    3    3    0    0  0.16629878535E+02 -0.11832644423E+02 -0.21459001464E+01  0.20522679786E+02  0.10566000000E+00 0.  1.
         23    2    1    0    0    0  0.19711000631E+02  0.44208592422E+02 -0.18937167460E+01  0.76649218081E+02  0.59401963599E+02 0.  0.
         13    1    3    3    0    0  0.30811220962E+01  0.56041236845E+02  0.25218340044E+00  0.56126538295E+02  0.10566000000E+00 0. -1.
         22    1    1    0    0    0 -0.19711000631E+02 -0.44208592422E+02  0.18937167460E+01  0.48440781919E+02  0.00000000000E+00 0. -1.
</event>
<event>
 5    1  0.1264731E-009  0.9118800E+02  0.7815553E-02  0.1125453E+00
         25   -1    0    0    0    0  0.00000000000E+00  0.00000000000E+00  0.99999998245E-14  0.12509000000E+03  0.12509000000E+03 0.  0.
        -13    1    3    3    0    0  0.46080178671E+02  0.20357094522E+01  0.15708290710E+02  0.48726671755E+02  0.10566000000E+00 0. -1.
         23    2    1    0    0    0  0.68334288627E+01 -0.25224908544E+02  0.10971040437E+02  0.96746473590E+02  0.92501484651E+02 0.  0.
         13    1    3    3    0    0 -0.39246749808E+02 -0.27260617996E+02 -0.47372502730E+01  0.48019801834E+02  0.10566000000E+00 0.  1.
         22    1    1    0    0    0 -0.68334288627E+01  0.25224908544E+02 -0.10971040437E+02  0.28343526410E+02  0.00000000000E+00 0.  1.
</event>
<event>
 5    1  0.1264731E-009  0.9118800E+02  0.7815553E-02  0.1125453E+00
         25   -1    0    0    0    0  0.00000000000E+00  0.00000000000E+00  0.99999998245E-14  0.12509000000E+03  0.12509000000E+03 0.  0.
        -13    1    3    3    0    0  0.10157565768E+01  0.63568914610E+01  0.50939786351E+02  0.51345056510E+02  0.10566000000E+00 0.  1.
         23    2    1    0    0    0 -0.16553714020E+02 -0.16726470307E+02  0.16634966341E+02  0.96271215120E+02  0.91856543038E+02 0.  0.
         13    1    3    3    0    0 -0.17569470597E+02 -0.23083361768E+02 -0.34304820010E+02  0.44926158611E+02  0.10566000000E+00 0. -1.
         22    1    1    0    0    0  0.16553714020E+02  0.16726470307E+02 -0.16634966341E+02  0.28818784880E+02  0.00000000000E+00 0.  1.
</event>
<event>
 5    1  0.1264731E-009  0.9118800E+02  0.7815553E-02  0.1125453E+00
         25   -1    0    0    0    0  0.00000000000E+00  0.00000000000E+00  0.99999998245E-14  0.12509000000E+03  0.12509000000E+03 0.  0.
        -13    1    3    3    0    0 -0.56155973973E+01  0.30703558200E+02  0.32453441051E+02  0.45027551792E+02  0.10566000000E+00 0.  1.
         23    2    1    0    0    0 -0.28145279837E+02 -0.63794617673E+01  0.67781964442E+01  0.95445468353E+02  0.90725074663E+02 0.  0.
         13    1    3    3    0    0 -0.22529682439E+02 -0.37083019968E+02 -0.25675244607E+02  0.50417916561E+02  0.10566000000E+00 0. -1.
         22    1    1    0    0    0  0.28145279837E+02  0.63794617673E+01 -0.67781964442E+01  0.29644531647E+02  0.00000000000E+00 0. -1.
</event>
<event>
 5    1  0.1264731E-009  0.9118800E+02  0.7815553E-02  0.1125453E+00
         25   -1    0    0    0    0  0.00000000000E+00  0.00000000000E+00  0.99999998245E-14  0.12509000000E+03  0.12509000000E+03 0.  0.
        -13    1    3    3    0    0 -0.34430243218E+02  0.41212951663E+01  0.32728604322E+02  0.47682275813E+02  0.10566000000E+00 0. -1.
         23    2    1    0    0    0 -0.20149716304E+02  0.17685529517E+02 -0.11361520544E+02  0.95971738196E+02  0.91447806763E+02 0.  0.
         13    1    3    3    0    0  0.14280526914E+02  0.13564234351E+02 -0.44090124866E+02  0.48289462382E+02  0.10566000000E+00 0.  1.
         22    1    1    0    0    0  0.20149716304E+02 -0.17685529517E+02  0.11361520544E+02  0.29118261804E+02  0.00000000000E+00 0. -1.
</event>
<event>
 5    1  0.1264731E-009  0.9118800E+02  0.7815553E-02  0.1125453E+00
         25   -1    0    0    0    0  0.00000000000E+00  0.00000000000E+00  0.99999998245E-14  0.12509000000E+03  0.12509000000E+03 0.  0.
        -13    1    3    3    0    0 -0.22778166899E+02  0.28402049361E+01 -0.32982170916E+02  0.40183907397E+02  0.10566000000E+00 0.  1.
         23    2    1    0    0    0 -0.19396310656E+01 -0.29020749977E+02  0.67712477094E+01  0.95226713285E+02  0.90422956320E+02 0.  0.
         13    1    3    3    0    0  0.20838535833E+02 -0.31860954913E+02  0.39753418625E+02  0.55042805888E+02  0.10566000000E+00 0. -1.
         22    1    1    0    0    0  0.19396310656E+01  0.29020749977E+02 -0.67712477094E+01  0.29863286715E+02  0.00000000000E+00 0. -1.
</event>
<event>
 5    1  0.1264731E-009  0.9118800E+02  0.7815553E-02  0.1125453E+00
         25   -1    0    0    0    0  0.00000000000E+00  0.00000000000E+00  0.99999998245E-14  0.12509000000E+03  0.12509000000E+03 0.  0.
        -13    1    3    3    0    0 -0.58586152122E+01 -0.30903199021E+02  0.16568419838E+02  0.35550735321E+02  0.10566000000E+00 0.  1.
         23    2    1    0    0    0  0.36962983448E+00  0.85117538814E+01 -0.28264026741E+02  0.95569807115E+02  0.90896348904E+02 0.  0.
         13    1    3    3    0    0  0.62282450467E+01  0.39414952902E+02 -0.44832446579E+02  0.60019071794E+02  0.10566000000E+00 0. -1.
         22    1    1    0    0    0 -0.36962983448E+00 -0.85117538814E+01  0.28264026741E+02  0.29520192885E+02  0.00000000000E+00 0. -1.
</event>
<event>
 5    1  0.1264731E-009  0.9118800E+02  0.7815553E-02  0.1125453E+00
         25   -1    0    0    0    0  0.00000000000E+00  0.00000000000E+00  0.99999998245E-14  0.12509000000E+03  0.12509000000E+03 0.  0.
        -13    1    3    3    0    0  0.48724577821E+02 -0.25825431080E+02 -0.15801093747E+02  0.57364824605E+02  0.10566000000E+00 0.  1.
         23    2    1    0    0    0  0.18654445593E+02 -0.57511389759E+01 -0.23713039817E+02  0.94375635327E+02  0.89237819035E+02 0.  0.
         13    1    3    3    0    0 -0.30070132228E+02  0.20074292104E+02 -0.79119460700E+01  0.37010810722E+02  0.10566000000E+00 0. -1.
         22    1    1    0    0    0 -0.18654445593E+02  0.57511389759E+01  0.23713039817E+02  0.30714364673E+02  0.00000000000E+00 0.  1.
</event>
<event>
 5    1  0.1264731E-009  0.9118800E+02  0.7815553E-02  0.1125453E+00
         25   -1    0    0    0    0  0.00000000000E+00  0.00000000000E+00  0.99999998245E-14  0.12509000000E+03  0.12509000000E+03 0.  0.
        -13    1    3    3    0    0 -0.26943866148E+02 -0.92061777295E+01  0.31609780735E+02  0.42543096191E+02  0.10566000000E+00 0.  1.
         23    2    1    0    0    0  0.52807562721E+01  0.24802155825E+02  0.24314248778E+02  0.89958589354E+02  0.82815045641E+02 0.  0.
         13    1    3    3    0    0  0.32224622420E+02  0.34008333555E+02 -0.72955319576E+01  0.47415493162E+02  0.10566000000E+00 0. -1.
         22    1    1    0    0    0 -0.52807562721E+01 -0.24802155825E+02 -0.24314248778E+02  0.35131410646E+02  0.00000000000E+00 0.  1.
</event>
<event>
 5    1  0.1264731E-009  0.9118800E+02  0.7815553E-02  0.1125453E+00
         25   -1    0    0    0    0  0.00000000000E+00  0.00000000000E+00  0.99999998245E-14  0.12509000000E+03  0.12509000000E+03 0.  0.
        -13    1    3    3    0    0  0.79020731470E+01  0.26802586208E+02 -0.53319257245E+00  0.27948467683E+02  0.10566000000E+00 0. -1.
         23    2    1    0    0    0 -0.42138860912E+02  0.87473439057E+01  0.63364634275E+01  0.81588846071E+02  0.69024556573E+02 0.  0.
         13    1    3    3    0    0 -0.50040934059E+02 -0.18055242302E+02  0.68696559999E+01  0.53640378389E+02  0.10566000000E+00 0.  1.
         22    1    1    0    0    0  0.42138860912E+02 -0.87473439057E+01 -0.63364634275E+01  0.43501153929E+02  0.00000000000E+00 0.  1.
</event>
<event>
 5    1  0.1264731E-009  0.9118800E+02  0.7815553E-02  0.1125453E+00
         25   -1    0    0    0    0  0.00000000000E+00  0.00000000000E+00  0.99999998245E-14  0.12509000000E+03  0.12509000000E+03 0.  0.
        -13    1    3    3    0    0 -0.46943024817E+02  0.39186651576E+02 -0.12552128189E+02  0.62424420917E+02  0.10566000000E+00 0. -1.
         23    2    1    0    0    0 -0.23359924754E+02  0.17894841443E+02 -0.35348819172E+01  0.95452071176E+02  0.90734178052E+02 0.  0.
         13    1    3    3    0    0  0.23583100062E+02 -0.21291810133E+02  0.90172462717E+01  0.33027650259E+02  0.10566000000E+00 0.  1.
         22    1    1    0    0    0  0.23359924754E+02 -0.17894841443E+02  0.35348819172E+01  0.29637928824E+02  0.00000000000E+00 0. -1.
</event>
<event>
 5    1  0.1264731E-009  0.9118800E+02  0.7815553E-02  0.1125453E+00
         25   -1    0    0    0    0  0.00000000000E+00  0.00000000000E+00  0.99999998245E-14  0.12509000000E+03  0.12509000000E+03 0.  0.
        -13    1    3    3    0    0 -0.32329293236E+02  0.14436509727E+02 -0.15576809074E+02  0.38681315376E+02  0.10566000000E+00 0. -1.
         23    2    1    0    0    0 -0.11234495424E+01  0.68065493574E+01  0.29924547985E+02  0.94380558046E+02  0.89244719239E+02 0.  0.
         13    1    3    3    0    0  0.31205843694E+02 -0.76299603697E+01  0.45501357058E+02  0.55699242671E+02  0.10566000000E+00 0.  1.
         22    1    1    0    0    0  0.11234495424E+01 -0.68065493574E+01 -0.29924547985E+02  0.30709441954E+02  0.00000000000E+00 0.  1.
</event>
<event>
 5    1  0.1264731E-009  0.9118800E+02  0.7815553E-02  0.1125453E+00
         25   -1    0    0    0    0  0.00000000000E+00  0.00000000000E+00  0.99999998245E-14  0.12509000000E+03  0.12509000000E+03 0.  0.
        -13    1    3    3    0    0 -0.20522189150E+01  0.18548740591E+02 -0.31024579179E+02  0.36205014256E+02  0.10566000000E+00 0. -1.
         23    2    1    0    0    0  0.14000561194E+02  0.50388937482E+01  0.24981852359E+02  0.96012532585E+02  0.91503591744E+02 0.  0.
         13    1    3    3    0    0  0.16052780109E+02 -0.13509846843E+02  0.56006431538E+02  0.59807518329E+02  0.10566000000E+00 0.  1.
         22    1    1    0    0    0 -0.14000561194E+02 -0.50388937482E+01 -0.24981852359E+02  0.29077467415E+02  0.00000000000E+00 0.  1.
</event>
<event>
 5    1  0.1264731E-009  0.9118800E+02  0.7815553E-02  0.1125453E+00
         25   -1    0    0    0    0  0.00000000000E+00  0.00000000000E+00  0.99999998245E-14  0.12509000000E+03  0.12509000000E+03 0.  0.
        -13    1    3    3    0    0 -0.41679484395E+02  0.21465462633E+02 -0.82668904830E+01  0.47605652477E+02  0.10566000000E+00 0.  1.
         23    2    1    0    0    0  0.46430279571E+01  0.19273971557E+02 -0.21513258366E+02  0.95834847057E+02  0.91260363448E+02 0.  0.
         13    1    3    3    0    0  0.46322512352E+02 -0.21914910765E+01 -0.13246367883E+02  0.48229194580E+02  0.10566000000E+00 0. -1.
         22    1    1    0    0    0 -0.46430279571E+01 -0.19273971557E+02  0.21513258366E+02  0.29255152943E+02  0.00000000000E+00 0. -1.
</event>
<event>
 5    1  0.1264731E-009  0.9118800E+02  0.7815553E-02  0.1125453E+00
         25   -1    0    0    0    0  0.00000000000E+00  0.00000000000E+00  0.99999998245E-14  0.12509000000E+03  0.12509000000E+03 0.  0.
        -13    1    3    3    0    0 -0.19826015560E+02 -0.15812407153E+02 -0.38839543907E+02  0.46385606042E+02  0.10566000000E+00 0.  1.
         23    2    1    0    0    0  0.13340800473E+02  0.15720676584E+02 -0.21435874667E+02  0.95347549659E+02  0.90589965635E+02 0.  0.
         13    1    3    3    0    0  0.33166816033E+02  0.31533083737E+02  0.17403669239E+02  0.48961943617E+02  0.10566000000E+00 0. -1.
         22    1    1    0    0    0 -0.13340800473E+02 -0.15720676584E+02  0.21435874667E+02  0.29742450341E+02  0.00000000000E+00 0.  1.
</event>
<event>
 5    1  0.1264731E-009  0.9118800E+02  0.7815553E-02  0.1125453E+00
         25   -1    0    0    0    0  0.00000000000E+00  0.00000000000E+00  0.99999998245E-14  0.12509000000E+03  0.12509000000E+03 0.  0.
        -13    1    3    3    0    0 -0.14070746801E+02  0.31625844918E+02 -0.11355864182E+02  0.36430026045E+02  0.10566000000E+00 0.  1.
         23    2    1    0    0    0  0.63041423863E+01 -0.24502463501E+02 -0.13950215804E+02  0.96198453662E+02  0.91757403173E+02 0.  0.
         13    1    3    3    0    0  0.20374889187E+02 -0.56128308419E+02 -0.25943516219E+01  0.59768427616E+02  0.10566000000E+00 0. -1.
         22    1    1    0    0    0 -0.63041423863E+01  0.24502463501E+02  0.13950215804E+02  0.28891546338E+02  0.00000000000E+00 0. -1.
</event>
<event>
 5    1  0.1264731E-009  0.9118800E+02  0.7815553E-02  0.1125453E+00
         25   -1    0    0    0    0  0.00000000000E+00  0.00000000000E+00  0.99999998245E-14  0.12509000000E+03  0.12509000000E+03 0.  0.
        -13    1    3    3    0    0  0.25268217073E+02 -0.52423042311E-01  0.53975178691E+02  0.59597119234E+02  0.10566000000E+00 0. -1.
         23    2    1    0    0    0  0.16978817597E+02  0.11408669428E+02  0.19638598166E+02  0.96733122121E+02  0.92483427662E+02 0.  0.
         13    1    3    3    0    0 -0.82893994755E+01  0.11461092471E+02 -0.34336580525E+02  0.37136002887E+02  0.10566000000E+00 0.  1.
         22    1    1    0    0    0 -0.16978817597E+02 -0.11408669428E+02 -0.19638598166E+02  0.28356877879E+02  0.00000000000E+00 0. -1.
</event>
<event>
 5    1  0.1264731E-009  0.9118800E+02  0.7815553E-02  0.1125453E+00
         25   -1    0    0    0    0  0.00000000000E+00  0.00000000000E+00  0.99999998245E-14  0.12509000000E+03  0.12509000000E+03 0.  0.
        -13    1    3    3    0    0  0.36562745074E+02 -0.40262234865E+02 -0.29011507026E+02  0.61640575822E+02  0.10566000000E+00 0.  1.
         23    2    1    0    0    0  0.22606881184E+02 -0.13771515643E+02 -0.12884851873E+02  0.95649464547E+02  0.91005906074E+02 0.  0.
         13    1    3    3    0    0 -0.13955863890E+02  0.26490719222E+02  0.16126655154E+02  0.34008888725E+02  0.10566000000E+00 0. -1.
         22    1    1    0    0    0 -0.22606881184E+02  0.13771515643E+02  0.12884851873E+02  0.29440535453E+02  0.00000000000E+00 0.  1.
</event>
<event>
 5    1  0.1264731E-009  0.9118800E+02  0.7815553E-02  0.1125453E+00
         25   -1    0    0    0    0  0.00000000000E+00  0.00000000000E+00  0.99999998245E-14  0.12509000000E+03  0.12509000000E+03 0.  0.
        -13    1    3    3    0    0 -0.31952075590E+02  0.20303105579E+02 -0.13304264705E+02  0.40126871969E+02  0.10566000000E+00 0.  1.
         23    2    1    0    0    0  0.23437803147E+02  0.10502014821E+02 -0.12832868080E+02  0.96379280142E+02  0.92003588005E+02 0.  0.
         13    1    3    3    0    0  0.55389878736E+02 -0.98010907578E+01  0.47139662462E+00  0.56252408173E+02  0.10566000000E+00 0. -1.
         22    1    1    0    0    0 -0.23437803147E+02 -0.10502014821E+02  0.12832868080E+02  0.28710719858E+02  0.00000000000E+00 0. -1.
</event>
<event>
 5    1  0.1264731E-009  0.9118800E+02  0.7815553E-02  0.1125453E+00
         25   -1    0    0    0    0  0.00000000000E+00  0.00000000000E+00  0.99999998245E-14  0.12509000000E+03  0.12509000000E+03 0.  0.
        -13    1    3    3    0    0  0.14795038007E+02  0.78418502216E+01  0.31487109502E+02  0.35662823687E+02  0.10566000000E+00 0.  1.
         23    2    1    0    0    0 -0.22967280671E+02 -0.16665241948E+02 -0.80672705057E+01  0.95589031812E+02  0.90922801754E+02 0.  0.
         13    1    3    3    0    0 -0.37762318678E+02 -0.24507092170E+02 -0.39554380007E+02  0.59926208126E+02  0.10566000000E+00 0. -1.
         22    1    1    0    0    0  0.22967280671E+02  0.16665241948E+02  0.80672705057E+01  0.29500968188E+02  0.00000000000E+00 0. -1.
</event>
<event>
 5    1  0.1264731E-009  0.9118800E+02  0.7815553E-02  0.1125453E+00
         25   -1    0    0    0    0  0.00000000000E+00  0.00000000000E+00  0.99999998245E-14  0.12509000000E+03  0.12509000000E+03 0.  0.
        -13    1    3    3    0    0 -0.52419083206E+02  0.24199441180E+02  0.44970764664E+01  0.57910345348E+02  0.10566000000E+00 0. -1.
         23    2    1    0    0    0 -0.20484570587E+02  0.22291103849E+02  0.14627276521E+02  0.91467564613E+02  0.85063783215E+02 0.  0.
         13    1    3    3    0    0  0.31934512619E+02 -0.19083373311E+01  0.10130200055E+02  0.33557219264E+02  0.10566000000E+00 0.  1.
         22    1    1    0    0    0  0.20484570587E+02 -0.22291103849E+02 -0.14627276521E+02  0.33622435387E+02  0.00000000000E+00 0. -1.
</event>
<event>
 5    1  0.1264731E-009  0.9118800E+02  0.7815553E-02  0.1125453E+00
         25   -1    0    0    0    0  0.00000000000E+00  0.00000000000E+00  0.99999998245E-14  0.12509000000E+03  0.12509000000E+03 0.  0.
        -13    1    3    3    0    0  0.25314918383E+02 -0.12356455456E+02  0.21250700226E+02  0.35286406849E+02  0.10566000000E+00 0.  1.
         23    2    1    0    0    0 -0.24259627947E+02  0.15828994241E+02  0.60656117485E-01  0.96122944816E+02  0.91654406518E+02 0.  0.
         13    1    3    3    0    0 -0.49574546330E+02  0.28185449698E+02 -0.21190044108E+02  0.60836537968E+02  0.10566000000E+00 0. -1.
         22    1    1    0    0    0  0.24259627947E+02 -0.15828994241E+02 -0.60656117485E-01  0.28967055184E+02  0.00000000000E+00 0. -1.
</event>
<event>
 5    1  0.1264731E-009  0.9118800E+02  0.7815553E-02  0.1125453E+00
         25   -1    0    0    0    0  0.00000000000E+00  0.00000000000E+00  0.99999998245E-14  0.12509000000E+03  0.12509000000E+03 0.  0.
        -13    1    3    3    0    0 -0.16870197998E+02 -0.14967574299E+02  0.54943514586E+02  0.59392194941E+02  0.10566000000E+00 0.  1.
         23    2    1    0    0    0 -0.58530761247E+01 -0.20107147723E+02  0.21062465598E+02  0.95388428548E+02  0.90646395152E+02 0.  0.
         13    1    3    3    0    0  0.11017121873E+02 -0.51395734232E+01 -0.33881048987E+02  0.35996233606E+02  0.10566000000E+00 0. -1.
         22    1    1    0    0    0  0.58530761247E+01  0.20107147723E+02 -0.21062465598E+02  0.29701571452E+02  0.00000000000E+00 0.  1.
</event>
<event>
 5    1  0.1264731E-009  0.9118800E+02  0.7815553E-02  0.1125453E+00
         25   -1    0    0    0    0  0.00000000000E+00  0.00000000000E+00  0.99999998245E-14  0.12509000000E+03  0.12509000000E+03 0.  0.
        -13    1    3    3    0    0 -0.10613022412E+02 -0.27892144696E+02 -0.18157699294E+02  0.34933095885E+02  0.10566000000E+00 0.  1.
         23    2    1    0    0    0 -0.41408732358E+01  0.21066098063E+02  0.18750434897E+02  0.96585506888E+02  0.92283552236E+02 0.  0.
         13    1    3    3    0    0  0.64721491762E+01  0.48958242759E+02  0.36908134191E+02  0.61652411003E+02  0.10566000000E+00 0. -1.
         22    1    1    0    0    0  0.41408732358E+01 -0.21066098063E+02 -0.18750434897E+02  0.28504493112E+02  0.00000000000E+00 0. -1.
</event>
<event>
 5    1  0.1264731E-009  0.9118800E+02  0.7815553E-02  0.1125453E+00
         25   -1    0    0    0    0  0.00000000000E+00  0.00000000000E+00  0.99999998245E-14  0.12509000000E+03  0.12509000000E+03 0.  0.
        -13    1    3    3    0    0  0.98465160270E+01  0.86947871263E+01 -0.41836253364E+02  0.43850159186E+02  0.10566000000E+00 0.  1.
         23    2    1    0    0    0  0.21605615663E+02 -0.22319059917E+02 -0.46485734776E+01  0.93680569901E+02  0.88258126412E+02 0.  0.
         13    1    3    3    0    0  0.11759099636E+02 -0.31013847044E+02  0.37187679886E+02  0.49830410715E+02  0.10566000000E+00 0. -1.
         22    1    1    0    0    0 -0.21605615663E+02  0.22319059917E+02  0.46485734776E+01  0.31409430099E+02  0.00000000000E+00 0.  1.
</event>
<event>
 5    1  0.1264731E-009  0.9118800E+02  0.7815553E-02  0.1125453E+00
         25   -1    0    0    0    0  0.00000000000E+00  0.00000000000E+00  0.99999998245E-14  0.12509000000E+03  0.12509000000E+03 0.  0.
        -13    1    3    3    0    0  0.11362002909E+01 -0.47996583276E+02  0.21055239460E+02  0.52424204620E+02  0.10566000000E+00 0.  1.
         23    2    1    0    0    0  0.23071643573E+02 -0.18723288924E+02 -0.13953754231E+01  0.95344254794E+02  0.90585415848E+02 0.  0.
         13    1    3    3    0    0  0.21935443282E+02  0.29273294352E+02 -0.22450614884E+02  0.42920050174E+02  0.10566000000E+00 0. -1.
         22    1    1    0    0    0 -0.23071643573E+02  0.18723288924E+02  0.13953754231E+01  0.29745745206E+02  0.00000000000E+00 0.  1.
</event>
<event>
 5    1  0.1264731E-009  0.9118800E+02  0.7815553E-02  0.1125453E+00
         25   -1    0    0    0    0  0.00000000000E+00  0.00000000000E+00  0.99999998245E-14  0.12509000000E+03  0.12509000000E+03 0.  0.
        -13    1    3    3    0    0 -0.46092905374E+01 -0.20439830474E+02 -0.32262169008E+02  0.38469350686E+02  0.10566000000E+00 0.  1.
         23    2    1    0    0    0  0.15605199338E+02  0.19770253420E+02  0.78001939624E+01  0.98722819784E+02  0.95136570012E+02 0.  0.
         13    1    3    3    0    0  0.20214489875E+02  0.40210083894E+02  0.40062362970E+02  0.60253469099E+02  0.10566000000E+00 0. -1.
         22    1    1    0    0    0 -0.15605199338E+02 -0.19770253420E+02 -0.78001939624E+01  0.26367180216E+02  0.00000000000E+00 0. -1.
</event>
<event>
 5    1  0.1264731E-009  0.9118800E+02  0.7815553E-02  0.1125453E+00
         25   -1    0    0    0    0  0.00000000000E+00  0.00000000000E+00  0.99999998245E-14  0.12509000000E+03  0.12509000000E+03 0.  0.
        -13    1    3    3    0    0  0.24429751394E+02  0.14769370405E+02 -0.47031960487E+02  0.55017847346E+02  0.10566000000E+00 0. -1.
         23    2    1    0    0    0 -0.10759407038E+02  0.91451521408E+01 -0.23340337855E+02  0.97810520191E+02  0.93929376882E+02 0.  0.
         13    1    3    3    0    0 -0.35189158431E+02 -0.56242182641E+01  0.23691622633E+02  0.42792672845E+02  0.10566000000E+00 0.  1.
         22    1    1    0    0    0  0.10759407038E+02 -0.91451521408E+01  0.23340337855E+02  0.27279479809E+02  0.00000000000E+00 0. -1.
</event>
<event>
 5    1  0.1264731E-009  0.9118800E+02  0.7815553E-02  0.1125453E+00
         25   -1    0    0    0    0  0.00000000000E+00  0.00000000000E+00  0.99999998245E-14  0.12509000000E+03  0.12509000000E+03 0.  0.
        -13    1    3    3    0    0 -0.36655664440E+02 -0.27809192431E+02  0.73820419092E+01  0.46599298557E+02  0.10566000000E+00 0. -1.
         23    2    1    0    0    0 -0.18795953825E+02 -0.56115996405E+01 -0.27293939257E+02  0.91478438732E+02  0.85079772578E+02 0.  0.
         13    1    3    3    0    0  0.17859710615E+02  0.22197592791E+02 -0.34675981166E+02  0.44879140175E+02  0.10566000000E+00 0.  1.
         22    1    1    0    0    0  0.18795953825E+02  0.56115996405E+01  0.27293939257E+02  0.33611561268E+02  0.00000000000E+00 0. -1.
</event>
<event>
 5    1  0.1264731E-009  0.9118800E+02  0.7815553E-02  0.1125453E+00
         25   -1    0    0    0    0  0.00000000000E+00  0.00000000000E+00  0.99999998245E-14  0.12509000000E+03  0.12509000000E+03 0.  0.
        -13    1    3    3    0    0 -0.24574277018E+02  0.95339540293E+01 -0.40726115486E+02  0.48512050225E+02  0.10566000000E+00 0.  1.
         23    2    1    0    0    0  0.50861302062E+01 -0.20412976175E+02 -0.22052108121E+02  0.94612897294E+02  0.89569785893E+02 0.  0.
         13    1    3    3    0    0  0.29660407225E+02 -0.29946930204E+02  0.18674007365E+02  0.46100847069E+02  0.10566000000E+00 0. -1.
         22    1    1    0    0    0 -0.50861302062E+01  0.20412976175E+02  0.22052108121E+02  0.30477102706E+02  0.00000000000E+00 0.  1.
</event>
<event>
 5    1  0.1264731E-009  0.9118800E+02  0.7815553E-02  0.1125453E+00
         25   -1    0    0    0    0  0.00000000000E+00  0.00000000000E+00  0.99999998245E-14  0.12509000000E+03  0.12509000000E+03 0.  0.
        -13    1    3    3    0    0  0.73050506458E+00 -0.37048835413E+02  0.16284081996E+02  0.40476318183E+02  0.10566000000E+00 0. -1.
         23    2    1    0    0    0  0.26463282704E+02  0.10305070112E+02  0.30491511964E+00  0.96689422986E+02  0.92424302771E+02 0.  0.
         13    1    3    3    0    0  0.25732777640E+02  0.47353905525E+02 -0.15979166876E+02  0.56213104804E+02  0.10566000000E+00 0.  1.
         22    1    1    0    0    0 -0.26463282704E+02 -0.10305070112E+02 -0.30491511964E+00  0.28400577014E+02  0.00000000000E+00 0.  1.
</event>
<event>
 5    1  0.1264731E-009  0.9118800E+02  0.7815553E-02  0.1125453E+00
         25   -1    0    0    0    0  0.00000000000E+00  0.00000000000E+00  0.99999998245E-14  0.12509000000E+03  0.12509000000E+03 0.  0.
        -13    1    3    3    0    0 -0.13837207038E+02 -0.39445037280E+02  0.51613329692E+01  0.42119232979E+02  0.10566000000E+00 0. -1.
         23    2    1    0    0    0  0.25877669268E+02 -0.17619824603E+01 -0.70484360668E+01  0.98211778335E+02  0.94462239036E+02 0.  0.
         13    1    3    3    0    0  0.39714876306E+02  0.37683054820E+02 -0.12209769036E+02  0.56092545356E+02  0.10566000000E+00 0.  1.
         22    1    1    0    0    0 -0.25877669268E+02  0.17619824603E+01  0.70484360668E+01  0.26878221665E+02  0.00000000000E+00 0.  1.
</event>
<event>
 5    1  0.1264731E-009  0.9118800E+02  0.7815553E-02  0.1125453E+00
         25   -1    0    0    0    0  0.00000000000E+00  0.00000000000E+00  0.99999998245E-14  0.12509000000E+03  0.12509000000E+03 0.  0.
        -13    1    3    3    0    0  0.26218387323E+02 -0.24403697475E+02 -0.67138012269E+01  0.36442153823E+02  0.10566000000E+00 0.  1.
         23    2    1    0    0    0 -0.65693000288E+01  0.26774109834E+02 -0.34062554225E+01  0.97312108859E+02  0.93263258008E+02 0.  0.
         13    1    3    3    0    0 -0.32787687352E+02  0.51177807309E+02  0.33075458044E+01  0.60869955036E+02  0.10566000000E+00 0. -1.
         22    1    1    0    0    0  0.65693000288E+01 -0.26774109834E+02  0.34062554225E+01  0.27777891141E+02  0.00000000000E+00 0. -1.
</event>
<event>
 5    1  0.1264731E-009  0.9118800E+02  0.7815553E-02  0.1125453E+00
         25   -1    0    0    0    0  0.00000000000E+00  0.00000000000E+00  0.99999998245E-14  0.12509000000E+03  0.12509000000E+03 0.  0.
        -13    1    3    3    0    0  0.49040334174E+02  0.19247489817E+02  0.13435454394E+02  0.54368583198E+02  0.10566000000E+00 0.  1.
         23    2    1    0    0    0  0.80585973852E+01  0.25996933590E+02  0.10184699004E+02  0.96029551935E+02  0.91526855092E+02 0.  0.
         13    1    3    3    0    0 -0.40981736789E+02  0.67494437734E+01 -0.32507553897E+01  0.41660968737E+02  0.10566000000E+00 0. -1.
         22    1    1    0    0    0 -0.80585973852E+01 -0.25996933590E+02 -0.10184699004E+02  0.29060448065E+02  0.00000000000E+00 0.  1.
</event>
<event>
 5    1  0.1264731E-009  0.9118800E+02  0.7815553E-02  0.1125453E+00
         25   -1    0    0    0    0  0.00000000000E+00  0.00000000000E+00  0.99999998245E-14  0.12509000000E+03  0.12509000000E+03 0.  0.
        -13    1    3    3    0    0 -0.16213037615E+02 -0.56004958463E+01  0.46346620757E+02  0.49419111303E+02  0.10566000000E+00 0.  1.
         23    2    1    0    0    0 -0.25412041880E+02  0.10046421105E+02  0.15880771173E+01  0.97718035539E+02  0.93806130030E+02 0.  0.
         13    1    3    3    0    0 -0.91990042649E+01  0.15646916952E+02 -0.44758543639E+02  0.48298924235E+02  0.10566000000E+00 0. -1.
         22    1    1    0    0    0  0.25412041880E+02 -0.10046421105E+02 -0.15880771173E+01  0.27371964461E+02  0.00000000000E+00 0.  1.
</event>
<event>
 5    1  0.1264731E-009  0.9118800E+02  0.7815553E-02  0.1125453E+00
         25   -1    0    0    0    0  0.00000000000E+00  0.00000000000E+00  0.99999998245E-14  0.12509000000E+03  0.12509000000E+03 0.  0.
        -13    1    3    3    0    0 -0.37809955935E+02 -0.70788842488E+01  0.36640203823E+02  0.53124561836E+02  0.10566000000E+00 0. -1.
         23    2    1    0    0    0 -0.21577725032E+02  0.18771439472E+02  0.70572255906E+01  0.95632070839E+02  0.90981994826E+02 0.  0.
         13    1    3    3    0    0  0.16232230903E+02  0.25850323721E+02 -0.29582978233E+02  0.42507509004E+02  0.10566000000E+00 0.  1.
         22    1    1    0    0    0  0.21577725032E+02 -0.18771439472E+02 -0.70572255906E+01  0.29457929161E+02  0.00000000000E+00 0. -1.
</event>
<event>
 5    1  0.1264731E-009  0.9118800E+02  0.7815553E-02  0.1125453E+00
         25   -1    0    0    0    0  0.00000000000E+00  0.00000000000E+00  0.99999998245E-14  0.12509000000E+03  0.12509000000E+03 0.  0.
        -13    1    3    3    0    0  0.48624400253E+01 -0.49005647036E+02 -0.13796252047E+02  0.51142394341E+02  0.10566000000E+00 0. -1.
         23    2    1    0    0    0  0.66026286788E+01 -0.66441512980E+01 -0.27769678927E+02  0.95783097747E+02  0.91189403410E+02 0.  0.
         13    1    3    3    0    0  0.17401886535E+01  0.42361495738E+02 -0.13973426881E+02  0.44640703405E+02  0.10566000000E+00 0.  1.
         22    1    1    0    0    0 -0.66026286788E+01  0.66441512980E+01  0.27769678927E+02  0.29306902253E+02  0.00000000000E+00 0. -1.
</event>
<event>
 5    1  0.1264731E-009  0.9118800E+02  0.7815553E-02  0.1125453E+00
         25   -1    0    0    0    0  0.00000000000E+00  0.00000000000E+00  0.99999998245E-14  0.12509000000E+03  0.12509000000E+03 0.  0.
        -13    1    3    3    0    0 -0.37229650336E+02  0.16243647589E+02  0.47437552558E+02  0.62451865528E+02  0.10566000000E+00 0.  1.
         23    2    1    0    0    0 -0.18214363834E+02  0.59130780344E+01  0.19943681278E+02  0.97440805353E+02  0.93435713639E+02 0.  0.
         13    1    3    3    0    0  0.19015286502E+02 -0.10330569555E+02 -0.27493871280E+02  0.34988939825E+02  0.10566000000E+00 0. -1.
         22    1    1    0    0    0  0.18214363834E+02 -0.59130780344E+01 -0.19943681278E+02  0.27649194647E+02  0.00000000000E+00 0.  1.
</event>
<event>
 5    1  0.1264731E-009  0.9118800E+02  0.7815553E-02  0.1125453E+00
         25   -1    0    0    0    0  0.00000000000E+00  0.00000000000E+00  0.99999998245E-14  0.12509000000E+03  0.12509000000E+03 0.  0.
        -13    1    3    3    0    0 -0.33161259725E+02  0.19937206758E+02  0.10098134527E+02  0.39989309131E+02  0.10566000000E+00 0.  1.
         23    2    1    0    0    0  0.47578045854E+01 -0.20516080210E+02  0.19689046016E+02  0.96259377657E+02  0.91840421396E+02 0.  0.
         13    1    3    3    0    0  0.37919064311E+02 -0.40453286967E+02  0.95909114894E+01  0.56270068526E+02  0.10566000000E+00 0. -1.
         22    1    1    0    0    0 -0.47578045854E+01  0.20516080210E+02 -0.19689046016E+02  0.28830622343E+02  0.00000000000E+00 0. -1.
</event>
<event>
 5    1  0.1264731E-009  0.9118800E+02  0.7815553E-02  0.1125453E+00
         25   -1    0    0    0    0  0.00000000000E+00  0.00000000000E+00  0.99999998245E-14  0.12509000000E+03  0.12509000000E+03 0.  0.
        -13    1    3    3    0    0  0.33066052162E+02  0.78215789876E+01 -0.51743437893E+02  0.61902628639E+02  0.10566000000E+00 0.  1.
         23    2    1    0    0    0  0.17012271648E+02 -0.68452900980E+00 -0.32702361173E+02  0.88220901925E+02  0.80147346453E+02 0.  0.
         13    1    3    3    0    0 -0.16053780514E+02 -0.85061079974E+01  0.19041076720E+02  0.26318273285E+02  0.10566000000E+00 0. -1.
         22    1    1    0    0    0 -0.17012271648E+02  0.68452900980E+00  0.32702361173E+02  0.36869098075E+02  0.00000000000E+00 0.  1.
</event>
<event>
 5    1  0.1264731E-009  0.9118800E+02  0.7815553E-02  0.1125453E+00
         25   -1    0    0    0    0  0.00000000000E+00  0.00000000000E+00  0.99999998245E-14  0.12509000000E+03  0.12509000000E+03 0.  0.
        -13    1    3    3    0    0  0.32030763899E+02  0.13090421776E+02  0.19819473266E+02  0.39876705767E+02  0.10566000000E+00 0.  1.
         23    2    1    0    0    0  0.13751596537E+02 -0.21011071036E+02 -0.18165121415E+02  0.94097369434E+02  0.88846900818E+02 0.  0.
         13    1    3    3    0    0 -0.18279167361E+02 -0.34101492812E+02 -0.37984594681E+02  0.54220663667E+02  0.10566000000E+00 0. -1.
         22    1    1    0    0    0 -0.13751596537E+02  0.21011071036E+02  0.18165121415E+02  0.30992630566E+02  0.00000000000E+00 0. -1.
</event>
<event>
 5    1  0.1264731E-009  0.9118800E+02  0.7815553E-02  0.1125453E+00
         25   -1    0    0    0    0  0.00000000000E+00  0.00000000000E+00  0.99999998245E-14  0.12509000000E+03  0.12509000000E+03 0.  0.
        -13    1    3    3    0    0 -0.41811018892E+01  0.15245446854E+02  0.32091665305E+02  0.35774172371E+02  0.10566000000E+00 0. -1.
         23    2    1    0    0    0 -0.11397051921E+02 -0.27356722150E+02 -0.76524605168E+01  0.94482105737E+02  0.89386940395E+02 0.  0.
         13    1    3    3    0    0 -0.72159500322E+01 -0.42602169003E+02 -0.39744125822E+02  0.58707933365E+02  0.10566000000E+00 0.  1.
         22    1    1    0    0    0  0.11397051921E+02  0.27356722150E+02  0.76524605168E+01  0.30607894263E+02  0.00000000000E+00 0.  1.
</event>
<event>
 5    1  0.1264731E-009  0.9118800E+02  0.7815553E-02  0.1125453E+00
         25   -1    0    0    0    0  0.00000000000E+00  0.00000000000E+00  0.99999998245E-14  0.12509000000E+03  0.12509000000E+03 0.  0.
        -13    1    3    3    0    0  0.36916590157E+02  0.24272858690E+02  0.12725858987E+02  0.45977874558E+02  0.10566000000E+00 0.  1.
         23    2    1    0    0    0 -0.72278460372E+01  0.30547563421E+02  0.14303014685E+02  0.90594034753E+02  0.83769370980E+02 0.  0.
         13    1    3    3    0    0 -0.44144436195E+02  0.62747047305E+01  0.15771556977E+01  0.44616160195E+02  0.10566000000E+00 0. -1.
         22    1    1    0    0    0  0.72278460372E+01 -0.30547563421E+02 -0.14303014685E+02  0.34495965247E+02  0.00000000000E+00 0. -1.
</event>
<event>
 5    1  0.1264731E-009  0.9118800E+02  0.7815553E-02  0.1125453E+00
         25   -1    0    0    0    0  0.00000000000E+00  0.00000000000E+00  0.99999998245E-14  0.12509000000E+03  0.12509000000E+03 0.  0.
        -13    1    3    3    0    0  0.32064347804E+01 -0.73756381571E+01  0.56037059375E+02  0.56611345591E+02  0.10566000000E+00 0. -1.
         23    2    1    0    0    0 -0.12902065590E+02  0.94777369557E+01  0.24276202862E+02  0.96010371053E+02  0.91500636774E+02 0.  0.
         13    1    3    3    0    0 -0.16108500370E+02  0.16853375113E+02 -0.31760856513E+02  0.39399025462E+02  0.10566000000E+00 0.  1.
         22    1    1    0    0    0  0.12902065590E+02 -0.94777369557E+01 -0.24276202862E+02  0.29079628947E+02  0.00000000000E+00 0. -1.
</event>
<event>
 5    1  0.1264731E-009  0.9118800E+02  0.7815553E-02  0.1125453E+00
         25   -1    0    0    0    0  0.00000000000E+00  0.00000000000E+00  0.99999998245E-14  0.12509000000E+03  0.12509000000E+03 0.  0.
        -13    1    3    3    0    0  0.23440805361E+02 -0.45656216271E+02  0.27192730997E+02  0.58081126222E+02  0.10566000000E+00 0. -1.
         23    2    1    0    0    0  0.97284670692E+01 -0.10722876182E+02  0.25643602201E+02  0.95641443517E+02  0.90994880290E+02 0.  0.
         13    1    3    3    0    0 -0.13712338291E+02  0.34933340089E+02 -0.15491287962E+01  0.37560317295E+02  0.10566000000E+00 0.  1.
         22    1    1    0    0    0 -0.97284670692E+01  0.10722876182E+02 -0.25643602201E+02  0.29448556483E+02  0.00000000000E+00 0. -1.
</event>
<event>
 5    1  0.1264731E-009  0.9118800E+02  0.7815553E-02  0.1125453E+00
         25   -1    0    0    0    0  0.00000000000E+00  0.00000000000E+00  0.99999998245E-14  0.12509000000E+03  0.12509000000E+03 0.  0.
        -13    1    3    3    0    0  0.30987868146E+02  0.46185096846E+02  0.23504384970E+02  0.60380281713E+02  0.10566000000E+00 0. -1.
         23    2    1    0    0    0  0.30904427744E+01  0.23342174902E+02  0.45747590852E+01  0.10110382927E+03  0.98217350332E+02 0.  0.
         13    1    3    3    0    0 -0.27897425372E+02 -0.22842921944E+02 -0.18929625885E+02  0.40723547555E+02  0.10566000000E+00 0.  1.
         22    1    1    0    0    0 -0.30904427744E+01 -0.23342174902E+02 -0.45747590852E+01  0.23986170732E+02  0.00000000000E+00 0. -1.
</event>
<event>
 5    1  0.1264731E-009  0.9118800E+02  0.7815553E-02  0.1125453E+00
         25   -1    0    0    0    0  0.00000000000E+00  0.00000000000E+00  0.99999998245E-14  0.12509000000E+03  0.12509000000E+03 0.  0.
        -13    1    3    3    0    0 -0.80548331469E+01 -0.19327224300E+02 -0.30607458879E+02  0.37084358417E+02  0.10566000000E+00 0.  1.
         23    2    1    0    0    0  0.27385031406E+02 -0.15420038246E+01  0.11878906679E+02  0.95199765060E+02  0.90385668790E+02 0.  0.
         13    1    3    3    0    0  0.35439864553E+02  0.17785220475E+02  0.42486365558E+02  0.58115406642E+02  0.10566000000E+00 0. -1.
         22    1    1    0    0    0 -0.27385031406E+02  0.15420038246E+01 -0.11878906679E+02  0.29890234940E+02  0.00000000000E+00 0. -1.
</event>
<event>
 5    1  0.1264731E-009  0.9118800E+02  0.7815553E-02  0.1125453E+00
         25   -1    0    0    0    0  0.00000000000E+00  0.00000000000E+00  0.99999998245E-14  0.12509000000E+03  0.12509000000E+03 0.  0.
        -13    1    3    3    0    0 -0.22684184073E+02 -0.26677875279E+02 -0.21579077129E+01  0.35084882303E+02  0.10566000000E+00 0. -1.
         23    2    1    0    0    0  0.18816076715E+02  0.16040527035E+02  0.13840970007E+02  0.96754232828E+02  0.92511976894E+02 0.  0.
         13    1    3    3    0    0  0.41500260789E+02  0.42718402314E+02  0.15998877720E+02  0.61669350525E+02  0.10566000000E+00 0.  1.
         22    1    1    0    0    0 -0.18816076715E+02 -0.16040527035E+02 -0.13840970007E+02  0.28335767172E+02  0.00000000000E+00 0.  1.
</event>
<event>
 5    1  0.1264731E-009  0.9118800E+02  0.7815553E-02  0.1125453E+00
         25   -1    0    0    0    0  0.00000000000E+00  0.00000000000E+00  0.99999998245E-14  0.12509000000E+03  0.12509000000E+03 0.  0.
        -13    1    3    3    0    0 -0.32869377516E+02 -0.44123578307E+01  0.48880516948E+02  0.59069289660E+02  0.10566000000E+00 0. -1.
         23    2    1    0    0    0 -0.15489198249E+01 -0.35706669961E+00  0.28256081401E+02  0.96789244085E+02  0.92559305233E+02 0.  0.
         13    1    3    3    0    0  0.31320457691E+02  0.40552911311E+01 -0.20624435547E+02  0.37719954424E+02  0.10566000000E+00 0.  1.
         22    1    1    0    0    0  0.15489198249E+01  0.35706669961E+00 -0.28256081401E+02  0.28300755915E+02  0.00000000000E+00 0. -1.
</event>
<event>
 5    1  0.1264731E-009  0.9118800E+02  0.7815553E-02  0.1125453E+00
         25   -1    0    0    0    0  0.00000000000E+00  0.00000000000E+00  0.99999998245E-14  0.12509000000E+03  0.12509000000E+03 0.  0.
        -13    1    3    3    0    0  0.55417066797E+02  0.12009373210E+01  0.16403499591E+02  0.57806396754E+02  0.10566000000E+00 0. -1.
         23    2    1    0    0    0  0.26152424653E+02 -0.14329463311E+02 -0.10453510215E+01  0.95250837935E+02  0.90456323906E+02 0.  0.
         13    1    3    3    0    0 -0.29264642144E+02 -0.15530400632E+02 -0.17448850613E+02  0.37444441181E+02  0.10566000000E+00 0.  1.
         22    1    1    0    0    0 -0.26152424653E+02  0.14329463311E+02  0.10453510215E+01  0.29839162065E+02  0.00000000000E+00 0. -1.
</event>
<event>
 5    1  0.1264731E-009  0.9118800E+02  0.7815553E-02  0.1125453E+00
         25   -1    0    0    0    0  0.00000000000E+00  0.00000000000E+00  0.99999998245E-14  0.12509000000E+03  0.12509000000E+03 0.  0.
        -13    1    3    3    0    0  0.25740567855E+02  0.80149153526E+01  0.20440893181E+02  0.33832779662E+02  0.10566000000E+00 0.  1.
         23    2    1    0    0    0 -0.25486100185E+02 -0.15558022932E+01 -0.13680141916E+02  0.96122637223E+02  0.91653986713E+02 0.  0.
         13    1    3    3    0    0 -0.51226668041E+02 -0.95707176457E+01 -0.34121035096E+02  0.62289857560E+02  0.10566000000E+00 0. -1.
         22    1    1    0    0    0  0.25486100185E+02  0.15558022932E+01  0.13680141916E+02  0.28967362777E+02  0.00000000000E+00 0. -1.
</event>
<event>
 5    1  0.1264731E-009  0.9118800E+02  0.7815553E-02  0.1125453E+00
         25   -1    0    0    0    0  0.00000000000E+00  0.00000000000E+00  0.99999998245E-14  0.12509000000E+03  0.12509000000E+03 0.  0.
        -13    1    3    3    0    0  0.48885963271E+02 -0.30300237162E+02 -0.96563493777E+01  0.58319791018E+02  0.10566000000E+00 0. -1.
         23    2    1    0    0    0  0.25490981639E+02 -0.15272868801E+02  0.11466037453E+02  0.93238458731E+02  0.87629273108E+02 0.  0.
         13    1    3    3    0    0 -0.23394981632E+02  0.15027368361E+02  0.21122386830E+02  0.34918667714E+02  0.10566000000E+00 0.  1.
         22    1    1    0    0    0 -0.25490981639E+02  0.15272868801E+02 -0.11466037453E+02  0.31851541269E+02  0.00000000000E+00 0. -1.
</event>
<event>
 5    1  0.1264731E-009  0.9118800E+02  0.7815553E-02  0.1125453E+00
         25   -1    0    0    0    0  0.00000000000E+00  0.00000000000E+00  0.99999998245E-14  0.12509000000E+03  0.12509000000E+03 0.  0.
        -13    1    3    3    0    0  0.19668528983E+02 -0.13805216586E+02  0.15672471371E+02  0.28689241193E+02  0.10566000000E+00 0.  1.
         23    2    1    0    0    0  0.19150150849E+02  0.14241995295E+02 -0.32700011855E+02  0.84607244624E+02  0.74293555306E+02 0.  0.
         13    1    3    3    0    0 -0.51837813406E+00  0.28047211881E+02 -0.48372483226E+02  0.55918003431E+02  0.10566000000E+00 0. -1.
         22    1    1    0    0    0 -0.19150150849E+02 -0.14241995295E+02  0.32700011855E+02  0.40482755376E+02  0.00000000000E+00 0. -1.
</event>
<event>
 5    1  0.1264731E-009  0.9118800E+02  0.7815553E-02  0.1125453E+00
         25   -1    0    0    0    0  0.00000000000E+00  0.00000000000E+00  0.99999998245E-14  0.12509000000E+03  0.12509000000E+03 0.  0.
        -13    1    3    3    0    0 -0.37506192212E+02  0.10154204325E+02  0.16719340909E+02  0.42300943774E+02  0.10566000000E+00 0. -1.
         23    2    1    0    0    0 -0.41026077636E+01 -0.14851273149E+02 -0.21334394112E+02  0.98773691810E+02  0.95203435427E+02 0.  0.
         13    1    3    3    0    0  0.33403584448E+02 -0.25005477474E+02 -0.38053735021E+02  0.56472748036E+02  0.10566000000E+00 0.  1.
         22    1    1    0    0    0  0.41026077636E+01  0.14851273149E+02  0.21334394112E+02  0.26316308190E+02  0.00000000000E+00 0.  1.
</event>
<event>
 5    1  0.1264731E-009  0.9118800E+02  0.7815553E-02  0.1125453E+00
         25   -1    0    0    0    0  0.00000000000E+00  0.00000000000E+00  0.99999998245E-14  0.12509000000E+03  0.12509000000E+03 0.  0.
        -13    1    3    3    0    0  0.36631953128E+01 -0.27034342187E+02  0.40210486552E+02  0.48591861975E+02  0.10566000000E+00 0.  1.
         23    2    1    0    0    0 -0.40171421992E+01 -0.28124440304E+02 -0.65031397205E+01  0.95945319523E+02  0.91411661938E+02 0.  0.
         13    1    3    3    0    0 -0.76803375120E+01 -0.10900981176E+01 -0.46713626273E+02  0.47353457548E+02  0.10566000000E+00 0. -1.
         22    1    1    0    0    0  0.40171421992E+01  0.28124440304E+02  0.65031397205E+01  0.29144680477E+02  0.00000000000E+00 0.  1.
</event>
<event>
 5    1  0.1264731E-009  0.9118800E+02  0.7815553E-02  0.1125453E+00
         25   -1    0    0    0    0  0.00000000000E+00  0.00000000000E+00  0.99999998245E-14  0.12509000000E+03  0.12509000000E+03 0.  0.
        -13    1    3    3    0    0  0.40144365653E+02 -0.14391425898E+01 -0.16910786672E+02  0.43584711712E+02  0.10566000000E+00 0.  1.
         23    2    1    0    0    0  0.11561870336E+02 -0.27043292918E+01  0.26771942944E+02  0.95803020443E+02  0.91216728479E+02 0.  0.
         13    1    3    3    0    0 -0.28582495317E+02 -0.12651867020E+01  0.43682729617E+02  0.52218308731E+02  0.10566000000E+00 0. -1.
         22    1    1    0    0    0 -0.11561870336E+02  0.27043292918E+01 -0.26771942944E+02  0.29286979557E+02  0.00000000000E+00 0. -1.
</event>
<event>
 5    1  0.1264731E-009  0.9118800E+02  0.7815553E-02  0.1125453E+00
         25   -1    0    0    0    0  0.00000000000E+00  0.00000000000E+00  0.99999998245E-14  0.12509000000E+03  0.12509000000E+03 0.  0.
        -13    1    3    3    0    0  0.14163536910E+02  0.33387014816E+02  0.39370254193E+02  0.53528745692E+02  0.10566000000E+00 0. -1.
         23    2    1    0    0    0 -0.16184194314E+02  0.20558223469E+02  0.12263577918E+02  0.96194255657E+02  0.91751679987E+02 0.  0.
         13    1    3    3    0    0 -0.30347731224E+02 -0.12828791347E+02 -0.27106676275E+02  0.42665509965E+02  0.10566000000E+00 0.  1.
         22    1    1    0    0    0  0.16184194314E+02 -0.20558223469E+02 -0.12263577918E+02  0.28895744343E+02  0.00000000000E+00 0. -1.
</event>
<event>
 5    1  0.1264731E-009  0.9118800E+02  0.7815553E-02  0.1125453E+00
         25   -1    0    0    0    0  0.00000000000E+00  0.00000000000E+00  0.99999998245E-14  0.12509000000E+03  0.12509000000E+03 0.  0.
        -13    1    3    3    0    0  0.38574000711E+02  0.12903509595E+02 -0.17995875986E+02  0.44478273430E+02  0.10566000000E+00 0.  1.
         23    2    1    0    0    0  0.13119951250E+02 -0.27702096558E+02 -0.68050800868E+01  0.93691777288E+02  0.88274009435E+02 0.  0.
         13    1    3    3    0    0 -0.25454049461E+02 -0.40605606153E+02  0.11190795899E+02  0.49213503858E+02  0.10566000000E+00 0. -1.
         22    1    1    0    0    0 -0.13119951250E+02  0.27702096558E+02  0.68050800868E+01  0.31398222712E+02  0.00000000000E+00 0. -1.
</event>
<event>
 5    1  0.1264731E-009  0.9118800E+02  0.7815553E-02  0.1125453E+00
         25   -1    0    0    0    0  0.00000000000E+00  0.00000000000E+00  0.99999998245E-14  0.12509000000E+03  0.12509000000E+03 0.  0.
        -13    1    3    3    0    0 -0.34986844074E+02 -0.44449861260E+02  0.82687328633E+00  0.56573530098E+02  0.10566000000E+00 0. -1.
         23    2    1    0    0    0  0.18800153469E+01 -0.26804754083E+02  0.53396930308E+01  0.97693985311E+02  0.93774053688E+02 0.  0.
         13    1    3    3    0    0  0.36866859421E+02  0.17645107177E+02  0.45128197445E+01  0.41120455213E+02  0.10566000000E+00 0.  1.
         22    1    1    0    0    0 -0.18800153469E+01  0.26804754083E+02 -0.53396930308E+01  0.27396014689E+02  0.00000000000E+00 0. -1.
</event>
<event>
 5    1  0.1264731E-009  0.9118800E+02  0.7815553E-02  0.1125453E+00
         25   -1    0    0    0    0  0.00000000000E+00  0.00000000000E+00  0.99999998245E-14  0.12509000000E+03  0.12509000000E+03 0.  0.
        -13    1    3    3    0    0  0.19845748317E+02 -0.26676180451E+02 -0.33730553596E+02  0.47362788554E+02  0.10566000000E+00 0. -1.
         23    2    1    0    0    0  0.21000656472E+02  0.16210046425E+02 -0.80365331893E+01  0.97370349154E+02  0.93341340527E+02 0.  0.
         13    1    3    3    0    0  0.11549081542E+01  0.42886226875E+02  0.25694020407E+02  0.50007560600E+02  0.10566000000E+00 0.  1.
         22    1    1    0    0    0 -0.21000656472E+02 -0.16210046425E+02  0.80365331893E+01  0.27719650846E+02  0.00000000000E+00 0.  1.
</event>
<event>
 5    1  0.1264731E-009  0.9118800E+02  0.7815553E-02  0.1125453E+00
         25   -1    0    0    0    0  0.00000000000E+00  0.00000000000E+00  0.99999998245E-14  0.12509000000E+03  0.12509000000E+03 0.  0.
        -13    1    3    3    0    0 -0.22862121523E+02 -0.10519686894E+02 -0.32623489006E+02  0.41202470944E+02  0.10566000000E+00 0.  1.
         23    2    1    0    0    0  0.21695162091E+01 -0.25919673211E+02  0.13416518353E+02  0.95823308614E+02  0.91244546407E+02 0.  0.
         13    1    3    3    0    0  0.25031637732E+02 -0.15399986317E+02  0.46040007360E+02  0.54620837670E+02  0.10566000000E+00 0. -1.
         22    1    1    0    0    0 -0.21695162091E+01  0.25919673211E+02 -0.13416518353E+02  0.29266691386E+02  0.00000000000E+00 0. -1.
</event>
<event>
 5    1  0.1264731E-009  0.9118800E+02  0.7815553E-02  0.1125453E+00
         25   -1    0    0    0    0  0.00000000000E+00  0.00000000000E+00  0.99999998245E-14  0.12509000000E+03  0.12509000000E+03 0.  0.
        -13    1    3    3    0    0 -0.34171369813E+02  0.30549382813E+00 -0.25431768571E+02  0.42597674327E+02  0.10566000000E+00 0.  1.
         23    2    1    0    0    0  0.14412935313E+02 -0.18173200504E+02 -0.19257321863E+02  0.94942987441E+02  0.90029597900E+02 0.  0.
         13    1    3    3    0    0  0.48584305126E+02 -0.18478694332E+02  0.61744467077E+01  0.52345313114E+02  0.10566000000E+00 0. -1.
         22    1    1    0    0    0 -0.14412935313E+02  0.18173200504E+02  0.19257321863E+02  0.30147012559E+02  0.00000000000E+00 0. -1.
</event>
<event>
 5    1  0.1264731E-009  0.9118800E+02  0.7815553E-02  0.1125453E+00
         25   -1    0    0    0    0  0.00000000000E+00  0.00000000000E+00  0.99999998245E-14  0.12509000000E+03  0.12509000000E+03 0.  0.
        -13    1    3    3    0    0 -0.11881279831E+02 -0.28623005678E+02  0.39905593559E+02  0.50526318150E+02  0.10566000000E+00 0. -1.
         23    2    1    0    0    0 -0.28818012049E+02 -0.32235846385E+01  0.73114788941E+01  0.95184698798E+02  0.90364815306E+02 0.  0.
         13    1    3    3    0    0 -0.16936732218E+02  0.25399421039E+02 -0.32594114665E+02  0.44658380649E+02  0.10566000000E+00 0.  1.
         22    1    1    0    0    0  0.28818012049E+02  0.32235846385E+01 -0.73114788941E+01  0.29905301202E+02  0.00000000000E+00 0. -1.
</event>
<event>
 5    1  0.1264731E-009  0.9118800E+02  0.7815553E-02  0.1125453E+00
         25   -1    0    0    0    0  0.00000000000E+00  0.00000000000E+00  0.99999998245E-14  0.12509000000E+03  0.12509000000E+03 0.  0.
        -13    1    3    3    0    0 -0.32065400226E+02  0.24884371486E+00  0.48032151988E+02  0.57752494348E+02  0.10566000000E+00 0.  1.
         23    2    1    0    0    0 -0.18098498294E+02  0.16603277823E+02  0.18237156724E+02  0.94498851601E+02  0.89410371846E+02 0.  0.
         13    1    3    3    0    0  0.13966901932E+02  0.16354434108E+02 -0.29794995263E+02  0.36746357253E+02  0.10566000000E+00 0. -1.
         22    1    1    0    0    0  0.18098498294E+02 -0.16603277823E+02 -0.18237156724E+02  0.30591148399E+02  0.00000000000E+00 0.  1.
</event>
<event>
 5    1  0.1264731E-009  0.9118800E+02  0.7815553E-02  0.1125453E+00
         25   -1    0    0    0    0  0.00000000000E+00  0.00000000000E+00  0.99999998245E-14  0.12509000000E+03  0.12509000000E+03 0.  0.
        -13    1    3    3    0    0 -0.60194404402E+02  0.16624576908E+02 -0.24359185416E+01  0.62495501773E+02  0.10566000000E+00 0.  1.
         23    2    1    0    0    0 -0.35977072870E+02  0.10017014857E+02 -0.31798423155E+01  0.87609314893E+02  0.79187058917E+02 0.  0.
         13    1    3    3    0    0  0.24217331532E+02 -0.66075620505E+01 -0.74392377385E+00  0.25113813120E+02  0.10566000000E+00 0. -1.
         22    1    1    0    0    0  0.35977072870E+02 -0.10017014857E+02  0.31798423155E+01  0.37480685107E+02  0.00000000000E+00 0.  1.
</event>
<event>
 5    1  0.1264731E-009  0.9118800E+02  0.7815553E-02  0.1125453E+00
         25   -1    0    0    0    0  0.00000000000E+00  0.00000000000E+00  0.99999998245E-14  0.12509000000E+03  0.12509000000E+03 0.  0.
        -13    1    3    3    0    0  0.16656529869E+02  0.43304192080E+02 -0.95100238803E+01  0.47361849174E+02  0.10566000000E+00 0. -1.
         23    2    1    0    0    0 -0.22599344902E+02  0.18594337028E+02 -0.11139610053E+02  0.93775934923E+02  0.88393185818E+02 0.  0.
         13    1    3    3    0    0 -0.39255874771E+02 -0.24709855052E+02 -0.16295861724E+01  0.46414085749E+02  0.10566000000E+00 0.  1.
         22    1    1    0    0    0  0.22599344902E+02 -0.18594337028E+02  0.11139610053E+02  0.31314065077E+02  0.00000000000E+00 0.  1.
</event>
<event>
 5    1  0.1264731E-009  0.9118800E+02  0.7815553E-02  0.1125453E+00
         25   -1    0    0    0    0  0.00000000000E+00  0.00000000000E+00  0.99999998245E-14  0.12509000000E+03  0.12509000000E+03 0.  0.
        -13    1    3    3    0    0 -0.19017777246E+02 -0.38380964110E+02 -0.37606020223E+02  0.56999984021E+02  0.10566000000E+00 0.  1.
         23    2    1    0    0    0 -0.30254957657E+01 -0.34627498929E+01 -0.28168234514E+02  0.96548912126E+02  0.92233934837E+02 0.  0.
         13    1    3    3    0    0  0.15992281480E+02  0.34918214217E+02  0.94377857090E+01  0.39548928104E+02  0.10566000000E+00 0. -1.
         22    1    1    0    0    0  0.30254957657E+01  0.34627498929E+01  0.28168234514E+02  0.28541087874E+02  0.00000000000E+00 0.  1.
</event>
<event>
 5    1  0.1264731E-009  0.9118800E+02  0.7815553E-02  0.1125453E+00
         25   -1    0    0    0    0  0.00000000000E+00  0.00000000000E+00  0.99999998245E-14  0.12509000000E+03  0.12509000000E+03 0.  0.
        -13    1    3    3    0    0 -0.30292611140E+02  0.58777418250E+01  0.21996241627E+02  0.37895064961E+02  0.10566000000E+00 0. -1.
         23    2    1    0    0    0  0.69010197191E+01  0.23022673711E+02 -0.17939752538E+02  0.95098296162E+02  0.90245130804E+02 0.  0.
         13    1    3    3    0    0  0.37193630859E+02  0.17144931886E+02 -0.39935994165E+02  0.57203231201E+02  0.10566000000E+00 0.  1.
         22    1    1    0    0    0 -0.69010197191E+01 -0.23022673711E+02  0.17939752538E+02  0.29991703838E+02  0.00000000000E+00 0.  1.
</event>
<event>
 5    1  0.1264731E-009  0.9118800E+02  0.7815553E-02  0.1125453E+00
         25   -1    0    0    0    0  0.00000000000E+00  0.00000000000E+00  0.99999998245E-14  0.12509000000E+03  0.12509000000E+03 0.  0.
        -13    1    3    3    0    0 -0.58706781747E+02 -0.12200496513E+02  0.33276929150E+01  0.60053501500E+02  0.10566000000E+00 0.  1.
         23    2    1    0    0    0 -0.24011820208E+02 -0.15964378010E+02  0.77522864106E+01  0.95231553632E+02  0.90429652148E+02 0.  0.
         13    1    3    3    0    0  0.34694961539E+02 -0.37638814968E+01  0.44245934955E+01  0.35178052132E+02  0.10566000000E+00 0. -1.
         22    1    1    0    0    0  0.24011820208E+02  0.15964378010E+02 -0.77522864106E+01  0.29858446368E+02  0.00000000000E+00 0.  1.
</event>
<event>
 5    1  0.1264731E-009  0.9118800E+02  0.7815553E-02  0.1125453E+00
         25   -1    0    0    0    0  0.00000000000E+00  0.00000000000E+00  0.99999998245E-14  0.12509000000E+03  0.12509000000E+03 0.  0.
        -13    1    3    3    0    0  0.39590108783E+02 -0.26951255518E+02 -0.39183501026E+02  0.61879760860E+02  0.10566000000E+00 0. -1.
         23    2    1    0    0    0  0.15903210979E+02 -0.18181795697E+02 -0.16420987996E+02  0.95881462532E+02  0.91324236632E+02 0.  0.
         13    1    3    3    0    0 -0.23686897804E+02  0.87694598211E+01  0.22762513030E+02  0.34001701672E+02  0.10566000000E+00 0.  1.
         22    1    1    0    0    0 -0.15903210979E+02  0.18181795697E+02  0.16420987996E+02  0.29208537468E+02  0.00000000000E+00 0. -1.
</event>
<event>
 5    1  0.1264731E-009  0.9118800E+02  0.7815553E-02  0.1125453E+00
         25   -1    0    0    0    0  0.00000000000E+00  0.00000000000E+00  0.99999998245E-14  0.12509000000E+03  0.12509000000E+03 0.  0.
        -13    1    3    3    0    0  0.99263127386E+01 -0.42179166415E+02 -0.69132827316E+01  0.43879589859E+02  0.10566000000E+00 0. -1.
         23    2    1    0    0    0 -0.23090955709E+02 -0.25114935300E+02 -0.22542515835E+02  0.84198469937E+02  0.73602072722E+02 0.  0.
         13    1    3    3    0    0 -0.33017268448E+02  0.17064231115E+02 -0.15629233104E+02  0.40318880078E+02  0.10566000000E+00 0.  1.
         22    1    1    0    0    0  0.23090955709E+02  0.25114935300E+02  0.22542515835E+02  0.40891530063E+02  0.00000000000E+00 0. -1.
</event>
<event>
 5    1  0.1264731E-009  0.9118800E+02  0.7815553E-02  0.1125453E+00
         25   -1    0    0    0    0  0.00000000000E+00  0.00000000000E+00  0.99999998245E-14  0.12509000000E+03  0.12509000000E+03 0.  0.
        -13    1    3    3    0    0 -0.44307654451E+01  0.31657430332E+02 -0.24993304523E+02  0.40577099609E+02  0.10566000000E+00 0.  1.
         23    2    1    0    0    0  0.15652214990E+02 -0.19464527938E+02 -0.13521673700E+02  0.96687617325E+02  0.92421858900E+02 0.  0.
         13    1    3    3    0    0  0.20082980435E+02 -0.51121958271E+02  0.11471630823E+02  0.56110517716E+02  0.10566000000E+00 0. -1.
         22    1    1    0    0    0 -0.15652214990E+02  0.19464527938E+02  0.13521673700E+02  0.28402382675E+02  0.00000000000E+00 0. -1.
</event>
<event>
 5    1  0.1264731E-009  0.9118800E+02  0.7815553E-02  0.1125453E+00
         25   -1    0    0    0    0  0.00000000000E+00  0.00000000000E+00  0.99999998245E-14  0.12509000000E+03  0.12509000000E+03 0.  0.
        -13    1    3    3    0    0  0.16341598300E+02  0.12403836669E+01 -0.42205006824E+02  0.45275381298E+02  0.10566000000E+00 0. -1.
         23    2    1    0    0    0  0.32324190548E+02  0.83463568759E+01  0.79433111997E+00  0.91696199234E+02  0.85399338548E+02 0.  0.
         13    1    3    3    0    0  0.15982592247E+02  0.71059732090E+01  0.42999337944E+02  0.46420817936E+02  0.10566000000E+00 0.  1.
         22    1    1    0    0    0 -0.32324190548E+02 -0.83463568759E+01 -0.79433111997E+00  0.33393800766E+02  0.00000000000E+00 0.  1.
</event>
<event>
 5    1  0.1264731E-009  0.9118800E+02  0.7815553E-02  0.1125453E+00
         25   -1    0    0    0    0  0.00000000000E+00  0.00000000000E+00  0.99999998245E-14  0.12509000000E+03  0.12509000000E+03 0.  0.
        -13    1    3    3    0    0 -0.57490029114E+02  0.81011357806E+01 -0.49758834927E+01  0.58270939833E+02  0.10566000000E+00 0.  1.
         23    2    1    0    0    0 -0.25930676839E+02 -0.11423591599E+02  0.40576342848E+01  0.96465485291E+02  0.92120719765E+02 0.  0.
         13    1    3    3    0    0  0.31559352275E+02 -0.19524727380E+02  0.90335177775E+01  0.38194545458E+02  0.10566000000E+00 0. -1.
         22    1    1    0    0    0  0.25930676839E+02  0.11423591599E+02 -0.40576342848E+01  0.28624514709E+02  0.00000000000E+00 0.  1.
</event>
<event>
 5    1  0.1264731E-009  0.9118800E+02  0.7815553E-02  0.1125453E+00
         25   -1    0    0    0    0  0.00000000000E+00  0.00000000000E+00  0.99999998245E-14  0.12509000000E+03  0.12509000000E+03 0.  0.
        -13    1    3    3    0    0 -0.22765607315E+02 -0.31761410550E+02  0.34687843173E+02  0.52252442092E+02  0.10566000000E+00 0.  1.
         23    2    1    0    0    0 -0.27500442457E+02 -0.81727993977E+01 -0.22258623652E+01  0.96314603416E+02  0.91915610113E+02 0.  0.
         13    1    3    3    0    0 -0.47348351421E+01  0.23588611153E+02 -0.36913705538E+02  0.44062161324E+02  0.10566000000E+00 0. -1.
         22    1    1    0    0    0  0.27500442457E+02  0.81727993977E+01  0.22258623652E+01  0.28775396584E+02  0.00000000000E+00 0.  1.
</event>
<event>
 5    1  0.1264731E-009  0.9118800E+02  0.7815553E-02  0.1125453E+00
         25   -1    0    0    0    0  0.00000000000E+00  0.00000000000E+00  0.99999998245E-14  0.12509000000E+03  0.12509000000E+03 0.  0.
        -13    1    3    3    0    0 -0.63172885095E+01  0.11443818372E+02 -0.57179170043E+02  0.58654392537E+02  0.10566000000E+00 0. -1.
         23    2    1    0    0    0 -0.16685066808E+02 -0.17858595512E+01 -0.24635605751E+02  0.95282386553E+02  0.90499941258E+02 0.  0.
         13    1    3    3    0    0 -0.10367778298E+02 -0.13229677923E+02  0.32543564292E+02  0.36627994016E+02  0.10566000000E+00 0.  1.
         22    1    1    0    0    0  0.16685066808E+02  0.17858595512E+01  0.24635605751E+02  0.29807613447E+02  0.00000000000E+00 0. -1.
</event>
<event>
 5    1  0.1264731E-009  0.9118800E+02  0.7815553E-02  0.1125453E+00
         25   -1    0    0    0    0  0.00000000000E+00  0.00000000000E+00  0.99999998245E-14  0.12509000000E+03  0.12509000000E+03 0.  0.
        -13    1    3    3    0    0 -0.15553449535E+02 -0.18753391003E+02  0.55835110350E+02  0.60919374409E+02  0.10566000000E+00 0. -1.
         23    2    1    0    0    0 -0.13803941803E+02 -0.14206581531E+02  0.20520260750E+02  0.96568834713E+02  0.92260950398E+02 0.  0.
         13    1    3    3    0    0  0.17495077316E+01  0.45468094717E+01 -0.35314849600E+02  0.35649460304E+02  0.10566000000E+00 0.  1.
         22    1    1    0    0    0  0.13803941803E+02  0.14206581531E+02 -0.20520260750E+02  0.28521165287E+02  0.00000000000E+00 0. -1.
</event>
<event>
 5    1  0.1264731E-009  0.9118800E+02  0.7815553E-02  0.1125453E+00
         25   -1    0    0    0    0  0.00000000000E+00  0.00000000000E+00  0.99999998245E-14  0.12509000000E+03  0.12509000000E+03 0.  0.
        -13    1    3    3    0    0  0.31963103683E+02  0.77879579624E+00 -0.80012138851E+01  0.32958718234E+02  0.10566000000E+00 0.  1.
         23    2    1    0    0    0 -0.22361342788E+02  0.71388900555E+01  0.19860781367E+02  0.94341926255E+02  0.89190554491E+02 0.  0.
         13    1    3    3    0    0 -0.54324446472E+02  0.63600942592E+01  0.27861995252E+02  0.61383208021E+02  0.10566000000E+00 0. -1.
         22    1    1    0    0    0  0.22361342788E+02 -0.71388900555E+01 -0.19860781367E+02  0.30748073745E+02  0.00000000000E+00 0. -1.
</event>
<event>
 5    1  0.1264731E-009  0.9118800E+02  0.7815553E-02  0.1125453E+00
         25   -1    0    0    0    0  0.00000000000E+00  0.00000000000E+00  0.99999998245E-14  0.12509000000E+03  0.12509000000E+03 0.  0.
        -13    1    3    3    0    0 -0.11290113691E+02 -0.38152328145E+02  0.27647875375E+02  0.48450830610E+02  0.10566000000E+00 0.  1.
         23    2    1    0    0    0 -0.23042663430E+02 -0.14576381353E+02 -0.11385902266E+02  0.95542174331E+02  0.90858313182E+02 0.  0.
         13    1    3    3    0    0 -0.11752549740E+02  0.23575946792E+02 -0.39033777641E+02  0.47091343721E+02  0.10566000000E+00 0. -1.
         22    1    1    0    0    0  0.23042663430E+02  0.14576381353E+02  0.11385902266E+02  0.29547825669E+02  0.00000000000E+00 0.  1.
</event>
<event>
 5    1  0.1264731E-009  0.9118800E+02  0.7815553E-02  0.1125453E+00
         25   -1    0    0    0    0  0.00000000000E+00  0.00000000000E+00  0.99999998245E-14  0.12509000000E+03  0.12509000000E+03 0.  0.
        -13    1    3    3    0    0  0.45685311333E+02  0.44502480867E+01  0.94532661953E+01  0.46864995310E+02  0.10566000000E+00 0.  1.
         23    2    1    0    0    0  0.93194735728E+01 -0.27511613362E+02  0.61925003760E+01  0.95390024944E+02  0.90648598116E+02 0.  0.
         13    1    3    3    0    0 -0.36365837760E+02 -0.31961861448E+02 -0.32607658193E+01  0.48525029634E+02  0.10566000000E+00 0. -1.
         22    1    1    0    0    0 -0.93194735728E+01  0.27511613362E+02 -0.61925003760E+01  0.29699975056E+02  0.00000000000E+00 0.  1.
</event>
<event>
 5    1  0.1264731E-009  0.9118800E+02  0.7815553E-02  0.1125453E+00
         25   -1    0    0    0    0  0.00000000000E+00  0.00000000000E+00  0.99999998245E-14  0.12509000000E+03  0.12509000000E+03 0.  0.
        -13    1    3    3    0    0 -0.31910427585E+02  0.12214327208E+02  0.70023791363E+01  0.34878498468E+02  0.10566000000E+00 0.  1.
         23    2    1    0    0    0  0.24487115481E+02 -0.10545140850E+02 -0.74869571668E+01  0.97397521820E+02  0.93377748467E+02 0.  0.
         13    1    3    3    0    0  0.56397543067E+02 -0.22759468058E+02 -0.14489336303E+02  0.62519023351E+02  0.10566000000E+00 0. -1.
         22    1    1    0    0    0 -0.24487115481E+02  0.10545140850E+02  0.74869571668E+01  0.27692478180E+02  0.00000000000E+00 0. -1.
</event>
<event>
 5    1  0.1264731E-009  0.9118800E+02  0.7815553E-02  0.1125453E+00
         25   -1    0    0    0    0  0.00000000000E+00  0.00000000000E+00  0.99999998245E-14  0.12509000000E+03  0.12509000000E+03 0.  0.
        -13    1    3    3    0    0 -0.45300590646E+02  0.22634710076E+02  0.33865990414E+02  0.60921179272E+02  0.10566000000E+00 0. -1.
         23    2    1    0    0    0 -0.13928289794E+02  0.10761735488E+02  0.22889502309E+02  0.96215417349E+02  0.91780526324E+02 0.  0.
         13    1    3    3    0    0  0.31372300851E+02 -0.11872974588E+02 -0.10976488105E+02  0.35294238077E+02  0.10566000000E+00 0.  1.
         22    1    1    0    0    0  0.13928289794E+02 -0.10761735488E+02 -0.22889502309E+02  0.28874582651E+02  0.00000000000E+00 0. -1.
</event>
<event>
 5    1  0.1264731E-009  0.9118800E+02  0.7815553E-02  0.1125453E+00
         25   -1    0    0    0    0  0.00000000000E+00  0.00000000000E+00  0.99999998245E-14  0.12509000000E+03  0.12509000000E+03 0.  0.
        -13    1    3    3    0    0  0.12101437134E+02  0.10008481793E+02  0.52021638762E+02  0.54340376811E+02  0.10566000000E+00 0.  1.
         23    2    1    0    0    0  0.25888473383E+02  0.13086680268E+01  0.14182100912E+02  0.95542450992E+02  0.90858694076E+02 0.  0.
         13    1    3    3    0    0  0.13787036249E+02 -0.86998137658E+01 -0.37839537850E+02  0.41202074181E+02  0.10566000000E+00 0. -1.
         22    1    1    0    0    0 -0.25888473383E+02 -0.13086680268E+01 -0.14182100912E+02  0.29547549008E+02  0.00000000000E+00 0.  1.
</event>
<event>
 5    1  0.1264731E-009  0.9118800E+02  0.7815553E-02  0.1125453E+00
         25   -1    0    0    0    0  0.00000000000E+00  0.00000000000E+00  0.99999998245E-14  0.12509000000E+03  0.12509000000E+03 0.  0.
        -13    1    3    3    0    0  0.12942279694E+02  0.25240520234E+02  0.24079626610E+02  0.37207876143E+02  0.10566000000E+00 0.  1.
         23    2    1    0    0    0 -0.26114830880E+02 -0.13552375962E+02  0.69769538627E+01  0.94852123565E+02  0.89903260083E+02 0.  0.
         13    1    3    3    0    0 -0.39057110574E+02 -0.38792896197E+02 -0.17102672747E+02  0.57644247422E+02  0.10566000000E+00 0. -1.
         22    1    1    0    0    0  0.26114830880E+02  0.13552375962E+02 -0.69769538627E+01  0.30237876435E+02  0.00000000000E+00 0. -1.
</event>
<event>
 5    1  0.1264731E-009  0.9118800E+02  0.7815553E-02  0.1125453E+00
         25   -1    0    0    0    0  0.00000000000E+00  0.00000000000E+00  0.99999998245E-14  0.12509000000E+03  0.12509000000E+03 0.  0.
        -13    1    3    3    0    0 -0.24478628445E+02  0.21426341525E+02  0.52153805703E+02  0.61468056542E+02  0.10566000000E+00 0. -1.
         23    2    1    0    0    0 -0.61858482304E+01  0.49651628217E+01  0.28144597354E+02  0.95849002747E+02  0.91279764500E+02 0.  0.
         13    1    3    3    0    0  0.18292780215E+02 -0.16461178704E+02 -0.24009208349E+02  0.34380946204E+02  0.10566000000E+00 0.  1.
         22    1    1    0    0    0  0.61858482304E+01 -0.49651628217E+01 -0.28144597354E+02  0.29240997253E+02  0.00000000000E+00 0. -1.
</event>
<event>
 5    1  0.1264731E-009  0.9118800E+02  0.7815553E-02  0.1125453E+00
         25   -1    0    0    0    0  0.00000000000E+00  0.00000000000E+00  0.99999998245E-14  0.12509000000E+03  0.12509000000E+03 0.  0.
        -13    1    3    3    0    0  0.23882351295E+02 -0.16350887553E+02  0.36495241067E+02  0.46579308837E+02  0.10566000000E+00 0. -1.
         23    2    1    0    0    0  0.22766874694E+02  0.19490735907E+02  0.42202666389E+01  0.94824012158E+02  0.89864137796E+02 0.  0.
         13    1    3    3    0    0 -0.11154766008E+01  0.35841623460E+02 -0.32274974428E+02  0.48244703322E+02  0.10566000000E+00 0.  1.
         22    1    1    0    0    0 -0.22766874694E+02 -0.19490735907E+02 -0.42202666389E+01  0.30265987842E+02  0.00000000000E+00 0.  1.
</event>
<event>
 5    1  0.1264731E-009  0.9118800E+02  0.7815553E-02  0.1125453E+00
         25   -1    0    0    0    0  0.00000000000E+00  0.00000000000E+00  0.99999998245E-14  0.12509000000E+03  0.12509000000E+03 0.  0.
        -13    1    3    3    0    0  0.10723724033E+02 -0.25486487924E+01  0.50687775613E+02  0.51872493949E+02  0.10566000000E+00 0. -1.
         23    2    1    0    0    0 -0.19148789398E+02 -0.10572810285E+02  0.19790649094E+02  0.95592029828E+02  0.90926926278E+02 0.  0.
         13    1    3    3    0    0 -0.29872513431E+02 -0.80241614924E+01 -0.30897126519E+02  0.43719535879E+02  0.10566000000E+00 0.  1.
         22    1    1    0    0    0  0.19148789398E+02  0.10572810285E+02 -0.19790649094E+02  0.29497970172E+02  0.00000000000E+00 0. -1.
</event>
<event>
 5    1  0.1264731E-009  0.9118800E+02  0.7815553E-02  0.1125453E+00
         25   -1    0    0    0    0  0.00000000000E+00  0.00000000000E+00  0.99999998245E-14  0.12509000000E+03  0.12509000000E+03 0.  0.
        -13    1    3    3    0    0 -0.17129084956E+02 -0.29653524632E+02 -0.52332861525E+02  0.62541799095E+02  0.10566000000E+00 0. -1.
         23    2    1    0    0    0 -0.83386504867E+01 -0.14144980603E+02 -0.25858387331E+02  0.94458810608E+02  0.89354334746E+02 0.  0.
         13    1    3    3    0    0  0.87904344695E+01  0.15508544029E+02  0.26474474194E+02  0.31917011514E+02  0.10566000000E+00 0.  1.
         22    1    1    0    0    0  0.83386504867E+01  0.14144980603E+02  0.25858387331E+02  0.30631189392E+02  0.00000000000E+00 0. -1.
</event>
<event>
 5    1  0.1264731E-009  0.9118800E+02  0.7815553E-02  0.1125453E+00
         25   -1    0    0    0    0  0.00000000000E+00  0.00000000000E+00  0.99999998245E-14  0.12509000000E+03  0.12509000000E+03 0.  0.
        -13    1    3    3    0    0  0.18497099073E+02  0.10614451499E+02  0.32795177682E+02  0.39119612703E+02  0.10566000000E+00 0.  1.
         23    2    1    0    0    0 -0.63550172733E+01  0.16798691290E+02 -0.20249413006E+02  0.98023027493E+02  0.94211957406E+02 0.  0.
         13    1    3    3    0    0 -0.24852116347E+02  0.61842397910E+01 -0.53044590688E+02  0.58903414790E+02  0.10566000000E+00 0. -1.
         22    1    1    0    0    0  0.63550172733E+01 -0.16798691290E+02  0.20249413006E+02  0.27066972507E+02  0.00000000000E+00 0. -1.
</event>
<event>
 5    1  0.1264731E-009  0.9118800E+02  0.7815553E-02  0.1125453E+00
         25   -1    0    0    0    0  0.00000000000E+00  0.00000000000E+00  0.99999998245E-14  0.12509000000E+03  0.12509000000E+03 0.  0.
        -13    1    3    3    0    0  0.47709456930E+02 -0.31977714155E+02  0.15793305878E+02  0.59566820947E+02  0.10566000000E+00 0. -1.
         23    2    1    0    0    0  0.23061289304E+02 -0.18700169870E+01 -0.96573222418E+00  0.10193287007E+03  0.99267604655E+02 0.  0.
         13    1    3    3    0    0 -0.24648167626E+02  0.30107697168E+02 -0.16759038102E+02  0.42366049122E+02  0.10566000000E+00 0.  1.
         22    1    1    0    0    0 -0.23061289304E+02  0.18700169870E+01  0.96573222418E+00  0.23157129931E+02  0.00000000000E+00 0. -1.
</event>
<event>
 5    1  0.1264731E-009  0.9118800E+02  0.7815553E-02  0.1125453E+00
         25   -1    0    0    0    0  0.00000000000E+00  0.00000000000E+00  0.99999998245E-14  0.12509000000E+03  0.12509000000E+03 0.  0.
        -13    1    3    3    0    0  0.52694944185E+02 -0.26285418368E+02  0.77001916700E+01  0.59388420396E+02  0.10566000000E+00 0.  1.
         23    2    1    0    0    0  0.27161989023E+02 -0.27645157299E+01  0.13577334687E+02  0.94598030367E+02  0.89549020861E+02 0.  0.
         13    1    3    3    0    0 -0.25532955162E+02  0.23520902638E+02  0.58771430168E+01  0.35209609971E+02  0.10566000000E+00 0. -1.
         22    1    1    0    0    0 -0.27161989023E+02  0.27645157299E+01 -0.13577334687E+02  0.30491969633E+02  0.00000000000E+00 0.  1.
</event>
<event>
 5    1  0.1264731E-009  0.9118800E+02  0.7815553E-02  0.1125453E+00
         25   -1    0    0    0    0  0.00000000000E+00  0.00000000000E+00  0.99999998245E-14  0.12509000000E+03  0.12509000000E+03 0.  0.
        -13    1    3    3    0    0 -0.37119428106E+02 -0.58422454130E+01 -0.64651279995E+01  0.38128635151E+02  0.10566000000E+00 0. -1.
         23    2    1    0    0    0  0.49665028554E-01  0.31974460242E+02  0.58984826182E+01  0.92575992686E+02  0.86678450322E+02 0.  0.
         13    1    3    3    0    0  0.37169093135E+02  0.37816705655E+02  0.12363610618E+02  0.54447357536E+02  0.10566000000E+00 0.  1.
         22    1    1    0    0    0 -0.49665028554E-01 -0.31974460242E+02 -0.58984826182E+01  0.32514007314E+02  0.00000000000E+00 0.  1.
</event>
<event>
 5    1  0.1264731E-009  0.9118800E+02  0.7815553E-02  0.1125453E+00
         25   -1    0    0    0    0  0.00000000000E+00  0.00000000000E+00  0.99999998245E-14  0.12509000000E+03  0.12509000000E+03 0.  0.
        -13    1    3    3    0    0 -0.10038456751E+02 -0.30329642475E+02 -0.50533608272E+00  0.31951906910E+02  0.10566000000E+00 0. -1.
         23    2    1    0    0    0  0.12644567197E+02  0.25294755449E+02  0.13680127824E+02  0.93675741611E+02  0.88251282916E+02 0.  0.
         13    1    3    3    0    0  0.22683023948E+02  0.55624397925E+02  0.14185463907E+02  0.61723834701E+02  0.10566000000E+00 0.  1.
         22    1    1    0    0    0 -0.12644567197E+02 -0.25294755449E+02 -0.13680127824E+02  0.31414258389E+02  0.00000000000E+00 0.  1.
</event>
<event>
 5    1  0.1264731E-009  0.9118800E+02  0.7815553E-02  0.1125453E+00
         25   -1    0    0    0    0  0.00000000000E+00  0.00000000000E+00  0.99999998245E-14  0.12509000000E+03  0.12509000000E+03 0.  0.
        -13    1    3    3    0    0  0.12710267201E+02 -0.51063209095E+02 -0.20606702061E+02  0.56512384034E+02  0.10566000000E+00 0. -1.
         23    2    1    0    0    0  0.29417984175E+01 -0.83598134533E+01 -0.23058062530E+02  0.10038747166E+03  0.97300717156E+02 0.  0.
         13    1    3    3    0    0 -0.97684687834E+01  0.42703395642E+02 -0.24513604691E+01  0.43875087622E+02  0.10566000000E+00 0.  1.
         22    1    1    0    0    0 -0.29417984175E+01  0.83598134533E+01  0.23058062530E+02  0.24702528343E+02  0.00000000000E+00 0. -1.
</event>
<event>
 5    1  0.1264731E-009  0.9118800E+02  0.7815553E-02  0.1125453E+00
         25   -1    0    0    0    0  0.00000000000E+00  0.00000000000E+00  0.99999998245E-14  0.12509000000E+03  0.12509000000E+03 0.  0.
        -13    1    3    3    0    0 -0.14883605733E+02 -0.24635347385E+02 -0.16676122158E+02  0.33264489695E+02  0.10566000000E+00 0.  1.
         23    2    1    0    0    0  0.17009360205E+02  0.15384292349E+02  0.18718731831E+02  0.95486187627E+02  0.90781200260E+02 0.  0.
         13    1    3    3    0    0  0.31892965938E+02  0.40019639734E+02  0.35394853988E+02  0.62221697933E+02  0.10566000000E+00 0. -1.
         22    1    1    0    0    0 -0.17009360205E+02 -0.15384292349E+02 -0.18718731831E+02  0.29603812373E+02  0.00000000000E+00 0. -1.
</event>
<event>
 5    1  0.1264731E-009  0.9118800E+02  0.7815553E-02  0.1125453E+00
         25   -1    0    0    0    0  0.00000000000E+00  0.00000000000E+00  0.99999998245E-14  0.12509000000E+03  0.12509000000E+03 0.  0.
        -13    1    3    3    0    0  0.17940087474E+01 -0.42414283864E+02  0.20620025028E+02  0.47195196146E+02  0.10566000000E+00 0. -1.
         23    2    1    0    0    0  0.38960883815E+01  0.15364822798E-01  0.33326450651E+02  0.91536579105E+02  0.85165211562E+02 0.  0.
         13    1    3    3    0    0  0.21020796341E+01  0.42429648687E+02  0.12706425623E+02  0.44341382958E+02  0.10566000000E+00 0.  1.
         22    1    1    0    0    0 -0.38960883815E+01 -0.15364822798E-01 -0.33326450651E+02  0.33553420895E+02  0.00000000000E+00 0. -1.
</event>
<event>
 5    1  0.1264731E-009  0.9118800E+02  0.7815553E-02  0.1125453E+00
         25   -1    0    0    0    0  0.00000000000E+00  0.00000000000E+00  0.99999998245E-14  0.12509000000E+03  0.12509000000E+03 0.  0.
        -13    1    3    3    0    0  0.10925598363E+01  0.20176403442E+02 -0.10850540574E+02  0.22935264063E+02  0.10566000000E+00 0.  1.
         23    2    1    0    0    0  0.89240390454E+01 -0.39499119343E+02  0.22538952558E+01  0.84532646221E+02  0.74167845672E+02 0.  0.
         13    1    3    3    0    0  0.78314792090E+01 -0.59675522785E+02  0.13104435830E+02  0.61597382158E+02  0.10566000000E+00 0. -1.
         22    1    1    0    0    0 -0.89240390454E+01  0.39499119343E+02 -0.22538952558E+01  0.40557353779E+02  0.00000000000E+00 0. -1.
</event>
<event>
 5    1  0.1264731E-009  0.9118800E+02  0.7815553E-02  0.1125453E+00
         25   -1    0    0    0    0  0.00000000000E+00  0.00000000000E+00  0.99999998245E-14  0.12509000000E+03  0.12509000000E+03 0.  0.
        -13    1    3    3    0    0  0.60405368065E+01 -0.38183961496E+01 -0.54081975246E+02  0.54552171768E+02  0.10566000000E+00 0.  1.
         23    2    1    0    0    0 -0.11434458955E+02 -0.18723420161E+02 -0.30975840940E+02  0.87131917382E+02  0.78429299312E+02 0.  0.
         13    1    3    3    0    0 -0.17474995762E+02 -0.14905024011E+02  0.23106134306E+02  0.32579745614E+02  0.10566000000E+00 0. -1.
         22    1    1    0    0    0  0.11434458955E+02  0.18723420161E+02  0.30975840940E+02  0.37958082618E+02  0.00000000000E+00 0.  1.
</event>
<event>
 5    1  0.1264731E-009  0.9118800E+02  0.7815553E-02  0.1125453E+00
         25   -1    0    0    0    0  0.00000000000E+00  0.00000000000E+00  0.99999998245E-14  0.12509000000E+03  0.12509000000E+03 0.  0.
        -13    1    3    3    0    0  0.23515139677E+02 -0.45574814122E+02 -0.31982056223E+02  0.60439131038E+02  0.10566000000E+00 0.  1.
         23    2    1    0    0    0  0.20911742138E+02 -0.16084454893E+02 -0.12363890322E+02  0.95954515924E+02  0.91424245656E+02 0.  0.
         13    1    3    3    0    0 -0.26033975394E+01  0.29490359229E+02  0.19618165901E+02  0.35515384886E+02  0.10566000000E+00 0. -1.
         22    1    1    0    0    0 -0.20911742138E+02  0.16084454893E+02  0.12363890322E+02  0.29135484076E+02  0.00000000000E+00 0.  1.
</event>
<event>
 5    1  0.1264731E-009  0.9118800E+02  0.7815553E-02  0.1125453E+00
         25   -1    0    0    0    0  0.00000000000E+00  0.00000000000E+00  0.99999998245E-14  0.12509000000E+03  0.12509000000E+03 0.  0.
        -13    1    3    3    0    0  0.36549446216E+02  0.27578937700E+02  0.61381867888E+01  0.46196843230E+02  0.10566000000E+00 0.  1.
         23    2    1    0    0    0  0.24331385541E+02 -0.18042378727E+02 -0.40994284476E+01  0.94522876059E+02  0.89443977060E+02 0.  0.
         13    1    3    3    0    0 -0.12218060676E+02 -0.45621316426E+02 -0.10237615236E+02  0.48326032828E+02  0.10566000000E+00 0. -1.
         22    1    1    0    0    0 -0.24331385541E+02  0.18042378727E+02  0.40994284476E+01  0.30567123941E+02  0.00000000000E+00 0. -1.
</event>
<event>
 5    1  0.1264731E-009  0.9118800E+02  0.7815553E-02  0.1125453E+00
         25   -1    0    0    0    0  0.00000000000E+00  0.00000000000E+00  0.99999998245E-14  0.12509000000E+03  0.12509000000E+03 0.  0.
        -13    1    3    3    0    0 -0.12514623420E+02  0.25802555764E+02 -0.32701208677E+02  0.43494458225E+02  0.10566000000E+00 0. -1.
         23    2    1    0    0    0 -0.11234307057E+02 -0.23175009083E+02 -0.11805650746E+02  0.96758672982E+02  0.92517980451E+02 0.  0.
         13    1    3    3    0    0  0.12803163629E+01 -0.48977564847E+02  0.20895557931E+02  0.53264214757E+02  0.10566000000E+00 0.  1.
         22    1    1    0    0    0  0.11234307057E+02  0.23175009083E+02  0.11805650746E+02  0.28331327018E+02  0.00000000000E+00 0. -1.
</event>
<event>
 5    1  0.1264731E-009  0.9118800E+02  0.7815553E-02  0.1125453E+00
         25   -1    0    0    0    0  0.00000000000E+00  0.00000000000E+00  0.99999998245E-14  0.12509000000E+03  0.12509000000E+03 0.  0.
        -13    1    3    3    0    0  0.31461034936E+02 -0.54734523955E+01  0.17533242190E+02  0.36430497472E+02  0.10566000000E+00 0.  1.
         23    2    1    0    0    0 -0.13419663168E+02  0.25796384434E+02 -0.49911767398E+01  0.95586565375E+02  0.90919408410E+02 0.  0.
         13    1    3    3    0    0 -0.44880698104E+02  0.31269836830E+02 -0.22524418929E+02  0.59156067903E+02  0.10566000000E+00 0. -1.
         22    1    1    0    0    0  0.13419663168E+02 -0.25796384434E+02  0.49911767398E+01  0.29503434625E+02  0.00000000000E+00 0. -1.
</event>
<event>
 5    1  0.1264731E-009  0.9118800E+02  0.7815553E-02  0.1125453E+00
         25   -1    0    0    0    0  0.00000000000E+00  0.00000000000E+00  0.99999998245E-14  0.12509000000E+03  0.12509000000E+03 0.  0.
        -13    1    3    3    0    0 -0.15044100217E+02 -0.32041760952E+02 -0.31511994832E+02  0.47392155243E+02  0.10566000000E+00 0. -1.
         23    2    1    0    0    0 -0.55879861052E+01  0.15489478089E+02 -0.23319667136E+02  0.96542558862E+02  0.92225317978E+02 0.  0.
         13    1    3    3    0    0  0.94561141113E+01  0.47531239041E+02  0.81923276955E+01  0.49150403620E+02  0.10566000000E+00 0.  1.
         22    1    1    0    0    0  0.55879861052E+01 -0.15489478089E+02  0.23319667136E+02  0.28547441138E+02  0.00000000000E+00 0.  1.
</event>
<event>
 5    1  0.1264731E-009  0.9118800E+02  0.7815553E-02  0.1125453E+00
         25   -1    0    0    0    0  0.00000000000E+00  0.00000000000E+00  0.99999998245E-14  0.12509000000E+03  0.12509000000E+03 0.  0.
        -13    1    3    3    0    0  0.15947987609E+02 -0.22194802171E+02 -0.38188374719E+02  0.46960735513E+02  0.10566000000E+00 0. -1.
         23    2    1    0    0    0 -0.15242374782E+02  0.11971126638E+02 -0.21507615712E+02  0.96138050228E+02  0.91675020076E+02 0.  0.
         13    1    3    3    0    0 -0.31190362392E+02  0.34165928809E+02  0.16680759007E+02  0.49177314715E+02  0.10566000000E+00 0.  1.
         22    1    1    0    0    0  0.15242374782E+02 -0.11971126638E+02  0.21507615712E+02  0.28951949772E+02  0.00000000000E+00 0.  1.
</event>
<event>
 5    1  0.1264731E-009  0.9118800E+02  0.7815553E-02  0.1125453E+00
         25   -1    0    0    0    0  0.00000000000E+00  0.00000000000E+00  0.99999998245E-14  0.12509000000E+03  0.12509000000E+03 0.  0.
        -13    1    3    3    0    0  0.23516384298E+02  0.10306360948E+02  0.24677845099E+02  0.35612478280E+02  0.10566000000E+00 0.  1.
         23    2    1    0    0    0 -0.27331481250E+02  0.30034668186E+01 -0.79493841537E+01  0.96467921308E+02  0.92124027554E+02 0.  0.
         13    1    3    3    0    0 -0.50847865548E+02 -0.73028941294E+01 -0.32627229253E+02  0.60855443028E+02  0.10566000000E+00 0. -1.
         22    1    1    0    0    0  0.27331481250E+02 -0.30034668186E+01  0.79493841537E+01  0.28622078692E+02  0.00000000000E+00 0. -1.
</event>
<event>
 5    1  0.1264731E-009  0.9118800E+02  0.7815553E-02  0.1125453E+00
         25   -1    0    0    0    0  0.00000000000E+00  0.00000000000E+00  0.99999998245E-14  0.12509000000E+03  0.12509000000E+03 0.  0.
        -13    1    3    3    0    0 -0.15704733819E+02  0.24776183372E+01  0.30939997541E+02  0.34786087288E+02  0.10566000000E+00 0. -1.
         23    2    1    0    0    0  0.21229112159E+02 -0.10483932131E+02 -0.16456438587E+02  0.96255950563E+02  0.91835753450E+02 0.  0.
         13    1    3    3    0    0  0.36933845978E+02 -0.12961550468E+02 -0.47396436129E+02  0.61469863274E+02  0.10566000000E+00 0.  1.
         22    1    1    0    0    0 -0.21229112159E+02  0.10483932131E+02  0.16456438587E+02  0.28834049437E+02  0.00000000000E+00 0.  1.
</event>
<event>
 5    1  0.1264731E-009  0.9118800E+02  0.7815553E-02  0.1125453E+00
         25   -1    0    0    0    0  0.00000000000E+00  0.00000000000E+00  0.99999998245E-14  0.12509000000E+03  0.12509000000E+03 0.  0.
        -13    1    3    3    0    0 -0.48455097610E+00 -0.51543974641E+02  0.15870175098E+02  0.53934124013E+02  0.10566000000E+00 0. -1.
         23    2    1    0    0    0  0.17156323843E+02 -0.14078893518E+02  0.19557644751E+02  0.95508651844E+02  0.90812149068E+02 0.  0.
         13    1    3    3    0    0  0.17640874819E+02  0.37465081122E+02  0.36874696526E+01  0.41574527831E+02  0.10566000000E+00 0.  1.
         22    1    1    0    0    0 -0.17156323843E+02  0.14078893518E+02 -0.19557644751E+02  0.29581348156E+02  0.00000000000E+00 0.  1.
</event>
<event>
 5    1  0.1264731E-009  0.9118800E+02  0.7815553E-02  0.1125453E+00
         25   -1    0    0    0    0  0.00000000000E+00  0.00000000000E+00  0.99999998245E-14  0.12509000000E+03  0.12509000000E+03 0.  0.
        -13    1    3    3    0    0 -0.40679218509E+02  0.86410332015E+01  0.18237084193E+02  0.45410006356E+02  0.10566000000E+00 0.  1.
         23    2    1    0    0    0  0.94946087300E+01  0.22985493221E+02  0.16536293449E+01  0.10016581529E+03  0.97015336771E+02 0.  0.
         13    1    3    3    0    0  0.50173827239E+02  0.14344460020E+02 -0.16583454848E+02  0.54755808932E+02  0.10566000000E+00 0. -1.
         22    1    1    0    0    0 -0.94946087300E+01 -0.22985493221E+02 -0.16536293449E+01  0.24924184712E+02  0.00000000000E+00 0. -1.
</event>
<event>
 5    1  0.1264731E-009  0.9118800E+02  0.7815553E-02  0.1125453E+00
         25   -1    0    0    0    0  0.00000000000E+00  0.00000000000E+00  0.99999998245E-14  0.12509000000E+03  0.12509000000E+03 0.  0.
        -13    1    3    3    0    0  0.45533187296E+02 -0.95092091137E+01  0.11187907469E+02  0.47842205644E+02  0.10566000000E+00 0. -1.
         23    2    1    0    0    0 -0.79421203723E+01  0.10752804009E+02  0.14806231059E+02  0.10514195377E+03  0.10323229095E+03 0.  0.
         13    1    3    3    0    0 -0.53475307669E+02  0.20262013123E+02  0.36183235900E+01  0.57299748129E+02  0.10566000000E+00 0.  1.
         22    1    1    0    0    0  0.79421203723E+01 -0.10752804009E+02 -0.14806231059E+02  0.19948046227E+02  0.00000000000E+00 0.  1.
</event>
<event>
 5    1  0.1264731E-009  0.9118800E+02  0.7815553E-02  0.1125453E+00
         25   -1    0    0    0    0  0.00000000000E+00  0.00000000000E+00  0.99999998245E-14  0.12509000000E+03  0.12509000000E+03 0.  0.
        -13    1    3    3    0    0  0.10667342093E+02 -0.46583771071E+02  0.38199973314E+02  0.61180789793E+02  0.10566000000E+00 0. -1.
         23    2    1    0    0    0  0.11034668722E+02 -0.15800806903E+02  0.21546454470E+02  0.96181885000E+02  0.91734812854E+02 0.  0.
         13    1    3    3    0    0  0.36732662910E+00  0.30782964168E+02 -0.16653518843E+02  0.35001095207E+02  0.10566000000E+00 0.  1.
         22    1    1    0    0    0 -0.11034668722E+02  0.15800806903E+02 -0.21546454470E+02  0.28908115000E+02  0.00000000000E+00 0. -1.
</event>
<event>
 5    1  0.1264731E-009  0.9118800E+02  0.7815553E-02  0.1125453E+00
         25   -1    0    0    0    0  0.00000000000E+00  0.00000000000E+00  0.99999998245E-14  0.12509000000E+03  0.12509000000E+03 0.  0.
        -13    1    3    3    0    0  0.39999633839E+01  0.39114633426E+02 -0.46483320100E+02  0.60882382236E+02  0.10566000000E+00 0.  1.
         23    2    1    0    0    0  0.95420192311E+01  0.12354622633E+02 -0.24880550277E+02  0.95717757772E+02  0.91099728536E+02 0.  0.
         13    1    3    3    0    0  0.55420558472E+01 -0.26760010793E+02  0.21602769823E+02  0.34835375536E+02  0.10566000000E+00 0. -1.
         22    1    1    0    0    0 -0.95420192311E+01 -0.12354622633E+02  0.24880550277E+02  0.29372242228E+02  0.00000000000E+00 0.  1.
</event>
<event>
 5    1  0.1264731E-009  0.9118800E+02  0.7815553E-02  0.1125453E+00
         25   -1    0    0    0    0  0.00000000000E+00  0.00000000000E+00  0.99999998245E-14  0.12509000000E+03  0.12509000000E+03 0.  0.
        -13    1    3    3    0    0 -0.24308332524E+02 -0.10316958418E+02 -0.47879033285E+02  0.54678584962E+02  0.10566000000E+00 0.  1.
         23    2    1    0    0    0  0.69022533219E+01 -0.17856986170E+02 -0.22066167424E+02  0.95876496259E+02  0.91317433900E+02 0.  0.
         13    1    3    3    0    0  0.31210585846E+02 -0.75400277526E+01  0.25812865860E+02  0.41197911298E+02  0.10566000000E+00 0. -1.
         22    1    1    0    0    0 -0.69022533219E+01  0.17856986170E+02  0.22066167424E+02  0.29213503741E+02  0.00000000000E+00 0.  1.
</event>
<event>
 5    1  0.1264731E-009  0.9118800E+02  0.7815553E-02  0.1125453E+00
         25   -1    0    0    0    0  0.00000000000E+00  0.00000000000E+00  0.99999998245E-14  0.12509000000E+03  0.12509000000E+03 0.  0.
        -13    1    3    3    0    0  0.20141590527E+02 -0.19134768635E+02 -0.18139586441E+02  0.33179493667E+02  0.10566000000E+00 0.  1.
         23    2    1    0    0    0 -0.25562585853E+02 -0.19207871887E+02  0.15135627088E+02  0.89713802561E+02  0.82444472372E+02 0.  0.
         13    1    3    3    0    0 -0.45704176381E+02 -0.73103251404E-01  0.33275213529E+02  0.56534308894E+02  0.10566000000E+00 0. -1.
         22    1    1    0    0    0  0.25562585853E+02  0.19207871887E+02 -0.15135627088E+02  0.35376197439E+02  0.00000000000E+00 0. -1.
</event>
<event>
 5    1  0.1264731E-009  0.9118800E+02  0.7815553E-02  0.1125453E+00
         25   -1    0    0    0    0  0.00000000000E+00  0.00000000000E+00  0.99999998245E-14  0.12509000000E+03  0.12509000000E+03 0.  0.
        -13    1    3    3    0    0  0.14301894176E+02 -0.25516120344E+01  0.32409198785E+02  0.35516506457E+02  0.10566000000E+00 0. -1.
         23    2    1    0    0    0  0.95219244614E+01 -0.21229848401E+01 -0.27651124356E+02  0.95768356317E+02  0.91169179460E+02 0.  0.
         13    1    3    3    0    0 -0.47799697142E+01  0.42862719429E+00 -0.60060323141E+02  0.60251849861E+02  0.10566000000E+00 0.  1.
         22    1    1    0    0    0 -0.95219244614E+01  0.21229848401E+01  0.27651124356E+02  0.29321643683E+02  0.00000000000E+00 0.  1.
</event>
<event>
 5    1  0.1264731E-009  0.9118800E+02  0.7815553E-02  0.1125453E+00
         25   -1    0    0    0    0  0.00000000000E+00  0.00000000000E+00  0.99999998245E-14  0.12509000000E+03  0.12509000000E+03 0.  0.
        -13    1    3    3    0    0  0.18201389593E+01  0.35504524432E+02 -0.52585202986E+01  0.35938104579E+02  0.10566000000E+00 0. -1.
         23    2    1    0    0    0  0.18503051481E+02 -0.16463780251E+02  0.17176290541E+02  0.94949596369E+02  0.90038780087E+02 0.  0.
         13    1    3    3    0    0  0.16682912522E+02 -0.51968304683E+02  0.22434810840E+02  0.59011491790E+02  0.10566000000E+00 0.  1.
         22    1    1    0    0    0 -0.18503051481E+02  0.16463780251E+02 -0.17176290541E+02  0.30140403631E+02  0.00000000000E+00 0.  1.
</event>
<event>
 5    1  0.1264731E-009  0.9118800E+02  0.7815553E-02  0.1125453E+00
         25   -1    0    0    0    0  0.00000000000E+00  0.00000000000E+00  0.99999998245E-14  0.12509000000E+03  0.12509000000E+03 0.  0.
        -13    1    3    3    0    0 -0.10228339110E+02  0.35344257802E+02 -0.20975241281E+02  0.42353363401E+02  0.10566000000E+00 0. -1.
         23    2    1    0    0    0 -0.13830938260E+00 -0.17110637766E+02 -0.23722062923E+02  0.95840567124E+02  0.91268203571E+02 0.  0.
         13    1    3    3    0    0  0.10090029727E+02 -0.52454895568E+02 -0.27468216419E+01  0.53487203723E+02  0.10566000000E+00 0.  1.
         22    1    1    0    0    0  0.13830938260E+00  0.17110637766E+02  0.23722062923E+02  0.29249432876E+02  0.00000000000E+00 0.  1.
</event>
<event>
 5    1  0.1264731E-009  0.9118800E+02  0.7815553E-02  0.1125453E+00
         25   -1    0    0    0    0  0.00000000000E+00  0.00000000000E+00  0.99999998245E-14  0.12509000000E+03  0.12509000000E+03 0.  0.
        -13    1    3    3    0    0  0.44346081430E+02  0.64985774845E+01 -0.17278249051E+02  0.48034940427E+02  0.10566000000E+00 0.  1.
         23    2    1    0    0    0  0.16644345573E+02 -0.45511387161E+01  0.21859162151E+02  0.97240941252E+02  0.93167755058E+02 0.  0.
         13    1    3    3    0    0 -0.27701735857E+02 -0.11049716201E+02  0.39137411203E+02  0.49206000826E+02  0.10566000000E+00 0. -1.
         22    1    1    0    0    0 -0.16644345573E+02  0.45511387161E+01 -0.21859162151E+02  0.27849058748E+02  0.00000000000E+00 0. -1.
</event>
<event>
 5    1  0.1264731E-009  0.9118800E+02  0.7815553E-02  0.1125453E+00
         25   -1    0    0    0    0  0.00000000000E+00  0.00000000000E+00  0.99999998245E-14  0.12509000000E+03  0.12509000000E+03 0.  0.
        -13    1    3    3    0    0 -0.19573203856E+02  0.28720118910E+01  0.35045997610E+02  0.40244153290E+02  0.10566000000E+00 0.  1.
         23    2    1    0    0    0  0.11509589802E+02 -0.26917305389E+02 -0.90517441438E-01  0.95815092994E+02  0.91233282661E+02 0.  0.
         13    1    3    3    0    0  0.31082793657E+02 -0.29789317280E+02 -0.35136515052E+02  0.55570939704E+02  0.10566000000E+00 0. -1.
         22    1    1    0    0    0 -0.11509589802E+02  0.26917305389E+02  0.90517441438E-01  0.29274907006E+02  0.00000000000E+00 0. -1.
</event>
<event>
 5    1  0.1264731E-009  0.9118800E+02  0.7815553E-02  0.1125453E+00
         25   -1    0    0    0    0  0.00000000000E+00  0.00000000000E+00  0.99999998245E-14  0.12509000000E+03  0.12509000000E+03 0.  0.
        -13    1    3    3    0    0  0.35725745514E+02  0.43598264128E+02  0.69675132918E+01  0.56795201672E+02  0.10566000000E+00 0. -1.
         23    2    1    0    0    0  0.19780659031E+02  0.15581644384E+02 -0.14977010774E+02  0.95791997250E+02  0.91201610578E+02 0.  0.
         13    1    3    3    0    0 -0.15945086483E+02 -0.28016619744E+02 -0.21944524066E+02  0.38996795578E+02  0.10566000000E+00 0.  1.
         22    1    1    0    0    0 -0.19780659031E+02 -0.15581644384E+02  0.14977010774E+02  0.29298002750E+02  0.00000000000E+00 0. -1.
</event>
<event>
 5    1  0.1264731E-009  0.9118800E+02  0.7815553E-02  0.1125453E+00
         25   -1    0    0    0    0  0.00000000000E+00  0.00000000000E+00  0.99999998245E-14  0.12509000000E+03  0.12509000000E+03 0.  0.
        -13    1    3    3    0    0 -0.14787122439E+02  0.16701430845E+02 -0.55550592630E+02  0.59862144030E+02  0.10566000000E+00 0.  1.
         23    2    1    0    0    0 -0.17797184998E+02  0.14813813931E+01 -0.22576727279E+02  0.96303841880E+02  0.91900963333E+02 0.  0.
         13    1    3    3    0    0 -0.30100625594E+01 -0.15220049452E+02  0.32973865351E+02  0.36441697850E+02  0.10566000000E+00 0. -1.
         22    1    1    0    0    0  0.17797184998E+02 -0.14813813931E+01  0.22576727279E+02  0.28786158120E+02  0.00000000000E+00 0.  1.
</event>
<event>
 5    1  0.1264731E-009  0.9118800E+02  0.7815553E-02  0.1125453E+00
         25   -1    0    0    0    0  0.00000000000E+00  0.00000000000E+00  0.99999998245E-14  0.12509000000E+03  0.12509000000E+03 0.  0.
        -13    1    3    3    0    0  0.22092883414E+02 -0.53920764752E+01  0.46788312006E+02  0.52022372982E+02  0.10566000000E+00 0. -1.
         23    2    1    0    0    0 -0.15331231985E+02 -0.95222727220E+01  0.19480489022E+02  0.98534213352E+02  0.94888257421E+02 0.  0.
         13    1    3    3    0    0 -0.37424115399E+02 -0.41301962468E+01 -0.27307822984E+02  0.46511840370E+02  0.10566000000E+00 0.  1.
         22    1    1    0    0    0  0.15331231985E+02  0.95222727220E+01 -0.19480489022E+02  0.26555786648E+02  0.00000000000E+00 0.  1.
</event>
<event>
 5    1  0.1264731E-009  0.9118800E+02  0.7815553E-02  0.1125453E+00
         25   -1    0    0    0    0  0.00000000000E+00  0.00000000000E+00  0.99999998245E-14  0.12509000000E+03  0.12509000000E+03 0.  0.
        -13    1    3    3    0    0 -0.20871426287E+02  0.24363600147E+02  0.25204648071E+02  0.40798123680E+02  0.10566000000E+00 0. -1.
         23    2    1    0    0    0  0.25362046188E+02  0.20352203710E+02  0.24619623870E+01  0.92478547388E+02  0.86537707882E+02 0.  0.
         13    1    3    3    0    0  0.46233472475E+02 -0.40113964377E+01 -0.22742685684E+02  0.51680423708E+02  0.10566000000E+00 0.  1.
         22    1    1    0    0    0 -0.25362046188E+02 -0.20352203710E+02 -0.24619623870E+01  0.32611452612E+02  0.00000000000E+00 0.  1.
</event>
<event>
 5    1  0.1264731E-009  0.9118800E+02  0.7815553E-02  0.1125453E+00
         25   -1    0    0    0    0  0.00000000000E+00  0.00000000000E+00  0.99999998245E-14  0.12509000000E+03  0.12509000000E+03 0.  0.
        -13    1    3    3    0    0  0.26272485711E+02  0.27349859579E+02 -0.27309312091E+02  0.46734013474E+02  0.10566000000E+00 0. -1.
         23    2    1    0    0    0 -0.11567986162E+02 -0.51452953112E+00 -0.29110055028E+02  0.93761445162E+02  0.88372678192E+02 0.  0.
         13    1    3    3    0    0 -0.37840471874E+02 -0.27864389110E+02 -0.18007429366E+01  0.47027431689E+02  0.10566000000E+00 0.  1.
         22    1    1    0    0    0  0.11567986162E+02  0.51452953112E+00  0.29110055028E+02  0.31328554838E+02  0.00000000000E+00 0. -1.
</event>
<event>
 5    1  0.1264731E-009  0.9118800E+02  0.7815553E-02  0.1125453E+00
         25   -1    0    0    0    0  0.00000000000E+00  0.00000000000E+00  0.99999998245E-14  0.12509000000E+03  0.12509000000E+03 0.  0.
        -13    1    3    3    0    0  0.19704737774E+02  0.40735855096E+02 -0.45258038012E+01  0.45477254152E+02  0.10566000000E+00 0. -1.
         23    2    1    0    0    0 -0.21814973467E+02  0.15421358096E+02 -0.13859858241E+02  0.94993371894E+02  0.90099576472E+02 0.  0.
         13    1    3    3    0    0 -0.41519711241E+02 -0.25314497000E+02 -0.93340544400E+01  0.49516117742E+02  0.10566000000E+00 0.  1.
         22    1    1    0    0    0  0.21814973467E+02 -0.15421358096E+02  0.13859858241E+02  0.30096628106E+02  0.00000000000E+00 0.  1.
</event>
<event>
 5    1  0.1264731E-009  0.9118800E+02  0.7815553E-02  0.1125453E+00
         25   -1    0    0    0    0  0.00000000000E+00  0.00000000000E+00  0.99999998245E-14  0.12509000000E+03  0.12509000000E+03 0.  0.
        -13    1    3    3    0    0  0.20843424992E+02 -0.19216687045E+02  0.20622219650E+02  0.35057332096E+02  0.10566000000E+00 0. -1.
         23    2    1    0    0    0 -0.29171122326E+02  0.44475473185E+01 -0.34175287619E+01  0.95384536567E+02  0.90641024147E+02 0.  0.
         13    1    3    3    0    0 -0.50014547319E+02  0.23664234363E+02 -0.24039748412E+02  0.60327204471E+02  0.10566000000E+00 0.  1.
         22    1    1    0    0    0  0.29171122326E+02 -0.44475473185E+01  0.34175287619E+01  0.29705463433E+02  0.00000000000E+00 0.  1.
</event>
<event>
 5    1  0.1264731E-009  0.9118800E+02  0.7815553E-02  0.1125453E+00
         25   -1    0    0    0    0  0.00000000000E+00  0.00000000000E+00  0.99999998245E-14  0.12509000000E+03  0.12509000000E+03 0.  0.
        -13    1    3    3    0    0 -0.37702544229E+02 -0.24635666687E+02 -0.34688609939E+02  0.56848119916E+02  0.10566000000E+00 0. -1.
         23    2    1    0    0    0 -0.43384836220E+01 -0.25027546712E+02 -0.15129255958E+02  0.95524903680E+02  0.90834532545E+02 0.  0.
         13    1    3    3    0    0  0.33364060607E+02 -0.39188002559E+00  0.19559353981E+02  0.38676783764E+02  0.10566000000E+00 0.  1.
         22    1    1    0    0    0  0.43384836220E+01  0.25027546712E+02  0.15129255958E+02  0.29565096320E+02  0.00000000000E+00 0. -1.
</event>
<event>
 5    1  0.1264731E-009  0.9118800E+02  0.7815553E-02  0.1125453E+00
         25   -1    0    0    0    0  0.00000000000E+00  0.00000000000E+00  0.99999998245E-14  0.12509000000E+03  0.12509000000E+03 0.  0.
        -13    1    3    3    0    0  0.28015868710E+02 -0.19404551151E+02 -0.52336335720E+01  0.34479379190E+02  0.10566000000E+00 0.  1.
         23    2    1    0    0    0 -0.17579286172E+02  0.21586357751E+02 -0.87949614752E+01  0.95894906395E+02  0.91342649304E+02 0.  0.
         13    1    3    3    0    0 -0.45595154882E+02  0.40990908902E+02 -0.35613279032E+01  0.61415527204E+02  0.10566000000E+00 0. -1.
         22    1    1    0    0    0  0.17579286172E+02 -0.21586357751E+02  0.87949614752E+01  0.29195093605E+02  0.00000000000E+00 0. -1.
</event>
<event>
 5    1  0.1264731E-009  0.9118800E+02  0.7815553E-02  0.1125453E+00
         25   -1    0    0    0    0  0.00000000000E+00  0.00000000000E+00  0.99999998245E-14  0.12509000000E+03  0.12509000000E+03 0.  0.
        -13    1    3    3    0    0 -0.48622213157E+01 -0.37444934139E+02 -0.50224874982E+01  0.38092004850E+02  0.10566000000E+00 0.  1.
         23    2    1    0    0    0  0.32561995490E+02 -0.56439250058E+01  0.11792032824E+02  0.90001690296E+02  0.82880122938E+02 0.  0.
         13    1    3    3    0    0  0.37424216806E+02  0.31801009133E+02  0.16814520322E+02  0.51909685446E+02  0.10566000000E+00 0. -1.
         22    1    1    0    0    0 -0.32561995490E+02  0.56439250058E+01 -0.11792032824E+02  0.35088309704E+02  0.00000000000E+00 0. -1.
</event>
<event>
 5    1  0.1264731E-009  0.9118800E+02  0.7815553E-02  0.1125453E+00
         25   -1    0    0    0    0  0.00000000000E+00  0.00000000000E+00  0.99999998245E-14  0.12509000000E+03  0.12509000000E+03 0.  0.
        -13    1    3    3    0    0 -0.34013204321E+02 -0.45778026190E+02 -0.10495671282E+02  0.57988757787E+02  0.10566000000E+00 0. -1.
         23    2    1    0    0    0 -0.17787668875E+02 -0.20828646661E+02  0.11890784192E+02  0.95229919049E+02  0.90427391025E+02 0.  0.
         13    1    3    3    0    0  0.16225535446E+02  0.24949379529E+02  0.22386455474E+02  0.37241161262E+02  0.10566000000E+00 0.  1.
         22    1    1    0    0    0  0.17787668875E+02  0.20828646661E+02 -0.11890784192E+02  0.29860080951E+02  0.00000000000E+00 0.  1.
</event>
<event>
 5    1  0.1264731E-009  0.9118800E+02  0.7815553E-02  0.1125453E+00
         25   -1    0    0    0    0  0.00000000000E+00  0.00000000000E+00  0.99999998245E-14  0.12509000000E+03  0.12509000000E+03 0.  0.
        -13    1    3    3    0    0 -0.26578476753E+01 -0.89591221139E+01 -0.41008081673E+02  0.42059528645E+02  0.10566000000E+00 0. -1.
         23    2    1    0    0    0 -0.86029028809E+01  0.23466533044E+02  0.59153951748E+01  0.99405763372E+02  0.96030337812E+02 0.  0.
         13    1    3    3    0    0 -0.59450552056E+01  0.32425655158E+02  0.46923476848E+02  0.57346234727E+02  0.10566000000E+00 0.  1.
         22    1    1    0    0    0  0.86029028809E+01 -0.23466533044E+02 -0.59153951748E+01  0.25684236628E+02  0.00000000000E+00 0.  1.
</event>
<event>
 5    1  0.1264731E-009  0.9118800E+02  0.7815553E-02  0.1125453E+00
         25   -1    0    0    0    0  0.00000000000E+00  0.00000000000E+00  0.99999998245E-14  0.12509000000E+03  0.12509000000E+03 0.  0.
        -13    1    3    3    0    0 -0.16710811016E+02  0.27983271350E+02 -0.13299552924E+02  0.35202328791E+02  0.10566000000E+00 0.  1.
         23    2    1    0    0    0  0.14631377471E+02 -0.18011983042E+01  0.27012431564E+02  0.94316748936E+02  0.89155236239E+02 0.  0.
         13    1    3    3    0    0  0.31342188487E+02 -0.29784469654E+02  0.40311984488E+02  0.59114420146E+02  0.10566000000E+00 0. -1.
         22    1    1    0    0    0 -0.14631377471E+02  0.18011983042E+01 -0.27012431564E+02  0.30773251064E+02  0.00000000000E+00 0. -1.
</event>
<event>
 5    1  0.1264731E-009  0.9118800E+02  0.7815553E-02  0.1125453E+00
         25   -1    0    0    0    0  0.00000000000E+00  0.00000000000E+00  0.99999998245E-14  0.12509000000E+03  0.12509000000E+03 0.  0.
        -13    1    3    3    0    0 -0.53582577038E+02  0.40567501569E+01 -0.19612902419E+02  0.57203381799E+02  0.10566000000E+00 0.  1.
         23    2    1    0    0    0 -0.20583078627E+02  0.18545711416E+02 -0.15132128576E+02  0.93521220281E+02  0.88031987311E+02 0.  0.
         13    1    3    3    0    0  0.32999498411E+02  0.14488961259E+02  0.44807738430E+01  0.36317838482E+02  0.10566000000E+00 0. -1.
         22    1    1    0    0    0  0.20583078627E+02 -0.18545711416E+02  0.15132128576E+02  0.31568779719E+02  0.00000000000E+00 0.  1.
</event>
<event>
 4    1  0.1264731E-009  0.9118800E+02  0.7815553E-02  0.1125453E+00
         25   -1    0    0    0    0  0.00000000000E+00  0.00000000000E+00  0.99999998245E-14  0.12509000000E+03  0.12509000000E+03 0.  0.
        -13    1    1    0    0    0  0.76481956511E+00 -0.33339537760E+02  0.32175524988E+02  0.46339888858E+02  0.10566000000E+00 0.  1.
         13    1    1    0    0    0  0.84190115845E+01 -0.17896652271E+02 -0.76097331306E+01  0.21191722935E+02  0.10566000000E+00 0. -1.
         22    1    1    0    0    0 -0.91838311496E+01  0.51236190031E+02 -0.24565791858E+02  0.57558388208E+02  0.00000000000E+00 0. -1.
</event>
<event>
 5    1  0.1264731E-009  0.9118800E+02  0.7815553E-02  0.1125453E+00
         25   -1    0    0    0    0  0.00000000000E+00  0.00000000000E+00  0.99999998245E-14  0.12509000000E+03  0.12509000000E+03 0.  0.
        -13    1    3    3    0    0  0.34600168077E+02 -0.17522048129E+01  0.16096178135E+02  0.38201308449E+02  0.10566000000E+00 0. -1.
         23    2    1    0    0    0 -0.18268472899E+02  0.20823071352E+02  0.80110122534E+01  0.96254020392E+02  0.91833124317E+02 0.  0.
         13    1    3    3    0    0 -0.52868640976E+02  0.22575276165E+02 -0.80851658814E+01  0.58052711943E+02  0.10566000000E+00 0.  1.
         22    1    1    0    0    0  0.18268472899E+02 -0.20823071352E+02 -0.80110122534E+01  0.28835979608E+02  0.00000000000E+00 0.  1.
</event>
<event>
 5    1  0.1264731E-009  0.9118800E+02  0.7815553E-02  0.1125453E+00
         25   -1    0    0    0    0  0.00000000000E+00  0.00000000000E+00  0.99999998245E-14  0.12509000000E+03  0.12509000000E+03 0.  0.
        -13    1    3    3    0    0  0.47710930532E+02 -0.19959603159E+02  0.28147681535E+02  0.58881421436E+02  0.10566000000E+00 0.  1.
         23    2    1    0    0    0  0.19494876481E+02  0.34373420862E+01  0.21007415999E+02  0.96225193460E+02  0.91793849467E+02 0.  0.
         13    1    3    3    0    0 -0.28216054051E+02  0.23396945245E+02 -0.71402655362E+01  0.37343772024E+02  0.10566000000E+00 0. -1.
         22    1    1    0    0    0 -0.19494876481E+02 -0.34373420862E+01 -0.21007415999E+02  0.28864806540E+02  0.00000000000E+00 0.  1.
</event>
<event>
 5    1  0.1264731E-009  0.9118800E+02  0.7815553E-02  0.1125453E+00
         25   -1    0    0    0    0  0.00000000000E+00  0.00000000000E+00  0.99999998245E-14  0.12509000000E+03  0.12509000000E+03 0.  0.
        -13    1    3    3    0    0 -0.90528539281E+01 -0.43834022609E+02 -0.40637286199E+02  0.60454742544E+02  0.10566000000E+00 0. -1.
         23    2    1    0    0    0 -0.12259003144E+01 -0.27040213844E+02 -0.10049518575E+02  0.96216676327E+02  0.91782242202E+02 0.  0.
         13    1    3    3    0    0  0.78269536137E+01  0.16793808765E+02  0.30587767624E+02  0.35761933784E+02  0.10566000000E+00 0.  1.
         22    1    1    0    0    0  0.12259003144E+01  0.27040213844E+02  0.10049518575E+02  0.28873323673E+02  0.00000000000E+00 0. -1.
</event>
<event>
 5    1  0.1264731E-009  0.9118800E+02  0.7815553E-02  0.1125453E+00
         25   -1    0    0    0    0  0.00000000000E+00  0.00000000000E+00  0.99999998245E-14  0.12509000000E+03  0.12509000000E+03 0.  0.
        -13    1    3    3    0    0 -0.36929508529E+02  0.36868063759E+02 -0.23893737945E+02  0.57393071033E+02  0.10566000000E+00 0. -1.
         23    2    1    0    0    0 -0.27067138794E+02  0.11707215217E+02  0.29103631824E+01  0.95456250583E+02  0.90739939777E+02 0.  0.
         13    1    3    3    0    0  0.98623697350E+01 -0.25160848542E+02  0.26804101128E+02  0.38063179550E+02  0.10566000000E+00 0.  1.
         22    1    1    0    0    0  0.27067138794E+02 -0.11707215217E+02 -0.29103631824E+01  0.29633749417E+02  0.00000000000E+00 0. -1.
</event>
<event>
 5    1  0.1264731E-009  0.9118800E+02  0.7815553E-02  0.1125453E+00
         25   -1    0    0    0    0  0.00000000000E+00  0.00000000000E+00  0.99999998245E-14  0.12509000000E+03  0.12509000000E+03 0.  0.
        -13    1    3    3    0    0  0.31733518180E+02 -0.24303136378E+02 -0.36446422023E+02  0.54092619240E+02  0.10566000000E+00 0.  1.
         23    2    1    0    0    0  0.26256758383E+02 -0.10094972712E+02  0.34049243950E+01  0.96754168533E+02  0.92511889957E+02 0.  0.
         13    1    3    3    0    0 -0.54767597975E+01  0.14208163667E+02  0.39851346418E+02  0.42661549293E+02  0.10566000000E+00 0. -1.
         22    1    1    0    0    0 -0.26256758383E+02  0.10094972712E+02 -0.34049243950E+01  0.28335831467E+02  0.00000000000E+00 0.  1.
</event>
<event>
 5    1  0.1264731E-009  0.9118800E+02  0.7815553E-02  0.1125453E+00
         25   -1    0    0    0    0  0.00000000000E+00  0.00000000000E+00  0.99999998245E-14  0.12509000000E+03  0.12509000000E+03 0.  0.
        -13    1    3    3    0    0 -0.51687982530E+02  0.26555520614E+01  0.15907100653E+02  0.54145604715E+02  0.10566000000E+00 0. -1.
         23    2    1    0    0    0 -0.18895220266E+02  0.22160655551E+02 -0.11606062227E+01  0.95944314039E+02  0.91410285998E+02 0.  0.
         13    1    3    3    0    0  0.32792762265E+02  0.19505103490E+02 -0.17067706876E+02  0.41798709324E+02  0.10566000000E+00 0.  1.
         22    1    1    0    0    0  0.18895220266E+02 -0.22160655551E+02  0.11606062227E+01  0.29145685961E+02  0.00000000000E+00 0. -1.
</event>
<event>
 5    1  0.1264731E-009  0.9118800E+02  0.7815553E-02  0.1125453E+00
         25   -1    0    0    0    0  0.00000000000E+00  0.00000000000E+00  0.99999998245E-14  0.12509000000E+03  0.12509000000E+03 0.  0.
        -13    1    3    3    0    0 -0.32885240944E+02  0.10826796769E+02 -0.31915316172E+01  0.34768601328E+02  0.10566000000E+00 0.  1.
         23    2    1    0    0    0  0.18378828351E+02 -0.17362463344E+02 -0.16671724159E+02  0.94804973149E+02  0.89837631772E+02 0.  0.
         13    1    3    3    0    0  0.51264069295E+02 -0.28189260112E+02 -0.13480192542E+02  0.60036371821E+02  0.10566000000E+00 0. -1.
         22    1    1    0    0    0 -0.18378828351E+02  0.17362463344E+02  0.16671724159E+02  0.30285026851E+02  0.00000000000E+00 0. -1.
</event>
<event>
 5    1  0.1264731E-009  0.9118800E+02  0.7815553E-02  0.1125453E+00
         25   -1    0    0    0    0  0.00000000000E+00  0.00000000000E+00  0.99999998245E-14  0.12509000000E+03  0.12509000000E+03 0.  0.
        -13    1    3    3    0    0  0.96287002227E+01  0.29927751025E+02 -0.98674417500E+01  0.32950868276E+02  0.10566000000E+00 0. -1.
         23    2    1    0    0    0 -0.60052082392E+01 -0.27345659743E+02  0.96978938260E+01  0.95460677067E+02  0.90746041724E+02 0.  0.
         13    1    3    3    0    0 -0.15633908462E+02 -0.57273410769E+02  0.19565335576E+02  0.62509808791E+02  0.10566000000E+00 0.  1.
         22    1    1    0    0    0  0.60052082392E+01  0.27345659743E+02 -0.96978938260E+01  0.29629322933E+02  0.00000000000E+00 0.  1.
</event>
<event>
 5    1  0.1264731E-009  0.9118800E+02  0.7815553E-02  0.1125453E+00
         25   -1    0    0    0    0  0.00000000000E+00  0.00000000000E+00  0.99999998245E-14  0.12509000000E+03  0.12509000000E+03 0.  0.
        -13    1    3    3    0    0  0.19354110201E+02 -0.11792954449E+02  0.27303042212E+02  0.35484118058E+02  0.10566000000E+00 0. -1.
         23    2    1    0    0    0 -0.23193587557E+02  0.27543622042E+01 -0.15089816470E+02  0.97282958158E+02  0.93224151226E+02 0.  0.
         13    1    3    3    0    0 -0.42547697758E+02  0.14547316653E+02 -0.42392858682E+02  0.61798840099E+02  0.10566000000E+00 0.  1.
         22    1    1    0    0    0  0.23193587557E+02 -0.27543622042E+01  0.15089816470E+02  0.27807041842E+02  0.00000000000E+00 0.  1.
</event>
<event>
 5    1  0.1264731E-009  0.9118800E+02  0.7815553E-02  0.1125453E+00
         25   -1    0    0    0    0  0.00000000000E+00  0.00000000000E+00  0.99999998245E-14  0.12509000000E+03  0.12509000000E+03 0.  0.
        -13    1    3    3    0    0  0.15953536677E+02  0.36451716438E+02  0.29360741652E+02  0.49450048313E+02  0.10566000000E+00 0.  1.
         23    2    1    0    0    0 -0.20913644164E+02  0.13589014057E+02  0.18114631700E+02  0.94264982614E+02  0.89082575458E+02 0.  0.
         13    1    3    3    0    0 -0.36867180840E+02 -0.22862702382E+02 -0.11246109952E+02  0.44814934301E+02  0.10566000000E+00 0. -1.
         22    1    1    0    0    0  0.20913644164E+02 -0.13589014057E+02 -0.18114631700E+02  0.30825017386E+02  0.00000000000E+00 0.  1.
</event>
<event>
 5    1  0.1264731E-009  0.9118800E+02  0.7815553E-02  0.1125453E+00
         25   -1    0    0    0    0  0.00000000000E+00  0.00000000000E+00  0.99999998245E-14  0.12509000000E+03  0.12509000000E+03 0.  0.
        -13    1    3    3    0    0 -0.18904440088E+02 -0.56088104550E+02  0.19174732407E+01  0.59219432577E+02  0.10566000000E+00 0. -1.
         23    2    1    0    0    0 -0.21571149363E+02 -0.20364033912E+02  0.42657311499E+01  0.95119934531E+02  0.90275119058E+02 0.  0.
         13    1    3    3    0    0 -0.26667092749E+01  0.35724070638E+02  0.23482579091E+01  0.35900501954E+02  0.10566000000E+00 0.  1.
         22    1    1    0    0    0  0.21571149363E+02  0.20364033912E+02 -0.42657311499E+01  0.29970065469E+02  0.00000000000E+00 0. -1.
</event>
<event>
 5    1  0.1264731E-009  0.9118800E+02  0.7815553E-02  0.1125453E+00
         25   -1    0    0    0    0  0.00000000000E+00  0.00000000000E+00  0.99999998245E-14  0.12509000000E+03  0.12509000000E+03 0.  0.
        -13    1    3    3    0    0  0.35171701494E+02 -0.15449688289E+02  0.32553726285E+02  0.50353725912E+02  0.10566000000E+00 0.  1.
         23    2    1    0    0    0  0.14177787769E+02  0.18932501987E+02  0.23712751640E+02  0.91597554765E+02  0.85254725095E+02 0.  0.
         13    1    3    3    0    0 -0.20993913725E+02  0.34382190277E+02 -0.88409746453E+01  0.41243828852E+02  0.10566000000E+00 0. -1.
         22    1    1    0    0    0 -0.14177787769E+02 -0.18932501987E+02 -0.23712751640E+02  0.33492445235E+02  0.00000000000E+00 0.  1.
</event>
<event>
 5    1  0.1264731E-009  0.9118800E+02  0.7815553E-02  0.1125453E+00
         25   -1    0    0    0    0  0.00000000000E+00  0.00000000000E+00  0.99999998245E-14  0.12509000000E+03  0.12509000000E+03 0.  0.
        -13    1    3    3    0    0  0.59811387077E+01  0.96376960023E+01  0.55855321682E+02  0.56995502706E+02  0.10566000000E+00 0.  1.
         23    2    1    0    0    0 -0.57568179745E+01 -0.12126296245E+02  0.26550034393E+02  0.95339498490E+02  0.90578847598E+02 0.  0.
         13    1    3    3    0    0 -0.11737956682E+02 -0.21763992247E+02 -0.29305287289E+02  0.38343995784E+02  0.10566000000E+00 0. -1.
         22    1    1    0    0    0  0.57568179745E+01  0.12126296245E+02 -0.26550034393E+02  0.29750501510E+02  0.00000000000E+00 0.  1.
</event>
<event>
 5    1  0.1264731E-009  0.9118800E+02  0.7815553E-02  0.1125453E+00
         25   -1    0    0    0    0  0.00000000000E+00  0.00000000000E+00  0.99999998245E-14  0.12509000000E+03  0.12509000000E+03 0.  0.
        -13    1    3    3    0    0 -0.95684060948E+01  0.46230630229E+02 -0.29693248384E+02  0.55772087375E+02  0.10566000000E+00 0.  1.
         23    2    1    0    0    0  0.16051798245E+02  0.22114347765E+02 -0.10816298613E+02  0.95701279040E+02  0.91077098604E+02 0.  0.
         13    1    3    3    0    0  0.25620204340E+02 -0.24116282464E+02  0.18876949771E+02  0.39929191665E+02  0.10566000000E+00 0. -1.
         22    1    1    0    0    0 -0.16051798245E+02 -0.22114347765E+02  0.10816298613E+02  0.29388720960E+02  0.00000000000E+00 0.  1.
</event>
<event>
 5    1  0.1264731E-009  0.9118800E+02  0.7815553E-02  0.1125453E+00
         25   -1    0    0    0    0  0.00000000000E+00  0.00000000000E+00  0.99999998245E-14  0.12509000000E+03  0.12509000000E+03 0.  0.
        -13    1    3    3    0    0  0.31971328085E+02 -0.50702426695E+02  0.12012102285E+02  0.61132672587E+02  0.10566000000E+00 0.  1.
         23    2    1    0    0    0  0.21989843470E+02 -0.18385068581E+02  0.22410143768E+01  0.96339589429E+02  0.91949607847E+02 0.  0.
         13    1    3    3    0    0 -0.99814846150E+01  0.32317358114E+02 -0.97710879082E+01  0.35206916842E+02  0.10566000000E+00 0. -1.
         22    1    1    0    0    0 -0.21989843470E+02  0.18385068581E+02 -0.22410143768E+01  0.28750410571E+02  0.00000000000E+00 0.  1.
</event>
<event>
 5    1  0.1264731E-009  0.9118800E+02  0.7815553E-02  0.1125453E+00
         25   -1    0    0    0    0  0.00000000000E+00  0.00000000000E+00  0.99999998245E-14  0.12509000000E+03  0.12509000000E+03 0.  0.
        -13    1    3    3    0    0  0.34653215989E+02  0.41189655262E+02  0.45329295406E+01  0.54018438456E+02  0.10566000000E+00 0.  1.
         23    2    1    0    0    0  0.14543018966E+02  0.55737069982E+01  0.21702448356E+02  0.98377421035E+02  0.94681334456E+02 0.  0.
         13    1    3    3    0    0 -0.20110197024E+02 -0.35615948263E+02  0.17169518815E+02  0.44358982579E+02  0.10566000000E+00 0. -1.
         22    1    1    0    0    0 -0.14543018966E+02 -0.55737069982E+01 -0.21702448356E+02  0.26712578965E+02  0.00000000000E+00 0.  1.
</event>
<event>
 5    1  0.1264731E-009  0.9118800E+02  0.7815553E-02  0.1125453E+00
         25   -1    0    0    0    0  0.00000000000E+00  0.00000000000E+00  0.99999998245E-14  0.12509000000E+03  0.12509000000E+03 0.  0.
        -13    1    3    3    0    0 -0.51785212255E+00 -0.16471174957E+02  0.46227066244E+02  0.49076680744E+02  0.10566000000E+00 0.  1.
         23    2    1    0    0    0 -0.20329169673E+02  0.13336646091E+02  0.15431533658E+02  0.96292890778E+02  0.91886056150E+02 0.  0.
         13    1    3    3    0    0 -0.19811317550E+02  0.29807821048E+02 -0.30795532586E+02  0.47216210034E+02  0.10566000000E+00 0. -1.
         22    1    1    0    0    0  0.20329169673E+02 -0.13336646091E+02 -0.15431533658E+02  0.28797109222E+02  0.00000000000E+00 0.  1.
</event>
<event>
 5    1  0.1264731E-009  0.9118800E+02  0.7815553E-02  0.1125453E+00
         25   -1    0    0    0    0  0.00000000000E+00  0.00000000000E+00  0.99999998245E-14  0.12509000000E+03  0.12509000000E+03 0.  0.
        -13    1    3    3    0    0  0.14414425617E+01  0.70027724846E+01  0.32914073174E+02  0.33681804525E+02  0.10566000000E+00 0. -1.
         23    2    1    0    0    0  0.12475311289E+02 -0.47370007397E+00 -0.27150126451E+02  0.95207109413E+02  0.90395832498E+02 0.  0.
         13    1    3    3    0    0  0.11033868727E+02 -0.74764725586E+01 -0.60064199625E+02  0.61525304888E+02  0.10566000000E+00 0.  1.
         22    1    1    0    0    0 -0.12475311289E+02  0.47370007397E+00  0.27150126451E+02  0.29882890587E+02  0.00000000000E+00 0.  1.
</event>
<event>
 5    1  0.1264731E-009  0.9118800E+02  0.7815553E-02  0.1125453E+00
         25   -1    0    0    0    0  0.00000000000E+00  0.00000000000E+00  0.99999998245E-14  0.12509000000E+03  0.12509000000E+03 0.  0.
        -13    1    3    3    0    0 -0.15910645209E+02  0.16312420742E+02  0.40269740933E+02  0.46269935166E+02  0.10566000000E+00 0. -1.
         23    2    1    0    0    0  0.13074907611E+02 -0.17516431178E+02  0.61507553432E+01  0.10238294467E+03  0.99833145792E+02 0.  0.
         13    1    3    3    0    0  0.28985552820E+02 -0.33828851920E+02 -0.34118985589E+02  0.56113009509E+02  0.10566000000E+00 0.  1.
         22    1    1    0    0    0 -0.13074907611E+02  0.17516431178E+02 -0.61507553432E+01  0.22707055325E+02  0.00000000000E+00 0.  1.
</event>
<event>
 5    1  0.1264731E-009  0.9118800E+02  0.7815553E-02  0.1125453E+00
         25   -1    0    0    0    0  0.00000000000E+00  0.00000000000E+00  0.99999998245E-14  0.12509000000E+03  0.12509000000E+03 0.  0.
        -13    1    3    3    0    0 -0.54185817700E+01 -0.27195085234E+02  0.48877218794E+02  0.56195439053E+02  0.10566000000E+00 0.  1.
         23    2    1    0    0    0  0.28279372605E+01  0.57925172703E+01  0.28572372311E+02  0.95799541743E+02  0.91211957841E+02 0.  0.
         13    1    3    3    0    0  0.82465190305E+01  0.32987602504E+02 -0.20304846484E+02  0.39604102690E+02  0.10566000000E+00 0. -1.
         22    1    1    0    0    0 -0.28279372605E+01 -0.57925172703E+01 -0.28572372311E+02  0.29290458257E+02  0.00000000000E+00 0.  1.
</event>
<event>
 5    1  0.1264731E-009  0.9118800E+02  0.7815553E-02  0.1125453E+00
         25   -1    0    0    0    0  0.00000000000E+00  0.00000000000E+00  0.99999998245E-14  0.12509000000E+03  0.12509000000E+03 0.  0.
        -13    1    3    3    0    0 -0.45281177583E+02  0.12764975069E+02 -0.24796970992E+02  0.53181110991E+02  0.10566000000E+00 0.  1.
         23    2    1    0    0    0 -0.25624987729E+02 -0.84062340477E+01  0.80699381782E+01  0.96939890423E+02  0.92762673992E+02 0.  0.
         13    1    3    3    0    0  0.19656189854E+02 -0.21171209116E+02  0.32866909170E+02  0.43758779433E+02  0.10566000000E+00 0. -1.
         22    1    1    0    0    0  0.25624987729E+02  0.84062340477E+01 -0.80699381782E+01  0.28150109577E+02  0.00000000000E+00 0.  1.
</event>
<event>
 5    1  0.1264731E-009  0.9118800E+02  0.7815553E-02  0.1125453E+00
         25   -1    0    0    0    0  0.00000000000E+00  0.00000000000E+00  0.99999998245E-14  0.12509000000E+03  0.12509000000E+03 0.  0.
        -13    1    3    3    0    0 -0.34430914057E+02  0.12169426563E+02  0.24944473622E+02  0.44224661830E+02  0.10566000000E+00 0.  1.
         23    2    1    0    0    0 -0.14668934879E+02 -0.26680624656E+02 -0.39049035987E+00  0.94640273150E+02  0.89608009891E+02 0.  0.
         13    1    3    3    0    0  0.19761979178E+02 -0.38850051219E+02 -0.25334963982E+02  0.50415611320E+02  0.10566000000E+00 0. -1.
         22    1    1    0    0    0  0.14668934879E+02  0.26680624656E+02  0.39049035987E+00  0.30449726850E+02  0.00000000000E+00 0. -1.
</event>
<event>
 5    1  0.1264731E-009  0.9118800E+02  0.7815553E-02  0.1125453E+00
         25   -1    0    0    0    0  0.00000000000E+00  0.00000000000E+00  0.99999998245E-14  0.12509000000E+03  0.12509000000E+03 0.  0.
        -13    1    3    3    0    0  0.31433029936E+02  0.15778500438E+02 -0.29683175352E+02  0.46022804239E+02  0.10566000000E+00 0. -1.
         23    2    1    0    0    0  0.50034687851E+00  0.27145742780E+02  0.86691762120E+01  0.96589187481E+02  0.92288541130E+02 0.  0.
         13    1    3    3    0    0 -0.30932683057E+02  0.11367242342E+02  0.38352351564E+02  0.50566383242E+02  0.10566000000E+00 0.  1.
         22    1    1    0    0    0 -0.50034687851E+00 -0.27145742780E+02 -0.86691762120E+01  0.28500812519E+02  0.00000000000E+00 0.  1.
</event>
<event>
 5    1  0.1264731E-009  0.9118800E+02  0.7815553E-02  0.1125453E+00
         25   -1    0    0    0    0  0.00000000000E+00  0.00000000000E+00  0.99999998245E-14  0.12509000000E+03  0.12509000000E+03 0.  0.
        -13    1    3    3    0    0 -0.16180776920E+02  0.19350383220E+02 -0.27199743898E+02  0.37095715448E+02  0.10566000000E+00 0. -1.
         23    2    1    0    0    0  0.29404568121E+02 -0.18239786709E+01  0.25760843766E+01  0.95516502823E+02  0.90822962824E+02 0.  0.
         13    1    3    3    0    0  0.45585345041E+02 -0.21174361891E+02  0.29775828275E+02  0.58420787374E+02  0.10566000000E+00 0.  1.
         22    1    1    0    0    0 -0.29404568121E+02  0.18239786709E+01 -0.25760843766E+01  0.29573497177E+02  0.00000000000E+00 0.  1.
</event>
<event>
 5    1  0.1264731E-009  0.9118800E+02  0.7815553E-02  0.1125453E+00
         25   -1    0    0    0    0  0.00000000000E+00  0.00000000000E+00  0.99999998245E-14  0.12509000000E+03  0.12509000000E+03 0.  0.
        -13    1    3    3    0    0 -0.15459305316E+02 -0.11027148037E+02 -0.44778879935E+02  0.48638949074E+02  0.10566000000E+00 0.  1.
         23    2    1    0    0    0  0.14614541704E+02 -0.24034205700E+02 -0.13690991021E+02  0.93806280464E+02  0.88436119015E+02 0.  0.
         13    1    3    3    0    0  0.30073847021E+02 -0.13007057663E+02  0.31087888915E+02  0.45167331390E+02  0.10566000000E+00 0. -1.
         22    1    1    0    0    0 -0.14614541704E+02  0.24034205700E+02  0.13690991021E+02  0.31283719536E+02  0.00000000000E+00 0. -1.
</event>
<event>
 4    1  0.1264731E-009  0.9118800E+02  0.7815553E-02  0.1125453E+00
         25   -1    0    0    0    0  0.00000000000E+00  0.00000000000E+00  0.99999998245E-14  0.12509000000E+03  0.12509000000E+03 0.  0.
        -13    1    1    0    0    0  0.28953469836E+02  0.18095643187E+02 -0.48058453012E+02  0.58952368806E+02  0.10566000000E+00 0.  1.
         13    1    1    0    0    0  0.37207997940E+01 -0.10772458057E+02  0.79871936731E+01  0.13917493686E+02  0.10566000000E+00 0. -1.
         22    1    1    0    0    0 -0.32674269630E+02 -0.73231851304E+01  0.40071259339E+02  0.52220137508E+02  0.00000000000E+00 0.  1.
</event>
<event>
 5    1  0.1264731E-009  0.9118800E+02  0.7815553E-02  0.1125453E+00
         25   -1    0    0    0    0  0.00000000000E+00  0.00000000000E+00  0.99999998245E-14  0.12509000000E+03  0.12509000000E+03 0.  0.
        -13    1    3    3    0    0  0.14568248473E+02 -0.21119440806E+01 -0.52917190279E+02  0.54926627081E+02  0.10566000000E+00 0.  1.
         23    2    1    0    0    0  0.25331367790E+02  0.37028136496E+01 -0.13604030000E+02  0.96099335032E+02  0.91622178202E+02 0.  0.
         13    1    3    3    0    0  0.10763119316E+02  0.58147577302E+01  0.39313160279E+02  0.41172707952E+02  0.10566000000E+00 0. -1.
         22    1    1    0    0    0 -0.25331367790E+02 -0.37028136496E+01  0.13604030000E+02  0.28990664968E+02  0.00000000000E+00 0.  1.
</event>
<event>
 5    1  0.1264731E-009  0.9118800E+02  0.7815553E-02  0.1125453E+00
         25   -1    0    0    0    0  0.00000000000E+00  0.00000000000E+00  0.99999998245E-14  0.12509000000E+03  0.12509000000E+03 0.  0.
        -13    1    3    3    0    0  0.26773600443E+01  0.29038296988E+02 -0.56129694690E+01  0.29696928108E+02  0.10566000000E+00 0.  1.
         23    2    1    0    0    0 -0.17497628661E+02 -0.27264791250E+02 -0.13441236308E+02  0.90015754689E+02  0.82901347444E+02 0.  0.
         13    1    3    3    0    0 -0.20174988706E+02 -0.56303088238E+02 -0.78282668385E+01  0.60318826581E+02  0.10566000000E+00 0. -1.
         22    1    1    0    0    0  0.17497628661E+02  0.27264791250E+02  0.13441236308E+02  0.35074245311E+02  0.00000000000E+00 0. -1.
</event>
<event>
 5    1  0.1264731E-009  0.9118800E+02  0.7815553E-02  0.1125453E+00
         25   -1    0    0    0    0  0.00000000000E+00  0.00000000000E+00  0.99999998245E-14  0.12509000000E+03  0.12509000000E+03 0.  0.
        -13    1    3    3    0    0  0.52677896965E+02 -0.26028094760E+02  0.10481360314E+02  0.59684944698E+02  0.10566000000E+00 0. -1.
         23    2    1    0    0    0  0.27868935427E+02 -0.91806534482E+00  0.11325012361E+02  0.94993882130E+02  0.90100284857E+02 0.  0.
         13    1    3    3    0    0 -0.24808961538E+02  0.25110029415E+02  0.84365204693E+00  0.35308937433E+02  0.10566000000E+00 0.  1.
         22    1    1    0    0    0 -0.27868935427E+02  0.91806534482E+00 -0.11325012361E+02  0.30096117870E+02  0.00000000000E+00 0. -1.
</event>
<event>
 5    1  0.1264731E-009  0.9118800E+02  0.7815553E-02  0.1125453E+00
         25   -1    0    0    0    0  0.00000000000E+00  0.00000000000E+00  0.99999998245E-14  0.12509000000E+03  0.12509000000E+03 0.  0.
        -13    1    3    3    0    0  0.25631761527E+02  0.13758972699E+02 -0.36776937815E+02  0.46891905994E+02  0.10566000000E+00 0. -1.
         23    2    1    0    0    0  0.26891034745E+02 -0.96812166199E+01  0.61841489766E+01  0.95847951449E+02  0.91278323788E+02 0.  0.
         13    1    3    3    0    0  0.12592732180E+01 -0.23440189318E+02  0.42961086791E+02  0.48956045455E+02  0.10566000000E+00 0.  1.
         22    1    1    0    0    0 -0.26891034745E+02  0.96812166199E+01 -0.61841489766E+01  0.29242048551E+02  0.00000000000E+00 0.  1.
</event>
<event>
 5    1  0.1264731E-009  0.9118800E+02  0.7815553E-02  0.1125453E+00
         25   -1    0    0    0    0  0.00000000000E+00  0.00000000000E+00  0.99999998245E-14  0.12509000000E+03  0.12509000000E+03 0.  0.
        -13    1    3    3    0    0 -0.56600298753E+01  0.34874868943E+02  0.18867226244E+02  0.40053411991E+02  0.10566000000E+00 0.  1.
         23    2    1    0    0    0 -0.24995717460E+02 -0.33256324416E+01 -0.15962387174E+02  0.95246348635E+02  0.90450115542E+02 0.  0.
         13    1    3    3    0    0 -0.19335687585E+02 -0.38200501384E+02 -0.34829613419E+02  0.55192936643E+02  0.10566000000E+00 0. -1.
         22    1    1    0    0    0  0.24995717460E+02  0.33256324416E+01  0.15962387174E+02  0.29843651365E+02  0.00000000000E+00 0. -1.
</event>
<event>
 5    1  0.1264731E-009  0.9118800E+02  0.7815553E-02  0.1125453E+00
         25   -1    0    0    0    0  0.00000000000E+00  0.00000000000E+00  0.99999998245E-14  0.12509000000E+03  0.12509000000E+03 0.  0.
        -13    1    3    3    0    0 -0.83391157694E+01 -0.42963390359E+02  0.44428000290E+02  0.62363868841E+02  0.10566000000E+00 0.  1.
         23    2    1    0    0    0 -0.67636454615E+00 -0.17714895677E+02  0.20550193207E+02  0.97949892434E+02  0.94114802179E+02 0.  0.
         13    1    3    3    0    0  0.76627512232E+01  0.25248494683E+02 -0.23877807083E+02  0.35586023593E+02  0.10566000000E+00 0. -1.
         22    1    1    0    0    0  0.67636454615E+00  0.17714895677E+02 -0.20550193207E+02  0.27140107566E+02  0.00000000000E+00 0.  1.
</event>
<event>
 5    1  0.1264731E-009  0.9118800E+02  0.7815553E-02  0.1125453E+00
         25   -1    0    0    0    0  0.00000000000E+00  0.00000000000E+00  0.99999998245E-14  0.12509000000E+03  0.12509000000E+03 0.  0.
        -13    1    3    3    0    0 -0.35468917366E+02 -0.12866427019E+02 -0.21799997365E+02  0.43575682352E+02  0.10566000000E+00 0.  1.
         23    2    1    0    0    0 -0.15141415097E+02 -0.30024030497E+01  0.25093568304E+02  0.95628770470E+02  0.90977457077E+02 0.  0.
         13    1    3    3    0    0  0.20327502269E+02  0.98640239698E+01  0.46893565669E+02  0.52053088117E+02  0.10566000000E+00 0. -1.
         22    1    1    0    0    0  0.15141415097E+02  0.30024030497E+01 -0.25093568304E+02  0.29461229530E+02  0.00000000000E+00 0.  1.
</event>
<event>
 5    1  0.1264731E-009  0.9118800E+02  0.7815553E-02  0.1125453E+00
         25   -1    0    0    0    0  0.00000000000E+00  0.00000000000E+00  0.99999998245E-14  0.12509000000E+03  0.12509000000E+03 0.  0.
        -13    1    3    3    0    0 -0.60309373009E+02  0.15436414721E+01  0.11871740526E+02  0.61486199174E+02  0.10566000000E+00 0.  1.
         23    2    1    0    0    0 -0.34710954066E+02 -0.38791592178E+01  0.13958124020E+00  0.90162679872E+02  0.83122747490E+02 0.  0.
         13    1    3    3    0    0  0.25598418943E+02 -0.54228006899E+01 -0.11732159285E+02  0.28676480698E+02  0.10566000000E+00 0. -1.
         22    1    1    0    0    0  0.34710954066E+02  0.38791592178E+01 -0.13958124020E+00  0.34927320128E+02  0.00000000000E+00 0.  1.
</event>
<event>
 5    1  0.1264731E-009  0.9118800E+02  0.7815553E-02  0.1125453E+00
         25   -1    0    0    0    0  0.00000000000E+00  0.00000000000E+00  0.99999998245E-14  0.12509000000E+03  0.12509000000E+03 0.  0.
        -13    1    3    3    0    0  0.26572849216E+02  0.11515306739E+01 -0.25640221283E+02  0.36944207257E+02  0.10566000000E+00 0.  1.
         23    2    1    0    0    0 -0.27094198729E+02 -0.11010441008E+02 -0.73170149491E+01  0.94942626587E+02  0.90029096516E+02 0.  0.
         13    1    3    3    0    0 -0.53667047945E+02 -0.12161971682E+02  0.18323206334E+02  0.57998419330E+02  0.10566000000E+00 0. -1.
         22    1    1    0    0    0  0.27094198729E+02  0.11010441008E+02  0.73170149491E+01  0.30147373413E+02  0.00000000000E+00 0. -1.
</event>
<event>
 5    1  0.1264731E-009  0.9118800E+02  0.7815553E-02  0.1125453E+00
         25   -1    0    0    0    0  0.00000000000E+00  0.00000000000E+00  0.99999998245E-14  0.12509000000E+03  0.12509000000E+03 0.  0.
        -13    1    3    3    0    0 -0.18146486757E+00 -0.47763527464E+02  0.15030001169E+02  0.50072942639E+02  0.10566000000E+00 0.  1.
         23    2    1    0    0    0 -0.10303814471E+02 -0.19048478902E+02 -0.19386114538E+02  0.96023961776E+02  0.91519214689E+02 0.  0.
         13    1    3    3    0    0 -0.10122349604E+02  0.28715048562E+02 -0.34416115707E+02  0.45951019138E+02  0.10566000000E+00 0. -1.
         22    1    1    0    0    0  0.10303814471E+02  0.19048478902E+02  0.19386114538E+02  0.29066038224E+02  0.00000000000E+00 0.  1.
</event>
<event>
 5    1  0.1264731E-009  0.9118800E+02  0.7815553E-02  0.1125453E+00
         25   -1    0    0    0    0  0.00000000000E+00  0.00000000000E+00  0.99999998245E-14  0.12509000000E+03  0.12509000000E+03 0.  0.
        -13    1    3    3    0    0  0.85241893209E+01  0.53656980851E+01 -0.33962499156E+02  0.35424779921E+02  0.10566000000E+00 0.  1.
         23    2    1    0    0    0  0.10121011512E+02  0.57798108865E+01  0.26620253125E+02  0.96030079760E+02  0.91527576469E+02 0.  0.
         13    1    3    3    0    0  0.15968221915E+01  0.41411280139E+00  0.60582752281E+02  0.60605299839E+02  0.10566000000E+00 0. -1.
         22    1    1    0    0    0 -0.10121011512E+02 -0.57798108865E+01 -0.26620253125E+02  0.29059920240E+02  0.00000000000E+00 0. -1.
</event>
<event>
 5    1  0.1264731E-009  0.9118800E+02  0.7815553E-02  0.1125453E+00
         25   -1    0    0    0    0  0.00000000000E+00  0.00000000000E+00  0.99999998245E-14  0.12509000000E+03  0.12509000000E+03 0.  0.
        -13    1    3    3    0    0 -0.17236949609E+02 -0.25078816688E+02  0.49585520348E+02  0.58178986503E+02  0.10566000000E+00 0.  1.
         23    2    1    0    0    0  0.66952643864E+01 -0.15879968508E+02  0.30187393322E+02  0.90329696771E+02  0.83373709514E+02 0.  0.
         13    1    3    3    0    0  0.23932213995E+02  0.91988481800E+01 -0.19398127026E+02  0.32150710268E+02  0.10566000000E+00 0. -1.
         22    1    1    0    0    0 -0.66952643864E+01  0.15879968508E+02 -0.30187393322E+02  0.34760303229E+02  0.00000000000E+00 0.  1.
</event>
<event>
 5    1  0.1264731E-009  0.9118800E+02  0.7815553E-02  0.1125453E+00
         25   -1    0    0    0    0  0.00000000000E+00  0.00000000000E+00  0.99999998245E-14  0.12509000000E+03  0.12509000000E+03 0.  0.
        -13    1    3    3    0    0 -0.41496135842E+02 -0.14299332900E+02  0.18103102484E+01  0.43928220980E+02  0.10566000000E+00 0. -1.
         23    2    1    0    0    0  0.23098961479E+01 -0.24296640398E+02 -0.19682161961E+02  0.93736374144E+02  0.88337183470E+02 0.  0.
         13    1    3    3    0    0  0.43806031990E+02 -0.99973074987E+01 -0.21492472209E+02  0.49808153164E+02  0.10566000000E+00 0.  1.
         22    1    1    0    0    0 -0.23098961479E+01  0.24296640398E+02  0.19682161961E+02  0.31353625856E+02  0.00000000000E+00 0.  1.
</event>
<event>
 5    1  0.1264731E-009  0.9118800E+02  0.7815553E-02  0.1125453E+00
         25   -1    0    0    0    0  0.00000000000E+00  0.00000000000E+00  0.99999998245E-14  0.12509000000E+03  0.12509000000E+03 0.  0.
        -13    1    3    3    0    0  0.32764568660E+02  0.20600695020E+02  0.18517183591E+02  0.42904578392E+02  0.10566000000E+00 0.  1.
         23    2    1    0    0    0 -0.15787802594E+02  0.59523625650E+01  0.25926152151E+02  0.94156996651E+02  0.88930811995E+02 0.  0.
         13    1    3    3    0    0 -0.48552371255E+02 -0.14648332455E+02  0.74089685595E+01  0.51252418258E+02  0.10566000000E+00 0. -1.
         22    1    1    0    0    0  0.15787802594E+02 -0.59523625650E+01 -0.25926152151E+02  0.30933003349E+02  0.00000000000E+00 0.  1.
</event>
<event>
 5    1  0.1264731E-009  0.9118800E+02  0.7815553E-02  0.1125453E+00
         25   -1    0    0    0    0  0.00000000000E+00  0.00000000000E+00  0.99999998245E-14  0.12509000000E+03  0.12509000000E+03 0.  0.
        -13    1    3    3    0    0  0.16747620976E+02  0.79681270150E+01  0.26710876406E+02  0.32518547613E+02  0.10566000000E+00 0.  1.
         23    2    1    0    0    0 -0.33394087005E+02  0.16928182923E+02  0.78374944258E+01  0.86838794230E+02  0.77960383789E+02 0.  0.
         13    1    3    3    0    0 -0.50141707981E+02  0.89600559079E+01 -0.18873381980E+02  0.54320246617E+02  0.10566000000E+00 0. -1.
         22    1    1    0    0    0  0.33394087005E+02 -0.16928182923E+02 -0.78374944258E+01  0.38251205770E+02  0.00000000000E+00 0. -1.
</event>
<event>
 5    1  0.1264731E-009  0.9118800E+02  0.7815553E-02  0.1125453E+00
         25   -1    0    0    0    0  0.00000000000E+00  0.00000000000E+00  0.99999998245E-14  0.12509000000E+03  0.12509000000E+03 0.  0.
        -13    1    3    3    0    0 -0.22161406257E+02  0.34891218450E+02 -0.31942088470E+02  0.52238235347E+02  0.10566000000E+00 0.  1.
         23    2    1    0    0    0  0.14825313321E+02  0.21547457619E+02 -0.12612456852E+02  0.96052835662E+02  0.91558671495E+02 0.  0.
         13    1    3    3    0    0  0.36986719578E+02 -0.13343760831E+02  0.19329631618E+02  0.43814600316E+02  0.10566000000E+00 0. -1.
         22    1    1    0    0    0 -0.14825313321E+02 -0.21547457619E+02  0.12612456852E+02  0.29037164338E+02  0.00000000000E+00 0. -1.
</event>
<event>
 5    1  0.1264731E-009  0.9118800E+02  0.7815553E-02  0.1125453E+00
         25   -1    0    0    0    0  0.00000000000E+00  0.00000000000E+00  0.99999998245E-14  0.12509000000E+03  0.12509000000E+03 0.  0.
        -13    1    3    3    0    0 -0.27268385661E+02 -0.73889477876E+01 -0.26685923956E+01  0.28377701729E+02  0.10566000000E+00 0.  1.
         23    2    1    0    0    0  0.31457084595E+02 -0.39340105612E+01  0.15301493481E+02  0.89888291049E+02  0.82708793696E+02 0.  0.
         13    1    3    3    0    0  0.58725470257E+02  0.34549372264E+01  0.17970085877E+02  0.61510589320E+02  0.10566000000E+00 0. -1.
         22    1    1    0    0    0 -0.31457084595E+02  0.39340105612E+01 -0.15301493481E+02  0.35201708951E+02  0.00000000000E+00 0. -1.
</event>
<event>
 5    1  0.1264731E-009  0.9118800E+02  0.7815553E-02  0.1125453E+00
         25   -1    0    0    0    0  0.00000000000E+00  0.00000000000E+00  0.99999998245E-14  0.12509000000E+03  0.12509000000E+03 0.  0.
        -13    1    3    3    0    0  0.39446610195E+02 -0.83725431039E+01 -0.34100107799E+02  0.52810633871E+02  0.10566000000E+00 0.  1.
         23    2    1    0    0    0 -0.27579085680E+01  0.51592901972E+01 -0.26714188210E+02  0.97742748096E+02  0.93839078313E+02 0.  0.
         13    1    3    3    0    0 -0.42204518763E+02  0.13531833301E+02  0.73859195890E+01  0.44932114225E+02  0.10566000000E+00 0. -1.
         22    1    1    0    0    0  0.27579085680E+01 -0.51592901972E+01  0.26714188210E+02  0.27347251904E+02  0.00000000000E+00 0. -1.
</event>
<event>
 5    1  0.1264731E-009  0.9118800E+02  0.7815553E-02  0.1125453E+00
         25   -1    0    0    0    0  0.00000000000E+00  0.00000000000E+00  0.99999998245E-14  0.12509000000E+03  0.12509000000E+03 0.  0.
        -13    1    3    3    0    0 -0.22030363844E+02  0.67854967570E+01 -0.26969948290E+02  0.35479137139E+02  0.10566000000E+00 0.  1.
         23    2    1    0    0    0  0.16815751315E+02 -0.24572278785E+02  0.51920198356E+01  0.94865449599E+02  0.89921799808E+02 0.  0.
         13    1    3    3    0    0  0.38846115159E+02 -0.31357775542E+02  0.32161968125E+02  0.59386312460E+02  0.10566000000E+00 0. -1.
         22    1    1    0    0    0 -0.16815751315E+02  0.24572278785E+02 -0.51920198356E+01  0.30224550401E+02  0.00000000000E+00 0. -1.
</event>
<event>
 5    1  0.1264731E-009  0.9118800E+02  0.7815553E-02  0.1125453E+00
         25   -1    0    0    0    0  0.00000000000E+00  0.00000000000E+00  0.99999998245E-14  0.12509000000E+03  0.12509000000E+03 0.  0.
        -13    1    3    3    0    0 -0.36409443947E+02 -0.45124711567E+02 -0.18401699544E+01  0.58011073013E+02  0.10566000000E+00 0. -1.
         23    2    1    0    0    0 -0.13678663958E+02 -0.23810540868E+02 -0.17134361538E+02  0.92722824507E+02  0.86890092272E+02 0.  0.
         13    1    3    3    0    0  0.22730779989E+02  0.21314170699E+02 -0.15294191584E+02  0.34711751494E+02  0.10566000000E+00 0.  1.
         22    1    1    0    0    0  0.13678663958E+02  0.23810540868E+02  0.17134361538E+02  0.32367175493E+02  0.00000000000E+00 0. -1.
</event>
<event>
 5    1  0.1264731E-009  0.9118800E+02  0.7815553E-02  0.1125453E+00
         25   -1    0    0    0    0  0.00000000000E+00  0.00000000000E+00  0.99999998245E-14  0.12509000000E+03  0.12509000000E+03 0.  0.
        -13    1    3    3    0    0  0.23179864828E+02  0.17159299873E+02 -0.19922950704E+02  0.35052572436E+02  0.10566000000E+00 0. -1.
         23    2    1    0    0    0 -0.19157897576E+02 -0.21842607319E+02  0.20819909357E+00  0.96035432702E+02  0.91534891999E+02 0.  0.
         13    1    3    3    0    0 -0.42337762404E+02 -0.39001907192E+02  0.20131149798E+02  0.60982860266E+02  0.10566000000E+00 0.  1.
         22    1    1    0    0    0  0.19157897576E+02  0.21842607319E+02 -0.20819909357E+00  0.29054567298E+02  0.00000000000E+00 0.  1.
</event>
<event>
 5    1  0.1264731E-009  0.9118800E+02  0.7815553E-02  0.1125453E+00
         25   -1    0    0    0    0  0.00000000000E+00  0.00000000000E+00  0.99999998245E-14  0.12509000000E+03  0.12509000000E+03 0.  0.
        -13    1    3    3    0    0 -0.25514676924E+02 -0.11313543536E+02  0.44236368863E+02  0.52305472946E+02  0.10566000000E+00 0. -1.
         23    2    1    0    0    0 -0.85265174996E+01  0.20157769001E+02  0.19350562213E+02  0.95875595852E+02  0.91316200481E+02 0.  0.
         13    1    3    3    0    0  0.16988159425E+02  0.31471312537E+02 -0.24885806650E+02  0.43570122906E+02  0.10566000000E+00 0.  1.
         22    1    1    0    0    0  0.85265174996E+01 -0.20157769001E+02 -0.19350562213E+02  0.29214404148E+02  0.00000000000E+00 0. -1.
</event>
<event>
 5    1  0.1264731E-009  0.9118800E+02  0.7815553E-02  0.1125453E+00
         25   -1    0    0    0    0  0.00000000000E+00  0.00000000000E+00  0.99999998245E-14  0.12509000000E+03  0.12509000000E+03 0.  0.
        -13    1    3    3    0    0 -0.31219294453E+02 -0.43366111736E+02 -0.10292655929E+02  0.54417037069E+02  0.10566000000E+00 0.  1.
         23    2    1    0    0    0 -0.93084021280E+01 -0.13058723588E+02  0.17755345681E+02  0.10116451333E+03  0.98294607410E+02 0.  0.
         13    1    3    3    0    0  0.21910892325E+02  0.30307388148E+02  0.28048001610E+02  0.46747476265E+02  0.10566000000E+00 0. -1.
         22    1    1    0    0    0  0.93084021280E+01  0.13058723588E+02 -0.17755345681E+02  0.23925486666E+02  0.00000000000E+00 0. -1.
</event>
<event>
 5    1  0.1264731E-009  0.9118800E+02  0.7815553E-02  0.1125453E+00
         25   -1    0    0    0    0  0.00000000000E+00  0.00000000000E+00  0.99999998245E-14  0.12509000000E+03  0.12509000000E+03 0.  0.
        -13    1    3    3    0    0  0.29344874286E+02 -0.51745125760E+02 -0.85510033365E+01  0.60098340317E+02  0.10566000000E+00 0.  1.
         23    2    1    0    0    0  0.40703467944E+01 -0.30184295707E+02  0.83685898830E+00  0.94621003244E+02  0.89581105661E+02 0.  0.
         13    1    3    3    0    0 -0.25274527491E+02  0.21560830053E+02  0.93878623248E+01  0.34522662927E+02  0.10566000000E+00 0. -1.
         22    1    1    0    0    0 -0.40703467944E+01  0.30184295707E+02 -0.83685898830E+00  0.30468996756E+02  0.00000000000E+00 0.  1.
</event>
<event>
 5    1  0.1264731E-009  0.9118800E+02  0.7815553E-02  0.1125453E+00
         25   -1    0    0    0    0  0.00000000000E+00  0.00000000000E+00  0.99999998245E-14  0.12509000000E+03  0.12509000000E+03 0.  0.
        -13    1    3    3    0    0 -0.15090600577E+02  0.56877143750E+02 -0.10460519388E+02  0.59767627834E+02  0.10566000000E+00 0. -1.
         23    2    1    0    0    0  0.47993116718E+01  0.33143645153E+02 -0.45451472474E+01  0.91293654486E+02  0.84807655194E+02 0.  0.
         13    1    3    3    0    0  0.19889912249E+02 -0.23733498597E+02  0.59153721406E+01  0.31526026653E+02  0.10566000000E+00 0.  1.
         22    1    1    0    0    0 -0.47993116718E+01 -0.33143645153E+02  0.45451472474E+01  0.33796345514E+02  0.00000000000E+00 0. -1.
</event>
<event>
 5    1  0.1264731E-009  0.9118800E+02  0.7815553E-02  0.1125453E+00
         25   -1    0    0    0    0  0.00000000000E+00  0.00000000000E+00  0.99999998245E-14  0.12509000000E+03  0.12509000000E+03 0.  0.
        -13    1    3    3    0    0  0.44939325860E+02 -0.29243923550E+02 -0.21127107712E+02  0.57629123867E+02  0.10566000000E+00 0.  1.
         23    2    1    0    0    0  0.10512727481E+02 -0.13051418143E+02 -0.24039893189E+02  0.95785163894E+02  0.91192237625E+02 0.  0.
         13    1    3    3    0    0 -0.34426598379E+02  0.16192505406E+02 -0.29127854765E+01  0.38156040027E+02  0.10566000000E+00 0. -1.
         22    1    1    0    0    0 -0.10512727481E+02  0.13051418143E+02  0.24039893189E+02  0.29304836106E+02  0.00000000000E+00 0.  1.
</event>
<event>
 5    1  0.1264731E-009  0.9118800E+02  0.7815553E-02  0.1125453E+00
         25   -1    0    0    0    0  0.00000000000E+00  0.00000000000E+00  0.99999998245E-14  0.12509000000E+03  0.12509000000E+03 0.  0.
        -13    1    3    3    0    0 -0.18760208746E+01 -0.15583023364E+02 -0.40558964960E+02  0.43490123869E+02  0.10566000000E+00 0.  1.
         23    2    1    0    0    0 -0.17571968173E+02 -0.20750844920E+02  0.95630156310E+01  0.96266001347E+02  0.91849442661E+02 0.  0.
         13    1    3    3    0    0 -0.15695947298E+02 -0.51678215565E+01  0.50121980591E+02  0.52775877478E+02  0.10566000000E+00 0. -1.
         22    1    1    0    0    0  0.17571968173E+02  0.20750844920E+02 -0.95630156310E+01  0.28823998653E+02  0.00000000000E+00 0.  1.
</event>
<event>
 5    1  0.1264731E-009  0.9118800E+02  0.7815553E-02  0.1125453E+00
         25   -1    0    0    0    0  0.00000000000E+00  0.00000000000E+00  0.99999998245E-14  0.12509000000E+03  0.12509000000E+03 0.  0.
        -13    1    3    3    0    0 -0.35957649440E+02  0.24467571576E+02 -0.40983827036E+01  0.43685495498E+02  0.10566000000E+00 0. -1.
         23    2    1    0    0    0 -0.75176381588E+01  0.87861278522E+01 -0.34825683772E+02  0.88394779925E+02  0.80418268706E+02 0.  0.
         13    1    3    3    0    0  0.28440011282E+02 -0.15681443724E+02 -0.30727301069E+02  0.44709284427E+02  0.10566000000E+00 0.  1.
         22    1    1    0    0    0  0.75176381588E+01 -0.87861278522E+01  0.34825683772E+02  0.36695220075E+02  0.00000000000E+00 0. -1.
</event>
<event>
 5    1  0.1264731E-009  0.9118800E+02  0.7815553E-02  0.1125453E+00
         25   -1    0    0    0    0  0.00000000000E+00  0.00000000000E+00  0.99999998245E-14  0.12509000000E+03  0.12509000000E+03 0.  0.
        -13    1    3    3    0    0 -0.10790351155E+02  0.21089414018E+02  0.32052723413E+02  0.39857035814E+02  0.10566000000E+00 0. -1.
         23    2    1    0    0    0  0.17726432875E+02  0.18737425905E+02 -0.15238658584E+02  0.95131123728E+02  0.90290622073E+02 0.  0.
         13    1    3    3    0    0  0.28516784029E+02 -0.23519881131E+01 -0.47291381998E+02  0.55274087914E+02  0.10566000000E+00 0.  1.
         22    1    1    0    0    0 -0.17726432875E+02 -0.18737425905E+02  0.15238658584E+02  0.29958876272E+02  0.00000000000E+00 0. -1.
</event>
<event>
 5    1  0.1264731E-009  0.9118800E+02  0.7815553E-02  0.1125453E+00
         25   -1    0    0    0    0  0.00000000000E+00  0.00000000000E+00  0.99999998245E-14  0.12509000000E+03  0.12509000000E+03 0.  0.
        -13    1    3    3    0    0  0.20230560466E+02  0.29920511271E+02  0.28957305155E+02  0.46293080016E+02  0.10566000000E+00 0. -1.
         23    2    1    0    0    0 -0.11886647282E+02 -0.80356220667E+01  0.25118807190E+02  0.96162191921E+02  0.91707955351E+02 0.  0.
         13    1    3    3    0    0 -0.32117207748E+02 -0.37956133338E+02 -0.38384979644E+01  0.49869111905E+02  0.10566000000E+00 0.  1.
         22    1    1    0    0    0  0.11886647282E+02  0.80356220667E+01 -0.25118807190E+02  0.28927808079E+02  0.00000000000E+00 0.  1.
</event>
<event>
 5    1  0.1264731E-009  0.9118800E+02  0.7815553E-02  0.1125453E+00
         25   -1    0    0    0    0  0.00000000000E+00  0.00000000000E+00  0.99999998245E-14  0.12509000000E+03  0.12509000000E+03 0.  0.
        -13    1    3    3    0    0 -0.29369169272E+02 -0.19379650619E+02  0.21278818651E+02  0.41120776367E+02  0.10566000000E+00 0. -1.
         23    2    1    0    0    0 -0.40394169787E+01  0.22034708380E+02 -0.11707169213E+02  0.99813467922E+02  0.96559957046E+02 0.  0.
         13    1    3    3    0    0  0.25329752293E+02  0.41414358999E+02 -0.32985987864E+02  0.58692691555E+02  0.10566000000E+00 0.  1.
         22    1    1    0    0    0  0.40394169787E+01 -0.22034708380E+02  0.11707169213E+02  0.25276532078E+02  0.00000000000E+00 0.  1.
</event>
<event>
 5    1  0.1264731E-009  0.9118800E+02  0.7815553E-02  0.1125453E+00
         25   -1    0    0    0    0  0.00000000000E+00  0.00000000000E+00  0.99999998245E-14  0.12509000000E+03  0.12509000000E+03 0.  0.
        -13    1    3    3    0    0 -0.15448019568E+02 -0.28161647450E+02 -0.18099173741E+02  0.36868834397E+02  0.10566000000E+00 0. -1.
         23    2    1    0    0    0 -0.14597796224E+02  0.26402129872E+02  0.15810216208E+01  0.94879608646E+02  0.89941494268E+02 0.  0.
         13    1    3    3    0    0  0.85022334467E+00  0.54563777323E+02  0.19680195361E+02  0.58010774249E+02  0.10566000000E+00 0.  1.
         22    1    1    0    0    0  0.14597796224E+02 -0.26402129872E+02 -0.15810216208E+01  0.30210391354E+02  0.00000000000E+00 0.  1.
</event>
<event>
 5    1  0.1264731E-009  0.9118800E+02  0.7815553E-02  0.1125453E+00
         25   -1    0    0    0    0  0.00000000000E+00  0.00000000000E+00  0.99999998245E-14  0.12509000000E+03  0.12509000000E+03 0.  0.
        -13    1    3    3    0    0  0.30457158874E+02 -0.88124302446E+01 -0.84180900082E+00  0.31717775141E+02  0.10566000000E+00 0.  1.
         23    2    1    0    0    0 -0.18643678032E+02  0.25547033236E+02 -0.90204837087E+01  0.92202209499E+02  0.86137336111E+02 0.  0.
         13    1    3    3    0    0 -0.49100836905E+02  0.34359463481E+02 -0.81786747079E+01  0.60484434357E+02  0.10566000000E+00 0. -1.
         22    1    1    0    0    0  0.18643678032E+02 -0.25547033236E+02  0.90204837087E+01  0.32887790501E+02  0.00000000000E+00 0. -1.
</event>
<event>
 5    1  0.1264731E-009  0.9118800E+02  0.7815553E-02  0.1125453E+00
         25   -1    0    0    0    0  0.00000000000E+00  0.00000000000E+00  0.99999998245E-14  0.12509000000E+03  0.12509000000E+03 0.  0.
        -13    1    3    3    0    0 -0.72901765872E+01 -0.60697222880E+02  0.12469637177E+02  0.62392327697E+02  0.10566000000E+00 0. -1.
         23    2    1    0    0    0 -0.11910686259E+01 -0.34961072767E+02  0.77771356335E+01  0.89254555365E+02  0.81744703567E+02 0.  0.
         13    1    3    3    0    0  0.60991079613E+01  0.25736150113E+02 -0.46925015430E+01  0.26862227669E+02  0.10566000000E+00 0.  1.
         22    1    1    0    0    0  0.11910686259E+01  0.34961072767E+02 -0.77771356335E+01  0.35835444635E+02  0.00000000000E+00 0. -1.
</event>
<event>
 5    1  0.1264731E-009  0.9118800E+02  0.7815553E-02  0.1125453E+00
         25   -1    0    0    0    0  0.00000000000E+00  0.00000000000E+00  0.99999998245E-14  0.12509000000E+03  0.12509000000E+03 0.  0.
        -13    1    3    3    0    0  0.27701215370E+02 -0.40354195394E+01 -0.28926110396E+02  0.40253856591E+02  0.10566000000E+00 0. -1.
         23    2    1    0    0    0  0.13803735768E+02 -0.13613679142E+02  0.23090013849E+02  0.94939973127E+02  0.90025409617E+02 0.  0.
         13    1    3    3    0    0 -0.13897479601E+02 -0.95782596025E+01  0.52016124244E+02  0.54686116535E+02  0.10566000000E+00 0.  1.
         22    1    1    0    0    0 -0.13803735768E+02  0.13613679142E+02 -0.23090013849E+02  0.30150026873E+02  0.00000000000E+00 0.  1.
</event>
<event>
 5    1  0.1264731E-009  0.9118800E+02  0.7815553E-02  0.1125453E+00
         25   -1    0    0    0    0  0.00000000000E+00  0.00000000000E+00  0.99999998245E-14  0.12509000000E+03  0.12509000000E+03 0.  0.
        -13    1    3    3    0    0 -0.13918917286E+02 -0.11789004327E+02 -0.30193018638E+02  0.35275294753E+02  0.10566000000E+00 0.  1.
         23    2    1    0    0    0  0.23902234832E+02 -0.32099048604E+02 -0.57999765958E+01  0.84651089533E+02  0.74367341484E+02 0.  0.
         13    1    3    3    0    0  0.37821152118E+02 -0.20310044277E+02  0.24393042042E+02  0.49375794780E+02  0.10566000000E+00 0. -1.
         22    1    1    0    0    0 -0.23902234832E+02  0.32099048604E+02  0.57999765958E+01  0.40438910467E+02  0.00000000000E+00 0. -1.
</event>
<event>
 5    1  0.1264731E-009  0.9118800E+02  0.7815553E-02  0.1125453E+00
         25   -1    0    0    0    0  0.00000000000E+00  0.00000000000E+00  0.99999998245E-14  0.12509000000E+03  0.12509000000E+03 0.  0.
        -13    1    3    3    0    0  0.14514156151E+02 -0.58796995841E+02  0.11316995915E+01  0.60572595757E+02  0.10566000000E+00 0.  1.
         23    2    1    0    0    0  0.17161471245E+02 -0.23813578134E+02  0.20207390749E+01  0.95667457872E+02  0.91030635011E+02 0.  0.
         13    1    3    3    0    0  0.26473150945E+01  0.34983417707E+02  0.88903948346E+00  0.35094862115E+02  0.10566000000E+00 0. -1.
         22    1    1    0    0    0 -0.17161471245E+02  0.23813578134E+02 -0.20207390749E+01  0.29422542128E+02  0.00000000000E+00 0.  1.
</event>
<event>
 5    1  0.1264731E-009  0.9118800E+02  0.7815553E-02  0.1125453E+00
         25   -1    0    0    0    0  0.00000000000E+00  0.00000000000E+00  0.99999998245E-14  0.12509000000E+03  0.12509000000E+03 0.  0.
        -13    1    3    3    0    0  0.37584809868E+02  0.61828618335E+01 -0.48623706152E+01  0.38399212561E+02  0.10566000000E+00 0. -1.
         23    2    1    0    0    0 -0.59104407230E+01 -0.11256389592E+02  0.27122521126E+02  0.95135521730E+02  0.90296714926E+02 0.  0.
         13    1    3    3    0    0 -0.43495250591E+02 -0.17439251426E+02  0.31984891741E+02  0.56736309168E+02  0.10566000000E+00 0.  1.
         22    1    1    0    0    0  0.59104407230E+01  0.11256389592E+02 -0.27122521126E+02  0.29954478270E+02  0.00000000000E+00 0.  1.
</event>
<event>
 5    1  0.1264731E-009  0.9118800E+02  0.7815553E-02  0.1125453E+00
         25   -1    0    0    0    0  0.00000000000E+00  0.00000000000E+00  0.99999998245E-14  0.12509000000E+03  0.12509000000E+03 0.  0.
        -13    1    3    3    0    0 -0.59835337785E+02  0.16519510820E+02 -0.21093333081E+01  0.62109760397E+02  0.10566000000E+00 0.  1.
         23    2    1    0    0    0 -0.29169916033E+02  0.42215689602E+01  0.26794101075E+01  0.95494647588E+02  0.90792856732E+02 0.  0.
         13    1    3    3    0    0  0.30665421752E+02 -0.12297941860E+02  0.47887434157E+01  0.33384887191E+02  0.10566000000E+00 0. -1.
         22    1    1    0    0    0  0.29169916033E+02 -0.42215689602E+01 -0.26794101075E+01  0.29595352412E+02  0.00000000000E+00 0.  1.
</event>
<event>
 5    1  0.1264731E-009  0.9118800E+02  0.7815553E-02  0.1125453E+00
         25   -1    0    0    0    0  0.00000000000E+00  0.00000000000E+00  0.99999998245E-14  0.12509000000E+03  0.12509000000E+03 0.  0.
        -13    1    3    3    0    0 -0.59099234224E+02  0.17884546773E+01  0.94497737171E+01  0.59876768812E+02  0.10566000000E+00 0. -1.
         23    2    1    0    0    0 -0.27452928878E+02 -0.72905399998E+01 -0.57016312367E+01  0.96118913098E+02  0.91648903861E+02 0.  0.
         13    1    3    3    0    0  0.31646305346E+02 -0.90789946771E+01 -0.15151404954E+02  0.36242144287E+02  0.10566000000E+00 0.  1.
         22    1    1    0    0    0  0.27452928878E+02  0.72905399998E+01  0.57016312367E+01  0.28971086902E+02  0.00000000000E+00 0. -1.
</event>
<event>
 5    1  0.1264731E-009  0.9118800E+02  0.7815553E-02  0.1125453E+00
         25   -1    0    0    0    0  0.00000000000E+00  0.00000000000E+00  0.99999998245E-14  0.12509000000E+03  0.12509000000E+03 0.  0.
        -13    1    3    3    0    0 -0.70883240205E+01  0.35715121987E+02 -0.84938485514E+01  0.37389449090E+02  0.10566000000E+00 0.  1.
         23    2    1    0    0    0  0.44247274229E+01  0.32558900142E+01  0.33182985931E+02  0.91455351379E+02  0.85045821226E+02 0.  0.
         13    1    3    3    0    0  0.11513051443E+02 -0.32459231973E+02  0.41676834483E+02  0.54065902289E+02  0.10566000000E+00 0. -1.
         22    1    1    0    0    0 -0.44247274229E+01 -0.32558900142E+01 -0.33182985931E+02  0.33634648621E+02  0.00000000000E+00 0. -1.
</event>
<event>
 5    1  0.1264731E-009  0.9118800E+02  0.7815553E-02  0.1125453E+00
         25   -1    0    0    0    0  0.00000000000E+00  0.00000000000E+00  0.99999998245E-14  0.12509000000E+03  0.12509000000E+03 0.  0.
        -13    1    3    3    0    0 -0.21128232766E+02  0.89631874724E+00 -0.41516873443E+02  0.46592569704E+02  0.10566000000E+00 0.  1.
         23    2    1    0    0    0  0.17108632818E+02  0.17839827676E+02 -0.13585483533E+02  0.96884856298E+02  0.92688431040E+02 0.  0.
         13    1    3    3    0    0  0.38236865585E+02  0.16943508928E+02  0.27931389910E+02  0.50292286594E+02  0.10566000000E+00 0. -1.
         22    1    1    0    0    0 -0.17108632818E+02 -0.17839827676E+02  0.13585483533E+02  0.28205143702E+02  0.00000000000E+00 0.  1.
</event>
<event>
 5    1  0.1264731E-009  0.9118800E+02  0.7815553E-02  0.1125453E+00
         25   -1    0    0    0    0  0.00000000000E+00  0.00000000000E+00  0.99999998245E-14  0.12509000000E+03  0.12509000000E+03 0.  0.
        -13    1    3    3    0    0 -0.32040366613E+02 -0.12665040973E+02 -0.22024605399E+02  0.40891108600E+02  0.10566000000E+00 0.  1.
         23    2    1    0    0    0  0.79882845363E+01  0.24507202094E+02 -0.12869124070E+02  0.96279758790E+02  0.91868177047E+02 0.  0.
         13    1    3    3    0    0  0.40028651149E+02  0.37172243067E+02  0.91554813289E+01  0.55388650190E+02  0.10566000000E+00 0. -1.
         22    1    1    0    0    0 -0.79882845363E+01 -0.24507202094E+02  0.12869124070E+02  0.28810241210E+02  0.00000000000E+00 0. -1.
</event>
<event>
 5    1  0.1264731E-009  0.9118800E+02  0.7815553E-02  0.1125453E+00
         25   -1    0    0    0    0  0.00000000000E+00  0.00000000000E+00  0.99999998245E-14  0.12509000000E+03  0.12509000000E+03 0.  0.
        -13    1    3    3    0    0  0.40772403185E+01  0.38894268175E+02 -0.43338784574E+02  0.58375075142E+02  0.10566000000E+00 0. -1.
         23    2    1    0    0    0  0.16123735829E+02  0.22890396245E+02 -0.14305412914E+02  0.93648149928E+02  0.88212164972E+02 0.  0.
         13    1    3    3    0    0  0.12046495510E+02 -0.16003871930E+02  0.29033371660E+02  0.35273074786E+02  0.10566000000E+00 0.  1.
         22    1    1    0    0    0 -0.16123735829E+02 -0.22890396245E+02  0.14305412914E+02  0.31441850072E+02  0.00000000000E+00 0. -1.
</event>
<event>
 5    1  0.1264731E-009  0.9118800E+02  0.7815553E-02  0.1125453E+00
         25   -1    0    0    0    0  0.00000000000E+00  0.00000000000E+00  0.99999998245E-14  0.12509000000E+03  0.12509000000E+03 0.  0.
        -13    1    3    3    0    0 -0.34187761012E+02 -0.87237831723E+01 -0.23825422138E+01  0.35363753580E+02  0.10566000000E+00 0.  1.
         23    2    1    0    0    0  0.18446198875E+02  0.21346335956E+02 -0.65583410288E+01  0.96125536450E+02  0.91657943514E+02 0.  0.
         13    1    3    3    0    0  0.52633959887E+02  0.30070119128E+02 -0.41757988150E+01  0.60761782870E+02  0.10566000000E+00 0. -1.
         22    1    1    0    0    0 -0.18446198875E+02 -0.21346335956E+02  0.65583410288E+01  0.28964463550E+02  0.00000000000E+00 0. -1.
</event>
<event>
 5    1  0.1264731E-009  0.9118800E+02  0.7815553E-02  0.1125453E+00
         25   -1    0    0    0    0  0.00000000000E+00  0.00000000000E+00  0.99999998245E-14  0.12509000000E+03  0.12509000000E+03 0.  0.
        -13    1    3    3    0    0  0.52685250090E+02  0.33346206688E+02 -0.40562954963E+01  0.62483355981E+02  0.10566000000E+00 0.  1.
         23    2    1    0    0    0  0.30886111398E+02  0.19502138746E+02 -0.43121406829E+01  0.88308484938E+02  0.80283925302E+02 0.  0.
         13    1    3    3    0    0 -0.21799138692E+02 -0.13844067942E+02 -0.25584518663E+00  0.25825128957E+02  0.10566000000E+00 0. -1.
         22    1    1    0    0    0 -0.30886111398E+02 -0.19502138746E+02  0.43121406829E+01  0.36781515062E+02  0.00000000000E+00 0.  1.
</event>
<event>
 5    1  0.1264731E-009  0.9118800E+02  0.7815553E-02  0.1125453E+00
         25   -1    0    0    0    0  0.00000000000E+00  0.00000000000E+00  0.99999998245E-14  0.12509000000E+03  0.12509000000E+03 0.  0.
        -13    1    3    3    0    0  0.39214889901E+02  0.19646510105E+02  0.26125536766E+02  0.51052402339E+02  0.10566000000E+00 0. -1.
         23    2    1    0    0    0 -0.16317696270E+01  0.27605676852E+02  0.10911725418E+02  0.95361195480E+02  0.90608806334E+02 0.  0.
         13    1    3    3    0    0 -0.40846659528E+02  0.79591667476E+01 -0.15213811348E+02  0.44308793142E+02  0.10566000000E+00 0.  1.
         22    1    1    0    0    0  0.16317696270E+01 -0.27605676852E+02 -0.10911725418E+02  0.29728804520E+02  0.00000000000E+00 0.  1.
</event>
<event>
 5    1  0.1264731E-009  0.9118800E+02  0.7815553E-02  0.1125453E+00
         25   -1    0    0    0    0  0.00000000000E+00  0.00000000000E+00  0.99999998245E-14  0.12509000000E+03  0.12509000000E+03 0.  0.
        -13    1    3    3    0    0  0.29685920702E+02  0.16495806115E+02 -0.79580924896E+01  0.34881340390E+02  0.10566000000E+00 0. -1.
         23    2    1    0    0    0 -0.25898645319E+02  0.68537155976E+01  0.13314624893E+02  0.95173575032E+02  0.90349415612E+02 0.  0.
         13    1    3    3    0    0 -0.55584566020E+02 -0.96420905176E+01  0.21272717383E+02  0.60292234642E+02  0.10566000000E+00 0.  1.
         22    1    1    0    0    0  0.25898645319E+02 -0.68537155976E+01 -0.13314624893E+02  0.29916424968E+02  0.00000000000E+00 0.  1.
</event>
<event>
 5    1  0.1264731E-009  0.9118800E+02  0.7815553E-02  0.1125453E+00
         25   -1    0    0    0    0  0.00000000000E+00  0.00000000000E+00  0.99999998245E-14  0.12509000000E+03  0.12509000000E+03 0.  0.
        -13    1    3    3    0    0 -0.25009723474E+00 -0.41699463618E+02  0.22760314520E+02  0.47507377277E+02  0.10566000000E+00 0.  1.
         23    2    1    0    0    0  0.28124590994E+02 -0.63629198947E+01  0.81004618738E+01  0.95138424904E+02  0.90300736666E+02 0.  0.
         13    1    3    3    0    0  0.28374688229E+02  0.35336543723E+02 -0.14659852647E+02  0.47631047627E+02  0.10566000000E+00 0. -1.
         22    1    1    0    0    0 -0.28124590994E+02  0.63629198947E+01 -0.81004618738E+01  0.29951575096E+02  0.00000000000E+00 0.  1.
</event>
<event>
 5    1  0.1264731E-009  0.9118800E+02  0.7815553E-02  0.1125453E+00
         25   -1    0    0    0    0  0.00000000000E+00  0.00000000000E+00  0.99999998245E-14  0.12509000000E+03  0.12509000000E+03 0.  0.
        -13    1    3    3    0    0 -0.19041935519E+02  0.48320466653E+02 -0.99266688604E-01  0.51937306667E+02  0.10566000000E+00 0. -1.
         23    2    1    0    0    0 -0.13241193851E+02  0.11394958262E+02 -0.23328362875E+02  0.95945758668E+02  0.91412262873E+02 0.  0.
         13    1    3    3    0    0  0.58007416680E+01 -0.36925508392E+02 -0.23229096186E+02  0.44008452001E+02  0.10566000000E+00 0.  1.
         22    1    1    0    0    0  0.13241193851E+02 -0.11394958262E+02  0.23328362875E+02  0.29144241332E+02  0.00000000000E+00 0. -1.
</event>
<event>
 5    1  0.1264731E-009  0.9118800E+02  0.7815553E-02  0.1125453E+00
         25   -1    0    0    0    0  0.00000000000E+00  0.00000000000E+00  0.99999998245E-14  0.12509000000E+03  0.12509000000E+03 0.  0.
        -13    1    3    3    0    0 -0.18014294846E+02 -0.40096951587E+02  0.16446737904E+00  0.43958145536E+02  0.10566000000E+00 0.  1.
         23    2    1    0    0    0 -0.31755906587E+02 -0.26587625255E+02 -0.25801805260E+02  0.76293764750E+02  0.58648665503E+02 0.  0.
         13    1    3    3    0    0 -0.13741611741E+02  0.13509326332E+02 -0.25966272639E+02  0.32335619215E+02  0.10566000000E+00 0. -1.
         22    1    1    0    0    0  0.31755906587E+02  0.26587625255E+02  0.25801805260E+02  0.48796235250E+02  0.00000000000E+00 0. -1.
</event>
<event>
 5    1  0.1264731E-009  0.9118800E+02  0.7815553E-02  0.1125453E+00
         25   -1    0    0    0    0  0.00000000000E+00  0.00000000000E+00  0.99999998245E-14  0.12509000000E+03  0.12509000000E+03 0.  0.
        -13    1    3    3    0    0 -0.36605224273E+02  0.77481197477E+01 -0.21034621309E+02  0.42923679495E+02  0.10566000000E+00 0.  1.
         23    2    1    0    0    0 -0.60726397981E+01 -0.22873393356E+02  0.13122654270E+02  0.98029454314E+02  0.94220490236E+02 0.  0.
         13    1    3    3    0    0  0.30532584475E+02 -0.30621513103E+02  0.34157275579E+02  0.55105774820E+02  0.10566000000E+00 0. -1.
         22    1    1    0    0    0  0.60726397981E+01  0.22873393356E+02 -0.13122654270E+02  0.27060545686E+02  0.00000000000E+00 0. -1.
</event>
<event>
 5    1  0.1264731E-009  0.9118800E+02  0.7815553E-02  0.1125453E+00
         25   -1    0    0    0    0  0.00000000000E+00  0.00000000000E+00  0.99999998245E-14  0.12509000000E+03  0.12509000000E+03 0.  0.
        -13    1    3    3    0    0  0.27215730711E+02 -0.34120684359E+02 -0.11082504098E+02  0.45030546970E+02  0.10566000000E+00 0. -1.
         23    2    1    0    0    0 -0.13394952160E+02 -0.80616412831E+01 -0.25313456197E+02  0.95337926657E+02  0.90576676860E+02 0.  0.
         13    1    3    3    0    0 -0.40610682871E+02  0.26059043076E+02 -0.14230952100E+02  0.50307379687E+02  0.10566000000E+00 0.  1.
         22    1    1    0    0    0  0.13394952160E+02  0.80616412831E+01  0.25313456197E+02  0.29752073343E+02  0.00000000000E+00 0.  1.
</event>
<event>
 5    1  0.1264731E-009  0.9118800E+02  0.7815553E-02  0.1125453E+00
         25   -1    0    0    0    0  0.00000000000E+00  0.00000000000E+00  0.99999998245E-14  0.12509000000E+03  0.12509000000E+03 0.  0.
        -13    1    3    3    0    0 -0.53343723062E+02  0.15244793061E+02 -0.16738092329E+02  0.57949386575E+02  0.10566000000E+00 0. -1.
         23    2    1    0    0    0 -0.25323422503E+02  0.35289680982E+01  0.92281049163E+01  0.97907519182E+02  0.94058466120E+02 0.  0.
         13    1    3    3    0    0  0.28020300559E+02 -0.11715824963E+02  0.25966197246E+02  0.39958132607E+02  0.10566000000E+00 0.  1.
         22    1    1    0    0    0  0.25323422503E+02 -0.35289680982E+01 -0.92281049163E+01  0.27182480818E+02  0.00000000000E+00 0. -1.
</event>
<event>
 5    1  0.1264731E-009  0.9118800E+02  0.7815553E-02  0.1125453E+00
         25   -1    0    0    0    0  0.00000000000E+00  0.00000000000E+00  0.99999998245E-14  0.12509000000E+03  0.12509000000E+03 0.  0.
        -13    1    3    3    0    0 -0.78170135582E+01  0.21370330474E+02  0.24299344516E+02  0.33290629815E+02  0.10566000000E+00 0.  1.
         23    2    1    0    0    0 -0.63483912914E+00 -0.23493390897E+02 -0.18092232630E+02  0.95430746501E+02  0.90704774183E+02 0.  0.
         13    1    3    3    0    0  0.71821744290E+01 -0.44863721371E+02 -0.42391577146E+02  0.62140116686E+02  0.10566000000E+00 0. -1.
         22    1    1    0    0    0  0.63483912914E+00  0.23493390897E+02  0.18092232630E+02  0.29659253499E+02  0.00000000000E+00 0. -1.
</event>
<event>
 5    1  0.1264731E-009  0.9118800E+02  0.7815553E-02  0.1125453E+00
         25   -1    0    0    0    0  0.00000000000E+00  0.00000000000E+00  0.99999998245E-14  0.12509000000E+03  0.12509000000E+03 0.  0.
        -13    1    3    3    0    0 -0.32914266565E+02 -0.82325620335E+01 -0.19684683265E+02  0.39225271706E+02  0.10566000000E+00 0.  1.
         23    2    1    0    0    0  0.73638573460E+01 -0.10132247138E+02  0.23593878164E+02  0.98377457742E+02  0.94681382952E+02 0.  0.
         13    1    3    3    0    0  0.40278123911E+02 -0.18996851048E+01  0.43278561429E+02  0.59152186035E+02  0.10566000000E+00 0. -1.
         22    1    1    0    0    0 -0.73638573460E+01  0.10132247138E+02 -0.23593878164E+02  0.26712542258E+02  0.00000000000E+00 0. -1.
</event>
<event>
 5    1  0.1264731E-009  0.9118800E+02  0.7815553E-02  0.1125453E+00
         25   -1    0    0    0    0  0.00000000000E+00  0.00000000000E+00  0.99999998245E-14  0.12509000000E+03  0.12509000000E+03 0.  0.
        -13    1    3    3    0    0 -0.13339147038E+02 -0.34751211621E+02 -0.14258524446E+02  0.39860961306E+02  0.10566000000E+00 0.  1.
         23    2    1    0    0    0  0.24633218253E+02  0.62628974528E+01 -0.14645259424E+02  0.95755669436E+02  0.91151770578E+02 0.  0.
         13    1    3    3    0    0  0.37972365291E+02  0.41014109074E+02 -0.38673497886E+00  0.55894708130E+02  0.10566000000E+00 0. -1.
         22    1    1    0    0    0 -0.24633218253E+02 -0.62628974528E+01  0.14645259424E+02  0.29334330564E+02  0.00000000000E+00 0. -1.
</event>
<event>
 5    1  0.1264731E-009  0.9118800E+02  0.7815553E-02  0.1125453E+00
         25   -1    0    0    0    0  0.00000000000E+00  0.00000000000E+00  0.99999998245E-14  0.12509000000E+03  0.12509000000E+03 0.  0.
        -13    1    3    3    0    0  0.21585486071E+02  0.23532200875E+02 -0.49833688350E+02  0.59187036973E+02  0.10566000000E+00 0. -1.
         23    2    1    0    0    0 -0.38916909604E+01  0.12267881405E+02 -0.26900768956E+02  0.95268907747E+02  0.90481308790E+02 0.  0.
         13    1    3    3    0    0 -0.25477177032E+02 -0.11264319470E+02  0.22932919394E+02  0.36081870775E+02  0.10566000000E+00 0.  1.
         22    1    1    0    0    0  0.38916909604E+01 -0.12267881405E+02  0.26900768956E+02  0.29821092253E+02  0.00000000000E+00 0. -1.
</event>
<event>
 5    1  0.1264731E-009  0.9118800E+02  0.7815553E-02  0.1125453E+00
         25   -1    0    0    0    0  0.00000000000E+00  0.00000000000E+00  0.99999998245E-14  0.12509000000E+03  0.12509000000E+03 0.  0.
        -13    1    3    3    0    0  0.17785617356E+02  0.47899730185E+02  0.30115755790E+02  0.59310051824E+02  0.10566000000E+00 0. -1.
         23    2    1    0    0    0  0.19734935268E+02  0.14338191222E+02  0.85959321873E+01  0.99226097593E+02  0.95796017641E+02 0.  0.
         13    1    3    3    0    0  0.19493179119E+01 -0.33561538963E+02 -0.21519823603E+02  0.39916045769E+02  0.10566000000E+00 0.  1.
         22    1    1    0    0    0 -0.19734935268E+02 -0.14338191222E+02 -0.85959321873E+01  0.25863902407E+02  0.00000000000E+00 0. -1.
</event>
<event>
 5    1  0.1264731E-009  0.9118800E+02  0.7815553E-02  0.1125453E+00
         25   -1    0    0    0    0  0.00000000000E+00  0.00000000000E+00  0.99999998245E-14  0.12509000000E+03  0.12509000000E+03 0.  0.
        -13    1    3    3    0    0 -0.34198122434E+02 -0.48390082093E+02  0.17682713945E+01  0.59281106356E+02  0.10566000000E+00 0.  1.
         23    2    1    0    0    0 -0.73551335962E+01 -0.30448098550E+02 -0.75164937210E+01  0.92876922323E+02  0.87111654369E+02 0.  0.
         13    1    3    3    0    0  0.26842988838E+02  0.17941983543E+02 -0.92847651154E+01  0.33595815967E+02  0.10566000000E+00 0. -1.
         22    1    1    0    0    0  0.73551335962E+01  0.30448098550E+02  0.75164937210E+01  0.32213077677E+02  0.00000000000E+00 0.  1.
</event>
<event>
 5    1  0.1264731E-009  0.9118800E+02  0.7815553E-02  0.1125453E+00
         25   -1    0    0    0    0  0.00000000000E+00  0.00000000000E+00  0.99999998245E-14  0.12509000000E+03  0.12509000000E+03 0.  0.
        -13    1    3    3    0    0  0.29975620774E+02  0.48188809661E+02  0.28004412974E+01  0.56820355972E+02  0.10566000000E+00 0. -1.
         23    2    1    0    0    0  0.44276981516E+00  0.32399657321E+02  0.10205684286E+02  0.91118102329E+02  0.84548321927E+02 0.  0.
         13    1    3    3    0    0 -0.29532850959E+02 -0.15789152340E+02  0.74052429886E+01  0.34297746357E+02  0.10566000000E+00 0.  1.
         22    1    1    0    0    0 -0.44276981516E+00 -0.32399657321E+02 -0.10205684286E+02  0.33971897671E+02  0.00000000000E+00 0. -1.
</event>
<event>
 5    1  0.1264731E-009  0.9118800E+02  0.7815553E-02  0.1125453E+00
         25   -1    0    0    0    0  0.00000000000E+00  0.00000000000E+00  0.99999998245E-14  0.12509000000E+03  0.12509000000E+03 0.  0.
        -13    1    3    3    0    0 -0.19935414284E+02  0.46748935043E+02 -0.31609851479E+02  0.59850459855E+02  0.10566000000E+00 0.  1.
         23    2    1    0    0    0 -0.48648300350E+01  0.24490510028E+02 -0.28945904683E+02  0.86862823141E+02  0.77998929438E+02 0.  0.
         13    1    3    3    0    0  0.15070584249E+02 -0.22258425015E+02  0.26639467965E+01  0.27012363286E+02  0.10566000000E+00 0. -1.
         22    1    1    0    0    0  0.48648300350E+01 -0.24490510028E+02  0.28945904683E+02  0.38227176859E+02  0.00000000000E+00 0.  1.
</event>
<event>
 5    1  0.1264731E-009  0.9118800E+02  0.7815553E-02  0.1125453E+00
         25   -1    0    0    0    0  0.00000000000E+00  0.00000000000E+00  0.99999998245E-14  0.12509000000E+03  0.12509000000E+03 0.  0.
        -13    1    3    3    0    0 -0.38348941972E+02  0.23946729899E+01  0.12692584816E+02  0.40465895301E+02  0.10566000000E+00 0.  1.
         23    2    1    0    0    0 -0.23248212253E+00 -0.12149578776E+02 -0.25809781042E+02  0.96562625256E+02  0.92252531057E+02 0.  0.
         13    1    3    3    0    0  0.38116459850E+02 -0.14544251765E+02 -0.38502365859E+02  0.56096729955E+02  0.10566000000E+00 0. -1.
         22    1    1    0    0    0  0.23248212253E+00  0.12149578776E+02  0.25809781042E+02  0.28527374744E+02  0.00000000000E+00 0. -1.
</event>
<event>
 5    1  0.1264731E-009  0.9118800E+02  0.7815553E-02  0.1125453E+00
         25   -1    0    0    0    0  0.00000000000E+00  0.00000000000E+00  0.99999998245E-14  0.12509000000E+03  0.12509000000E+03 0.  0.
        -13    1    3    3    0    0  0.75065393454E+01 -0.28460902145E+02  0.27529511267E+01  0.29562831187E+02  0.10566000000E+00 0.  1.
         23    2    1    0    0    0 -0.19935915962E+02  0.26636245688E+02 -0.43980095496E+01  0.91530011656E+02  0.85155564799E+02 0.  0.
         13    1    3    3    0    0 -0.27442455308E+02  0.55097147833E+02 -0.71509606763E+01  0.61967180469E+02  0.10566000000E+00 0. -1.
         22    1    1    0    0    0  0.19935915962E+02 -0.26636245688E+02  0.43980095496E+01  0.33559988344E+02  0.00000000000E+00 0. -1.
</event>
<event>
 5    1  0.1264731E-009  0.9118800E+02  0.7815553E-02  0.1125453E+00
         25   -1    0    0    0    0  0.00000000000E+00  0.00000000000E+00  0.99999998245E-14  0.12509000000E+03  0.12509000000E+03 0.  0.
        -13    1    3    3    0    0  0.19734957759E+02 -0.21443875273E+02  0.28798378476E+02  0.40971528057E+02  0.10566000000E+00 0.  1.
         23    2    1    0    0    0  0.20473158602E+02 -0.21052643860E+01 -0.21778880650E+02  0.95124987007E+02  0.90282119766E+02 0.  0.
         13    1    3    3    0    0  0.73820084303E+00  0.19338610887E+02 -0.50577259126E+02  0.54153458950E+02  0.10566000000E+00 0. -1.
         22    1    1    0    0    0 -0.20473158602E+02  0.21052643860E+01  0.21778880650E+02  0.29965012993E+02  0.00000000000E+00 0. -1.
</event>
<event>
 5    1  0.1264731E-009  0.9118800E+02  0.7815553E-02  0.1125453E+00
         25   -1    0    0    0    0  0.00000000000E+00  0.00000000000E+00  0.99999998245E-14  0.12509000000E+03  0.12509000000E+03 0.  0.
        -13    1    3    3    0    0 -0.18650290001E+02 -0.34241094453E+02 -0.95774584847E+01  0.40150027915E+02  0.10566000000E+00 0. -1.
         23    2    1    0    0    0  0.20764145937E+02 -0.12642577924E+02  0.19708937211E+02  0.93794205729E+02  0.88419038048E+02 0.  0.
         13    1    3    3    0    0  0.39414435938E+02  0.21598516529E+02  0.29286395695E+02  0.53644177815E+02  0.10566000000E+00 0.  1.
         22    1    1    0    0    0 -0.20764145937E+02  0.12642577924E+02 -0.19708937211E+02  0.31295794271E+02  0.00000000000E+00 0.  1.
</event>
<event>
 5    1  0.1264731E-009  0.9118800E+02  0.7815553E-02  0.1125453E+00
         25   -1    0    0    0    0  0.00000000000E+00  0.00000000000E+00  0.99999998245E-14  0.12509000000E+03  0.12509000000E+03 0.  0.
        -13    1    3    3    0    0  0.45159003919E+02 -0.36578728134E+02 -0.65519652119E+01  0.58483146282E+02  0.10566000000E+00 0. -1.
         23    2    1    0    0    0  0.27182263071E+02 -0.73693834422E+01  0.81075092530E+01  0.95782749288E+02  0.91188925407E+02 0.  0.
         13    1    3    3    0    0 -0.17976740847E+02  0.29209344692E+02  0.14659474465E+02  0.37299603006E+02  0.10566000000E+00 0.  1.
         22    1    1    0    0    0 -0.27182263071E+02  0.73693834422E+01 -0.81075092530E+01  0.29307250712E+02  0.00000000000E+00 0. -1.
</event>
<event>
 5    1  0.1264731E-009  0.9118800E+02  0.7815553E-02  0.1125453E+00
         25   -1    0    0    0    0  0.00000000000E+00  0.00000000000E+00  0.99999998245E-14  0.12509000000E+03  0.12509000000E+03 0.  0.
        -13    1    3    3    0    0  0.38762605945E+01 -0.25044124926E+02  0.35180400412E+02  0.43357875025E+02  0.10566000000E+00 0. -1.
         23    2    1    0    0    0 -0.28556686209E+02 -0.75602038386E+01 -0.17138854034E+01  0.95499825744E+02  0.90799990665E+02 0.  0.
         13    1    3    3    0    0 -0.32432946803E+02  0.17483921088E+02 -0.36894285815E+02  0.52141950719E+02  0.10566000000E+00 0.  1.
         22    1    1    0    0    0  0.28556686209E+02  0.75602038386E+01  0.17138854034E+01  0.29590174256E+02  0.00000000000E+00 0.  1.
</event>
<event>
 5    1  0.1264731E-009  0.9118800E+02  0.7815553E-02  0.1125453E+00
         25   -1    0    0    0    0  0.00000000000E+00  0.00000000000E+00  0.99999998245E-14  0.12509000000E+03  0.12509000000E+03 0.  0.
        -13    1    3    3    0    0 -0.19709128011E+02  0.24137549161E+02  0.50571281852E+02  0.59401487513E+02  0.10566000000E+00 0. -1.
         23    2    1    0    0    0 -0.79498139440E+01 -0.97039398191E+00  0.30305989891E+02  0.93743640889E+02  0.88347472955E+02 0.  0.
         13    1    3    3    0    0  0.11759314067E+02 -0.25107943143E+02 -0.20265291961E+02  0.34342153376E+02  0.10566000000E+00 0.  1.
         22    1    1    0    0    0  0.79498139440E+01  0.97039398191E+00 -0.30305989891E+02  0.31346359111E+02  0.00000000000E+00 0. -1.
</event>
<event>
 5    1  0.1264731E-009  0.9118800E+02  0.7815553E-02  0.1125453E+00
         25   -1    0    0    0    0  0.00000000000E+00  0.00000000000E+00  0.99999998245E-14  0.12509000000E+03  0.12509000000E+03 0.  0.
        -13    1    3    3    0    0 -0.38933362460E+02  0.14044243813E+02 -0.13660611111E+02  0.43585214886E+02  0.10566000000E+00 0. -1.
         23    2    1    0    0    0  0.68263300222E+01  0.26693845292E+02  0.88814600651E+01  0.96141070988E+02  0.91679141793E+02 0.  0.
         13    1    3    3    0    0  0.45759692482E+02  0.12649601479E+02  0.22542071176E+02  0.52555856102E+02  0.10566000000E+00 0.  1.
         22    1    1    0    0    0 -0.68263300222E+01 -0.26693845292E+02 -0.88814600651E+01  0.28948929012E+02  0.00000000000E+00 0.  1.
</event>
<event>
 5    1  0.1264731E-009  0.9118800E+02  0.7815553E-02  0.1125453E+00
         25   -1    0    0    0    0  0.00000000000E+00  0.00000000000E+00  0.99999998245E-14  0.12509000000E+03  0.12509000000E+03 0.  0.
        -13    1    3    3    0    0 -0.41199353465E+02 -0.15945896970E+02 -0.95966852645E+01  0.45208029024E+02  0.10566000000E+00 0.  1.
         23    2    1    0    0    0  0.23000402107E+01 -0.23589966895E+02  0.16223273535E+02  0.96367685900E+02  0.91987822881E+02 0.  0.
         13    1    3    3    0    0  0.43499393676E+02 -0.76440699255E+01  0.25819958800E+02  0.51159656876E+02  0.10566000000E+00 0. -1.
         22    1    1    0    0    0 -0.23000402107E+01  0.23589966895E+02 -0.16223273535E+02  0.28722314100E+02  0.00000000000E+00 0. -1.
</event>
<event>
 5    1  0.1264731E-009  0.9118800E+02  0.7815553E-02  0.1125453E+00
         25   -1    0    0    0    0  0.00000000000E+00  0.00000000000E+00  0.99999998245E-14  0.12509000000E+03  0.12509000000E+03 0.  0.
        -13    1    3    3    0    0 -0.22680911829E+02 -0.27641554839E+02  0.20757536207E+02  0.41344477125E+02  0.10566000000E+00 0.  1.
         23    2    1    0    0    0 -0.19561846635E+02  0.80391347027E+01 -0.20262415650E+02  0.95800769582E+02  0.91213641710E+02 0.  0.
         13    1    3    3    0    0  0.31190651947E+01  0.35680689541E+02 -0.41019951856E+02  0.54456292457E+02  0.10566000000E+00 0. -1.
         22    1    1    0    0    0  0.19561846635E+02 -0.80391347027E+01  0.20262415650E+02  0.29289230418E+02  0.00000000000E+00 0. -1.
</event>
<event>
 5    1  0.1264731E-009  0.9118800E+02  0.7815553E-02  0.1125453E+00
         25   -1    0    0    0    0  0.00000000000E+00  0.00000000000E+00  0.99999998245E-14  0.12509000000E+03  0.12509000000E+03 0.  0.
        -13    1    3    3    0    0  0.33005334250E+02  0.13446188894E+00 -0.10200696398E+02  0.34546136397E+02  0.10566000000E+00 0.  1.
         23    2    1    0    0    0 -0.22935966550E+02  0.10904855235E+02  0.13593672712E+02  0.96284403893E+02  0.91874501718E+02 0.  0.
         13    1    3    3    0    0 -0.55941300800E+02  0.10770393346E+02  0.23794369109E+02  0.61738267496E+02  0.10566000000E+00 0. -1.
         22    1    1    0    0    0  0.22935966550E+02 -0.10904855235E+02 -0.13593672712E+02  0.28805596107E+02  0.00000000000E+00 0. -1.
</event>
<event>
 5    1  0.1264731E-009  0.9118800E+02  0.7815553E-02  0.1125453E+00
         25   -1    0    0    0    0  0.00000000000E+00  0.00000000000E+00  0.99999998245E-14  0.12509000000E+03  0.12509000000E+03 0.  0.
        -13    1    3    3    0    0  0.43665729324E+02 -0.15895337074E+02 -0.32225369865E+02  0.56549476435E+02  0.10566000000E+00 0. -1.
         23    2    1    0    0    0  0.64949051565E+01 -0.15534948647E+02 -0.25812222368E+02  0.94271349056E+02  0.89091514786E+02 0.  0.
         13    1    3    3    0    0 -0.37170824168E+02  0.36038842745E+00  0.64131474975E+01  0.37721872620E+02  0.10566000000E+00 0.  1.
         22    1    1    0    0    0 -0.64949051565E+01  0.15534948647E+02  0.25812222368E+02  0.30818650944E+02  0.00000000000E+00 0.  1.
</event>
<event>
 5    1  0.1264731E-009  0.9118800E+02  0.7815553E-02  0.1125453E+00
         25   -1    0    0    0    0  0.00000000000E+00  0.00000000000E+00  0.99999998245E-14  0.12509000000E+03  0.12509000000E+03 0.  0.
        -13    1    3    3    0    0 -0.78722535367E+01  0.13431615583E+02 -0.53449934249E+02  0.55671243099E+02  0.10566000000E+00 0. -1.
         23    2    1    0    0    0 -0.17400759364E+02  0.13662051337E+02 -0.88765768494E+01  0.10125238918E+03  0.98406374917E+02 0.  0.
         13    1    3    3    0    0 -0.95285058274E+01  0.23043575336E+00  0.44573357399E+02  0.45581146078E+02  0.10566000000E+00 0.  1.
         22    1    1    0    0    0  0.17400759364E+02 -0.13662051337E+02  0.88765768494E+01  0.23837610823E+02  0.00000000000E+00 0. -1.
</event>
<event>
 5    1  0.1264731E-009  0.9118800E+02  0.7815553E-02  0.1125453E+00
         25   -1    0    0    0    0  0.00000000000E+00  0.00000000000E+00  0.99999998245E-14  0.12509000000E+03  0.12509000000E+03 0.  0.
        -13    1    3    3    0    0  0.24991227034E+02 -0.40090078543E+02 -0.24836574554E+02  0.53372674898E+02  0.10566000000E+00 0. -1.
         23    2    1    0    0    0 -0.20467155859E+01 -0.74195971264E+01 -0.28147147831E+02  0.95909503136E+02  0.91362636754E+02 0.  0.
         13    1    3    3    0    0 -0.27037942620E+02  0.32670481416E+02 -0.33105732770E+01  0.42536828238E+02  0.10566000000E+00 0.  1.
         22    1    1    0    0    0  0.20467155859E+01  0.74195971264E+01  0.28147147831E+02  0.29180496864E+02  0.00000000000E+00 0. -1.
</event>
<event>
 5    1  0.1264731E-009  0.9118800E+02  0.7815553E-02  0.1125453E+00
         25   -1    0    0    0    0  0.00000000000E+00  0.00000000000E+00  0.99999998245E-14  0.12509000000E+03  0.12509000000E+03 0.  0.
        -13    1    3    3    0    0 -0.26946189357E+02 -0.84086994213E+00 -0.23717392197E+02  0.35907242163E+02  0.10566000000E+00 0.  1.
         23    2    1    0    0    0  0.18735996900E+02  0.23859586566E+02  0.35211831726E+01  0.94549597549E+02  0.89481340037E+02 0.  0.
         13    1    3    3    0    0  0.45682186257E+02  0.24700456508E+02  0.27238575369E+02  0.58642355385E+02  0.10566000000E+00 0. -1.
         22    1    1    0    0    0 -0.18735996900E+02 -0.23859586566E+02 -0.35211831726E+01  0.30540402451E+02  0.00000000000E+00 0. -1.
</event>
<event>
 5    1  0.1264731E-009  0.9118800E+02  0.7815553E-02  0.1125453E+00
         25   -1    0    0    0    0  0.00000000000E+00  0.00000000000E+00  0.99999998245E-14  0.12509000000E+03  0.12509000000E+03 0.  0.
        -13    1    3    3    0    0 -0.58915695829E+02 -0.29997803668E+01 -0.56330406456E+00  0.58994799540E+02  0.10566000000E+00 0.  1.
         23    2    1    0    0    0 -0.28749206657E+02 -0.70674034470E+00 -0.15154644647E+02  0.92583391138E+02  0.86689126740E+02 0.  0.
         13    1    3    3    0    0  0.30166489172E+02  0.22930400221E+01 -0.14591340583E+02  0.33588591598E+02  0.10566000000E+00 0. -1.
         22    1    1    0    0    0  0.28749206657E+02  0.70674034470E+00  0.15154644647E+02  0.32506608862E+02  0.00000000000E+00 0.  1.
</event>
<event>
 5    1  0.1264731E-009  0.9118800E+02  0.7815553E-02  0.1125453E+00
         25   -1    0    0    0    0  0.00000000000E+00  0.00000000000E+00  0.99999998245E-14  0.12509000000E+03  0.12509000000E+03 0.  0.
        -13    1    3    3    0    0  0.44695384238E+02  0.17393455195E+02 -0.19463323071E+02  0.51759460631E+02  0.10566000000E+00 0.  1.
         23    2    1    0    0    0  0.47174446175E+01  0.92923859965E+00 -0.28716180096E+02  0.95974080516E+02  0.91451010729E+02 0.  0.
         13    1    3    3    0    0 -0.39977939620E+02 -0.16464216595E+02 -0.92528570255E+01  0.44214619885E+02  0.10566000000E+00 0. -1.
         22    1    1    0    0    0 -0.47174446175E+01 -0.92923859965E+00  0.28716180096E+02  0.29115919484E+02  0.00000000000E+00 0.  1.
</event>
<event>
 5    1  0.1264731E-009  0.9118800E+02  0.7815553E-02  0.1125453E+00
         25   -1    0    0    0    0  0.00000000000E+00  0.00000000000E+00  0.99999998245E-14  0.12509000000E+03  0.12509000000E+03 0.  0.
        -13    1    3    3    0    0  0.22423753532E+02 -0.55216552467E+01 -0.47877393145E+02  0.53156084671E+02  0.10566000000E+00 0.  1.
         23    2    1    0    0    0 -0.12909669824E+02 -0.10083959377E+02 -0.23955264073E+02  0.96069309304E+02  0.91581175477E+02 0.  0.
         13    1    3    3    0    0 -0.35333423356E+02 -0.45623041303E+01  0.23922129073E+02  0.42913224633E+02  0.10566000000E+00 0. -1.
         22    1    1    0    0    0  0.12909669824E+02  0.10083959377E+02  0.23955264073E+02  0.29020690696E+02  0.00000000000E+00 0.  1.
</event>
<event>
 5    1  0.1264731E-009  0.9118800E+02  0.7815553E-02  0.1125453E+00
         25   -1    0    0    0    0  0.00000000000E+00  0.00000000000E+00  0.99999998245E-14  0.12509000000E+03  0.12509000000E+03 0.  0.
        -13    1    3    3    0    0 -0.28707525861E+01 -0.30954924005E+02 -0.53886747060E+02  0.62211262753E+02  0.10566000000E+00 0.  1.
         23    2    1    0    0    0  0.24892821865E-01 -0.17890455002E+02 -0.22409142134E+02  0.96415295974E+02  0.92052542858E+02 0.  0.
         13    1    3    3    0    0  0.28956454080E+01  0.13064469003E+02  0.31477604926E+02  0.34204033221E+02  0.10566000000E+00 0. -1.
         22    1    1    0    0    0 -0.24892821865E-01  0.17890455002E+02  0.22409142134E+02  0.28674704026E+02  0.00000000000E+00 0.  1.
</event>
<event>
 5    1  0.1264731E-009  0.9118800E+02  0.7815553E-02  0.1125453E+00
         25   -1    0    0    0    0  0.00000000000E+00  0.00000000000E+00  0.99999998245E-14  0.12509000000E+03  0.12509000000E+03 0.  0.
        -13    1    3    3    0    0  0.23763305159E+02  0.26742816284E+02 -0.17784110142E+02  0.39951954050E+02  0.10566000000E+00 0.  1.
         23    2    1    0    0    0  0.93643878070E+01 -0.26275277002E+02 -0.19457606402E+01  0.97128098687E+02  0.93016125643E+02 0.  0.
         13    1    3    3    0    0 -0.14398917352E+02 -0.53018093286E+02  0.15838349502E+02  0.57176144637E+02  0.10566000000E+00 0. -1.
         22    1    1    0    0    0 -0.93643878070E+01  0.26275277002E+02  0.19457606402E+01  0.27961901313E+02  0.00000000000E+00 0. -1.
</event>
<event>
 5    1  0.1264731E-009  0.9118800E+02  0.7815553E-02  0.1125453E+00
         25   -1    0    0    0    0  0.00000000000E+00  0.00000000000E+00  0.99999998245E-14  0.12509000000E+03  0.12509000000E+03 0.  0.
        -13    1    3    3    0    0  0.20253744559E+01 -0.44280418670E+02 -0.41505910190E+02  0.60725689490E+02  0.10566000000E+00 0.  1.
         23    2    1    0    0    0 -0.96089710635E+01 -0.18388907770E+02 -0.19105614550E+02  0.96885235133E+02  0.92688942304E+02 0.  0.
         13    1    3    3    0    0 -0.11634345519E+02  0.25891510900E+02  0.22400295639E+02  0.36159545643E+02  0.10566000000E+00 0. -1.
         22    1    1    0    0    0  0.96089710635E+01  0.18388907770E+02  0.19105614550E+02  0.28204764867E+02  0.00000000000E+00 0.  1.
</event>
<event>
 5    1  0.1264731E-009  0.9118800E+02  0.7815553E-02  0.1125453E+00
         25   -1    0    0    0    0  0.00000000000E+00  0.00000000000E+00  0.99999998245E-14  0.12509000000E+03  0.12509000000E+03 0.  0.
        -13    1    3    3    0    0 -0.39811039593E+02  0.14287086456E+02 -0.23546446167E+02  0.48409565212E+02  0.10566000000E+00 0. -1.
         23    2    1    0    0    0 -0.24014266652E+02 -0.93604936093E+01  0.14194572985E+02  0.95665694645E+02  0.91028212034E+02 0.  0.
         13    1    3    3    0    0  0.15796772942E+02 -0.23647580065E+02  0.37741019152E+02  0.47256129433E+02  0.10566000000E+00 0.  1.
         22    1    1    0    0    0  0.24014266652E+02  0.93604936093E+01 -0.14194572985E+02  0.29424305355E+02  0.00000000000E+00 0.  1.
</event>
<event>
 5    1  0.1264731E-009  0.9118800E+02  0.7815553E-02  0.1125453E+00
         25   -1    0    0    0    0  0.00000000000E+00  0.00000000000E+00  0.99999998245E-14  0.12509000000E+03  0.12509000000E+03 0.  0.
        -13    1    3    3    0    0 -0.20331186345E+01 -0.36206671715E+02  0.26101452100E+01  0.36357676908E+02  0.10566000000E+00 0.  1.
         23    2    1    0    0    0  0.24914721324E+01  0.17435670429E+02 -0.23121545657E+02  0.96024282905E+02  0.91519653611E+02 0.  0.
         13    1    3    3    0    0  0.45245907668E+01  0.53642342144E+02 -0.25731690867E+02  0.59666605997E+02  0.10566000000E+00 0. -1.
         22    1    1    0    0    0 -0.24914721324E+01 -0.17435670429E+02  0.23121545657E+02  0.29065717095E+02  0.00000000000E+00 0. -1.
</event>
<event>
 5    1  0.1264731E-009  0.9118800E+02  0.7815553E-02  0.1125453E+00
         25   -1    0    0    0    0  0.00000000000E+00  0.00000000000E+00  0.99999998245E-14  0.12509000000E+03  0.12509000000E+03 0.  0.
        -13    1    3    3    0    0  0.18327871373E+02 -0.17821693518E+02  0.55970855304E+02  0.61532685919E+02  0.10566000000E+00 0. -1.
         23    2    1    0    0    0  0.16347315538E+02 -0.87380446135E+01  0.24378081032E+02  0.94465190062E+02  0.89363265102E+02 0.  0.
         13    1    3    3    0    0 -0.19805558349E+01  0.90836489045E+01 -0.31592774272E+02  0.32932504142E+02  0.10566000000E+00 0.  1.
         22    1    1    0    0    0 -0.16347315538E+02  0.87380446135E+01 -0.24378081032E+02  0.30624809938E+02  0.00000000000E+00 0. -1.
</event>
<event>
 5    1  0.1264731E-009  0.9118800E+02  0.7815553E-02  0.1125453E+00
         25   -1    0    0    0    0  0.00000000000E+00  0.00000000000E+00  0.99999998245E-14  0.12509000000E+03  0.12509000000E+03 0.  0.
        -13    1    3    3    0    0 -0.30824293645E+02  0.25215655635E+02  0.21187262361E+02  0.45109617801E+02  0.10566000000E+00 0. -1.
         23    2    1    0    0    0  0.28749003051E+01  0.24071572799E+02 -0.16565525760E+02  0.95728080573E+02  0.91113901780E+02 0.  0.
         13    1    3    3    0    0  0.33699193950E+02 -0.11440828369E+01 -0.37752788121E+02  0.50618462771E+02  0.10566000000E+00 0.  1.
         22    1    1    0    0    0 -0.28749003051E+01 -0.24071572799E+02  0.16565525760E+02  0.29361919427E+02  0.00000000000E+00 0. -1.
</event>
<event>
 5    1  0.1264731E-009  0.9118800E+02  0.7815553E-02  0.1125453E+00
         25   -1    0    0    0    0  0.00000000000E+00  0.00000000000E+00  0.99999998245E-14  0.12509000000E+03  0.12509000000E+03 0.  0.
        -13    1    3    3    0    0  0.84285849998E+01 -0.57413188693E+02 -0.43506931136E+01  0.58191536975E+02  0.10566000000E+00 0.  1.
         23    2    1    0    0    0 -0.12603782024E+02 -0.25998186800E+02 -0.32770107006E+01  0.96012520100E+02  0.91503574677E+02 0.  0.
         13    1    3    3    0    0 -0.21032367024E+02  0.31415001893E+02  0.10736824130E+01  0.37820983125E+02  0.10566000000E+00 0. -1.
         22    1    1    0    0    0  0.12603782024E+02  0.25998186800E+02  0.32770107006E+01  0.29077479900E+02  0.00000000000E+00 0.  1.
</event>
<event>
 5    1  0.1264731E-009  0.9118800E+02  0.7815553E-02  0.1125453E+00
         25   -1    0    0    0    0  0.00000000000E+00  0.00000000000E+00  0.99999998245E-14  0.12509000000E+03  0.12509000000E+03 0.  0.
        -13    1    3    3    0    0  0.56816128796E+02 -0.81062707062E+01  0.11404952846E+02  0.58513829388E+02  0.10566000000E+00 0.  1.
         23    2    1    0    0    0  0.24008903767E+02 -0.14227501150E+01 -0.10837665167E+02  0.98709957083E+02  0.95119656029E+02 0.  0.
         13    1    3    3    0    0 -0.32807225029E+02  0.66835205912E+01 -0.22242618013E+02  0.40196127696E+02  0.10566000000E+00 0. -1.
         22    1    1    0    0    0 -0.24008903767E+02  0.14227501150E+01  0.10837665167E+02  0.26380042917E+02  0.00000000000E+00 0.  1.
</event>
<event>
 5    1  0.1264731E-009  0.9118800E+02  0.7815553E-02  0.1125453E+00
         25   -1    0    0    0    0  0.00000000000E+00  0.00000000000E+00  0.99999998245E-14  0.12509000000E+03  0.12509000000E+03 0.  0.
        -13    1    3    3    0    0  0.33635537292E+02  0.33280354868E+02  0.34821494034E+02  0.58749289356E+02  0.10566000000E+00 0. -1.
         23    2    1    0    0    0  0.11542245056E+02  0.27613554401E+02  0.31221866163E+02  0.81840297871E+02  0.69478756619E+02 0.  0.
         13    1    3    3    0    0 -0.22093292237E+02 -0.56668004670E+01 -0.35996278705E+01  0.23091008515E+02  0.10566000000E+00 0.  1.
         22    1    1    0    0    0 -0.11542245056E+02 -0.27613554401E+02 -0.31221866163E+02  0.43249702129E+02  0.00000000000E+00 0. -1.
</event>
<event>
 5    1  0.1264731E-009  0.9118800E+02  0.7815553E-02  0.1125453E+00
         25   -1    0    0    0    0  0.00000000000E+00  0.00000000000E+00  0.99999998245E-14  0.12509000000E+03  0.12509000000E+03 0.  0.
        -13    1    3    3    0    0 -0.28068599986E+02  0.10937861983E+02  0.16710230195E+02  0.34448890942E+02  0.10566000000E+00 0.  1.
         23    2    1    0    0    0  0.21632859188E+02  0.29525865085E+01 -0.18983089447E+02  0.96158079070E+02  0.91702345236E+02 0.  0.
         13    1    3    3    0    0  0.49701459174E+02 -0.79852754740E+01 -0.35693319642E+02  0.61709188129E+02  0.10566000000E+00 0. -1.
         22    1    1    0    0    0 -0.21632859188E+02 -0.29525865085E+01  0.18983089447E+02  0.28931920930E+02  0.00000000000E+00 0. -1.
</event>
<event>
 5    1  0.1264731E-009  0.9118800E+02  0.7815553E-02  0.1125453E+00
         25   -1    0    0    0    0  0.00000000000E+00  0.00000000000E+00  0.99999998245E-14  0.12509000000E+03  0.12509000000E+03 0.  0.
        -13    1    3    3    0    0  0.42996334446E+02 -0.54626359093E+01 -0.54005914848E+01  0.43677256316E+02  0.10566000000E+00 0. -1.
         23    2    1    0    0    0 -0.93617274512E+01  0.16531897580E+02  0.11441380796E+02  0.10291229108E+03  0.10049422313E+03 0.  0.
         13    1    3    3    0    0 -0.52358061897E+02  0.21994533489E+02  0.16841972281E+02  0.59235034763E+02  0.10566000000E+00 0.  1.
         22    1    1    0    0    0  0.93617274512E+01 -0.16531897580E+02 -0.11441380796E+02  0.22177708921E+02  0.00000000000E+00 0.  1.
</event>
<event>
 5    1  0.1264731E-009  0.9118800E+02  0.7815553E-02  0.1125453E+00
         25   -1    0    0    0    0  0.00000000000E+00  0.00000000000E+00  0.99999998245E-14  0.12509000000E+03  0.12509000000E+03 0.  0.
        -13    1    3    3    0    0  0.41637455233E+01  0.55866072740E+01 -0.51566071297E+02  0.52034775205E+02  0.10566000000E+00 0. -1.
         23    2    1    0    0    0  0.53876567010E+01 -0.22486618242E+02 -0.18156215000E+02  0.95690629465E+02  0.91062470753E+02 0.  0.
         13    1    3    3    0    0  0.12239111777E+01 -0.28073225516E+02  0.33409856296E+02  0.43655854261E+02  0.10566000000E+00 0.  1.
         22    1    1    0    0    0 -0.53876567010E+01  0.22486618242E+02  0.18156215000E+02  0.29399370535E+02  0.00000000000E+00 0. -1.
</event>
<event>
 5    1  0.1264731E-009  0.9118800E+02  0.7815553E-02  0.1125453E+00
         25   -1    0    0    0    0  0.00000000000E+00  0.00000000000E+00  0.99999998245E-14  0.12509000000E+03  0.12509000000E+03 0.  0.
        -13    1    3    3    0    0  0.15420408023E+01  0.22649364889E+02  0.14926526443E+02  0.27169541318E+02  0.10566000000E+00 0.  1.
         23    2    1    0    0    0 -0.78346298759E+01  0.53307833697E+01 -0.39196430518E+02  0.84764340155E+02  0.74557591967E+02 0.  0.
         13    1    3    3    0    0 -0.93766706782E+01 -0.17318581520E+02 -0.54122956961E+02  0.57594798837E+02  0.10566000000E+00 0. -1.
         22    1    1    0    0    0  0.78346298759E+01 -0.53307833697E+01  0.39196430518E+02  0.40325659845E+02  0.00000000000E+00 0. -1.
</event>
<event>
 5    1  0.1264731E-009  0.9118800E+02  0.7815553E-02  0.1125453E+00
         25   -1    0    0    0    0  0.00000000000E+00  0.00000000000E+00  0.99999998245E-14  0.12509000000E+03  0.12509000000E+03 0.  0.
        -13    1    3    3    0    0  0.23501700614E+02 -0.16679042813E+02  0.20842066340E+02  0.35565760139E+02  0.10566000000E+00 0.  1.
         23    2    1    0    0    0 -0.55041589475E+01 -0.76490897919E+01 -0.29365922157E+02  0.94249090083E+02  0.89060256327E+02 0.  0.
         13    1    3    3    0    0 -0.29005859561E+02  0.90299530211E+01 -0.50207988497E+02  0.58683329945E+02  0.10566000000E+00 0. -1.
         22    1    1    0    0    0  0.55041589475E+01  0.76490897919E+01  0.29365922157E+02  0.30840909917E+02  0.00000000000E+00 0. -1.
</event>
<event>
 5    1  0.1264731E-009  0.9118800E+02  0.7815553E-02  0.1125453E+00
         25   -1    0    0    0    0  0.00000000000E+00  0.00000000000E+00  0.99999998245E-14  0.12509000000E+03  0.12509000000E+03 0.  0.
        -13    1    3    3    0    0  0.14821658456E+02 -0.81231594124E+01 -0.42732736598E+02  0.45953946723E+02  0.10566000000E+00 0.  1.
         23    2    1    0    0    0 -0.88343630838E+01 -0.28388829507E+02 -0.49051324747E+01  0.94956431733E+02  0.90048275892E+02 0.  0.
         13    1    3    3    0    0 -0.23656021540E+02 -0.20265670095E+02  0.37827604123E+02  0.49002485011E+02  0.10566000000E+00 0. -1.
         22    1    1    0    0    0  0.88343630838E+01  0.28388829507E+02  0.49051324747E+01  0.30133568267E+02  0.00000000000E+00 0. -1.
</event>
<event>
 5    1  0.1264731E-009  0.9118800E+02  0.7815553E-02  0.1125453E+00
         25   -1    0    0    0    0  0.00000000000E+00  0.00000000000E+00  0.99999998245E-14  0.12509000000E+03  0.12509000000E+03 0.  0.
        -13    1    3    3    0    0  0.53429809839E+01  0.31079985811E+02 -0.32162598057E+02  0.45043943450E+02  0.10566000000E+00 0.  1.
         23    2    1    0    0    0 -0.26757523380E+02  0.24295644941E+02 -0.32028039760E+01  0.88806375955E+02  0.81055974711E+02 0.  0.
         13    1    3    3    0    0 -0.32100504364E+02 -0.67843408696E+01  0.28959794081E+02  0.43762432504E+02  0.10566000000E+00 0. -1.
         22    1    1    0    0    0  0.26757523380E+02 -0.24295644941E+02  0.32028039760E+01  0.36283624045E+02  0.00000000000E+00 0. -1.
</event>
<event>
 5    1  0.1264731E-009  0.9118800E+02  0.7815553E-02  0.1125453E+00
         25   -1    0    0    0    0  0.00000000000E+00  0.00000000000E+00  0.99999998245E-14  0.12509000000E+03  0.12509000000E+03 0.  0.
        -13    1    3    3    0    0 -0.35383262907E+02 -0.28656115539E+02  0.36182870803E+01  0.45675501280E+02  0.10566000000E+00 0. -1.
         23    2    1    0    0    0 -0.18302418902E+01 -0.58231270376E+01  0.30257804261E+02  0.94222649732E+02  0.89023111662E+02 0.  0.
         13    1    3    3    0    0  0.33553021017E+02  0.22832988501E+02  0.26639517180E+02  0.48547148453E+02  0.10566000000E+00 0.  1.
         22    1    1    0    0    0  0.18302418902E+01  0.58231270376E+01 -0.30257804261E+02  0.30867350268E+02  0.00000000000E+00 0.  1.
</event>
<event>
 5    1  0.1264731E-009  0.9118800E+02  0.7815553E-02  0.1125453E+00
         25   -1    0    0    0    0  0.00000000000E+00  0.00000000000E+00  0.99999998245E-14  0.12509000000E+03  0.12509000000E+03 0.  0.
        -13    1    3    3    0    0 -0.31458670979E+02  0.14023890809E+02  0.38210870118E+02  0.51443165264E+02  0.10566000000E+00 0. -1.
         23    2    1    0    0    0  0.19632889939E+01 -0.12092961010E+02  0.27189503689E+02  0.95267804901E+02  0.90479784097E+02 0.  0.
         13    1    3    3    0    0  0.33421959972E+02 -0.26116851819E+02 -0.11021366429E+02  0.43824639637E+02  0.10566000000E+00 0.  1.
         22    1    1    0    0    0 -0.19632889939E+01  0.12092961010E+02 -0.27189503689E+02  0.29822195099E+02  0.00000000000E+00 0. -1.
</event>
<event>
 5    1  0.1264731E-009  0.9118800E+02  0.7815553E-02  0.1125453E+00
         25   -1    0    0    0    0  0.00000000000E+00  0.00000000000E+00  0.99999998245E-14  0.12509000000E+03  0.12509000000E+03 0.  0.
        -13    1    3    3    0    0 -0.33345087534E+02  0.81460684827E+01 -0.42197293321E+01  0.34584253267E+02  0.10566000000E+00 0.  1.
         23    2    1    0    0    0  0.16038018807E+02  0.30119985595E+02 -0.11404113028E+02  0.89111042630E+02  0.81524797119E+02 0.  0.
         13    1    3    3    0    0  0.49383106341E+02  0.21973917112E+02 -0.71843836957E+01  0.54526789363E+02  0.10566000000E+00 0. -1.
         22    1    1    0    0    0 -0.16038018807E+02 -0.30119985595E+02  0.11404113028E+02  0.35978957370E+02  0.00000000000E+00 0. -1.
</event>
<event>
 5    1  0.1264731E-009  0.9118800E+02  0.7815553E-02  0.1125453E+00
         25   -1    0    0    0    0  0.00000000000E+00  0.00000000000E+00  0.99999998245E-14  0.12509000000E+03  0.12509000000E+03 0.  0.
        -13    1    3    3    0    0 -0.89233491240E+01  0.30907599047E+02 -0.94728229771E+01  0.33535822304E+02  0.10566000000E+00 0. -1.
         23    2    1    0    0    0  0.11795698558E+02 -0.24462628532E+02 -0.16873406036E+02  0.93117034382E+02  0.87455769173E+02 0.  0.
         13    1    3    3    0    0  0.20719047682E+02 -0.55370227579E+02 -0.74005830592E+01  0.59581212077E+02  0.10566000000E+00 0.  1.
         22    1    1    0    0    0 -0.11795698558E+02  0.24462628532E+02  0.16873406036E+02  0.31972965618E+02  0.00000000000E+00 0.  1.
</event>
<event>
 5    1  0.1264731E-009  0.9118800E+02  0.7815553E-02  0.1125453E+00
         25   -1    0    0    0    0  0.00000000000E+00  0.00000000000E+00  0.99999998245E-14  0.12509000000E+03  0.12509000000E+03 0.  0.
        -13    1    3    3    0    0 -0.82264586728E+01 -0.32853963184E+02 -0.52414083855E+01  0.34271577803E+02  0.10566000000E+00 0. -1.
         23    2    1    0    0    0 -0.71098624916E+01  0.27126359686E+02  0.84441215132E+01  0.95803608577E+02  0.91217535013E+02 0.  0.
         13    1    3    3    0    0  0.11165961811E+01  0.59980322870E+02  0.13685529899E+02  0.61532030774E+02  0.10566000000E+00 0.  1.
         22    1    1    0    0    0  0.71098624916E+01 -0.27126359686E+02 -0.84441215132E+01  0.29286391423E+02  0.00000000000E+00 0.  1.
</event>
<event>
 5    1  0.1264731E-009  0.9118800E+02  0.7815553E-02  0.1125453E+00
         25   -1    0    0    0    0  0.00000000000E+00  0.00000000000E+00  0.99999998245E-14  0.12509000000E+03  0.12509000000E+03 0.  0.
        -13    1    3    3    0    0  0.16385641632E+02 -0.53035009988E+02  0.20723431916E+02  0.59250935271E+02  0.10566000000E+00 0.  1.
         23    2    1    0    0    0  0.11419269903E+00 -0.29495217683E+02 -0.16098829454E+01  0.95550659634E+02  0.90869994648E+02 0.  0.
         13    1    3    3    0    0 -0.16271448933E+02  0.23539792304E+02 -0.22333314861E+02  0.36299724363E+02  0.10566000000E+00 0. -1.
         22    1    1    0    0    0 -0.11419269903E+00  0.29495217683E+02  0.16098829454E+01  0.29539340366E+02  0.00000000000E+00 0.  1.
</event>
<event>
 5    1  0.1264731E-009  0.9118800E+02  0.7815553E-02  0.1125453E+00
         25   -1    0    0    0    0  0.00000000000E+00  0.00000000000E+00  0.99999998245E-14  0.12509000000E+03  0.12509000000E+03 0.  0.
        -13    1    3    3    0    0  0.37821626583E+02  0.15854549819E+02 -0.17421997814E+02  0.44557595977E+02  0.10566000000E+00 0. -1.
         23    2    1    0    0    0  0.62674666056E+01 -0.23514598282E+02 -0.17676380060E+02  0.95012236086E+02  0.90125762821E+02 0.  0.
         13    1    3    3    0    0 -0.31554159978E+02 -0.39369148102E+02 -0.25438224611E+00  0.50454640109E+02  0.10566000000E+00 0.  1.
         22    1    1    0    0    0 -0.62674666056E+01  0.23514598282E+02  0.17676380060E+02  0.30077763914E+02  0.00000000000E+00 0. -1.
</event>
<event>
 5    1  0.1264731E-009  0.9118800E+02  0.7815553E-02  0.1125453E+00
         25   -1    0    0    0    0  0.00000000000E+00  0.00000000000E+00  0.99999998245E-14  0.12509000000E+03  0.12509000000E+03 0.  0.
        -13    1    3    3    0    0  0.44145750726E+02 -0.28065314070E+02 -0.25399537900E+02  0.58152015017E+02  0.10566000000E+00 0. -1.
         23    2    1    0    0    0  0.27214450826E+02 -0.11364918496E+02  0.32877057044E+01  0.95415150128E+02  0.90683262838E+02 0.  0.
         13    1    3    3    0    0 -0.16931299900E+02  0.16700395575E+02  0.28687243604E+02  0.37263135111E+02  0.10566000000E+00 0.  1.
         22    1    1    0    0    0 -0.27214450826E+02  0.11364918496E+02 -0.32877057044E+01  0.29674849872E+02  0.00000000000E+00 0. -1.
</event>
<event>
 5    1  0.1264731E-009  0.9118800E+02  0.7815553E-02  0.1125453E+00
         25   -1    0    0    0    0  0.00000000000E+00  0.00000000000E+00  0.99999998245E-14  0.12509000000E+03  0.12509000000E+03 0.  0.
        -13    1    3    3    0    0  0.33150266666E+01  0.48911929795E+02  0.34764481763E+02  0.60099472829E+02  0.10566000000E+00 0.  1.
         23    2    1    0    0    0 -0.79781811078E+01  0.15964212347E+02  0.20950667305E+02  0.97568410108E+02  0.93606392628E+02 0.  0.
         13    1    3    3    0    0 -0.11293207774E+02 -0.32947717448E+02 -0.13813814458E+02  0.37468937278E+02  0.10566000000E+00 0. -1.
         22    1    1    0    0    0  0.79781811078E+01 -0.15964212347E+02 -0.20950667305E+02  0.27521589892E+02  0.00000000000E+00 0.  1.
</event>
<event>
 5    1  0.1264731E-009  0.9118800E+02  0.7815553E-02  0.1125453E+00
         25   -1    0    0    0    0  0.00000000000E+00  0.00000000000E+00  0.99999998245E-14  0.12509000000E+03  0.12509000000E+03 0.  0.
        -13    1    3    3    0    0 -0.78544423295E+01 -0.36727568471E+02  0.24450460259E+02  0.44815652634E+02  0.10566000000E+00 0.  1.
         23    2    1    0    0    0 -0.14670829830E+02  0.15702056219E+02 -0.11734532115E+01  0.10356873587E+03  0.10130803640E+03 0.  0.
         13    1    3    3    0    0 -0.68163875009E+01  0.52429624691E+02 -0.25623913471E+02  0.58753083233E+02  0.10566000000E+00 0. -1.
         22    1    1    0    0    0  0.14670829830E+02 -0.15702056219E+02  0.11734532115E+01  0.21521264133E+02  0.00000000000E+00 0. -1.
</event>
<event>
 5    1  0.1264731E-009  0.9118800E+02  0.7815553E-02  0.1125453E+00
         25   -1    0    0    0    0  0.00000000000E+00  0.00000000000E+00  0.99999998245E-14  0.12509000000E+03  0.12509000000E+03 0.  0.
        -13    1    3    3    0    0 -0.25554353931E+02 -0.12372275561E+02 -0.25873679034E+02  0.38412974868E+02  0.10566000000E+00 0. -1.
         23    2    1    0    0    0  0.12451858933E+02  0.24716338953E+02 -0.17944709636E+02  0.92105779438E+02  0.85997184836E+02 0.  0.
         13    1    3    3    0    0  0.38006212864E+02  0.37088614514E+02  0.79289693977E+01  0.53692804570E+02  0.10566000000E+00 0.  1.
         22    1    1    0    0    0 -0.12451858933E+02 -0.24716338953E+02  0.17944709636E+02  0.32984220562E+02  0.00000000000E+00 0.  1.
</event>
<event>
 5    1  0.1264731E-009  0.9118800E+02  0.7815553E-02  0.1125453E+00
         25   -1    0    0    0    0  0.00000000000E+00  0.00000000000E+00  0.99999998245E-14  0.12509000000E+03  0.12509000000E+03 0.  0.
        -13    1    3    3    0    0 -0.30103961035E+02  0.41589649103E+02 -0.51824467965E+01  0.51602483481E+02  0.10566000000E+00 0.  1.
         23    2    1    0    0    0 -0.12243233257E+02  0.10764650356E+02  0.22909822161E+02  0.96971777984E+02  0.92805664246E+02 0.  0.
         13    1    3    3    0    0  0.17860727779E+02 -0.30824998747E+02  0.28092268958E+02  0.45369294504E+02  0.10566000000E+00 0. -1.
         22    1    1    0    0    0  0.12243233257E+02 -0.10764650356E+02 -0.22909822161E+02  0.28118222016E+02  0.00000000000E+00 0. -1.
</event>
<event>
 5    1  0.1264731E-009  0.9118800E+02  0.7815553E-02  0.1125453E+00
         25   -1    0    0    0    0  0.00000000000E+00  0.00000000000E+00  0.99999998245E-14  0.12509000000E+03  0.12509000000E+03 0.  0.
        -13    1    3    3    0    0 -0.59244169262E+01  0.51416322681E+02  0.24752084619E+02  0.57370844607E+02  0.10566000000E+00 0. -1.
         23    2    1    0    0    0  0.15169780333E+02  0.21390576606E+02  0.12338518953E+02  0.96108660265E+02  0.91634908878E+02 0.  0.
         13    1    3    3    0    0  0.21094197259E+02 -0.30025746075E+02 -0.12413565666E+02  0.38737815658E+02  0.10566000000E+00 0.  1.
         22    1    1    0    0    0 -0.15169780333E+02 -0.21390576606E+02 -0.12338518953E+02  0.28981339735E+02  0.00000000000E+00 0. -1.
</event>
<event>
 5    1  0.1264731E-009  0.9118800E+02  0.7815553E-02  0.1125453E+00
         25   -1    0    0    0    0  0.00000000000E+00  0.00000000000E+00  0.99999998245E-14  0.12509000000E+03  0.12509000000E+03 0.  0.
        -13    1    3    3    0    0 -0.17906580029E+02  0.28924995231E+01 -0.27954397489E+02  0.33323740259E+02  0.10566000000E+00 0. -1.
         23    2    1    0    0    0  0.16236870276E+02 -0.28692570650E+02  0.68517375013E+01  0.91417372041E+02  0.84989940800E+02 0.  0.
         13    1    3    3    0    0  0.34143450305E+02 -0.31585070174E+02  0.34806134991E+02  0.58093631782E+02  0.10566000000E+00 0.  1.
         22    1    1    0    0    0 -0.16236870276E+02  0.28692570650E+02 -0.68517375013E+01  0.33672627959E+02  0.00000000000E+00 0.  1.
</event>
<event>
 5    1  0.1264731E-009  0.9118800E+02  0.7815553E-02  0.1125453E+00
         25   -1    0    0    0    0  0.00000000000E+00  0.00000000000E+00  0.99999998245E-14  0.12509000000E+03  0.12509000000E+03 0.  0.
        -13    1    3    3    0    0 -0.30740746544E+02  0.10397051715E+02 -0.12086643899E+02  0.34629327270E+02  0.10566000000E+00 0. -1.
         23    2    1    0    0    0  0.21753342938E+02  0.50976708432E+01  0.18907725930E+02  0.95820625616E+02  0.91240868127E+02 0.  0.
         13    1    3    3    0    0  0.52494089482E+02 -0.52993808715E+01  0.30994369828E+02  0.61191298346E+02  0.10566000000E+00 0.  1.
         22    1    1    0    0    0 -0.21753342938E+02 -0.50976708432E+01 -0.18907725930E+02  0.29269374384E+02  0.00000000000E+00 0.  1.
</event>
<event>
 5    1  0.1264731E-009  0.9118800E+02  0.7815553E-02  0.1125453E+00
         25   -1    0    0    0    0  0.00000000000E+00  0.00000000000E+00  0.99999998245E-14  0.12509000000E+03  0.12509000000E+03 0.  0.
        -13    1    3    3    0    0  0.37174241064E+02 -0.74301468930E+01  0.14726309899E+02  0.40669480558E+02  0.10566000000E+00 0. -1.
         23    2    1    0    0    0 -0.12256260389E+02 -0.26339929388E+02 -0.14249168129E+01  0.96003264418E+02  0.91490920818E+02 0.  0.
         13    1    3    3    0    0 -0.49430501454E+02 -0.18909782495E+02 -0.16151226712E+02  0.55333783860E+02  0.10566000000E+00 0.  1.
         22    1    1    0    0    0  0.12256260389E+02  0.26339929388E+02  0.14249168129E+01  0.29086735582E+02  0.00000000000E+00 0.  1.
</event>
<event>
 5    1  0.1264731E-009  0.9118800E+02  0.7815553E-02  0.1125453E+00
         25   -1    0    0    0    0  0.00000000000E+00  0.00000000000E+00  0.99999998245E-14  0.12509000000E+03  0.12509000000E+03 0.  0.
        -13    1    3    3    0    0 -0.11468436319E+02 -0.31737424405E+02 -0.27800543651E+02  0.43722654663E+02  0.10566000000E+00 0. -1.
         23    2    1    0    0    0 -0.12523217928E+02  0.13137257938E+02 -0.31471729351E+02  0.88759733255E+02  0.80983961164E+02 0.  0.
         13    1    3    3    0    0 -0.10547816087E+01  0.44874682343E+02 -0.36711857000E+01  0.45037078592E+02  0.10566000000E+00 0.  1.
         22    1    1    0    0    0  0.12523217928E+02 -0.13137257938E+02  0.31471729351E+02  0.36330266745E+02  0.00000000000E+00 0.  1.
</event>
<event>
 5    1  0.1264731E-009  0.9118800E+02  0.7815553E-02  0.1125453E+00
         25   -1    0    0    0    0  0.00000000000E+00  0.00000000000E+00  0.99999998245E-14  0.12509000000E+03  0.12509000000E+03 0.  0.
        -13    1    3    3    0    0 -0.95918012177E+01 -0.32208400567E+02 -0.14359717247E+01  0.33637135677E+02  0.10566000000E+00 0.  1.
         23    2    1    0    0    0  0.13169165858E+00  0.27688683160E+02 -0.11427617391E+02  0.95135518582E+02  0.90296710564E+02 0.  0.
         13    1    3    3    0    0  0.97234928763E+01  0.59897083727E+02 -0.99916456660E+01  0.61498382905E+02  0.10566000000E+00 0. -1.
         22    1    1    0    0    0 -0.13169165858E+00 -0.27688683160E+02  0.11427617391E+02  0.29954481418E+02  0.00000000000E+00 0. -1.
</event>
<event>
 5    1  0.1264731E-009  0.9118800E+02  0.7815553E-02  0.1125453E+00
         25   -1    0    0    0    0  0.00000000000E+00  0.00000000000E+00  0.99999998245E-14  0.12509000000E+03  0.12509000000E+03 0.  0.
        -13    1    3    3    0    0  0.20396567171E+02 -0.29611499804E+02 -0.46684771621E+01  0.36258333057E+02  0.10566000000E+00 0.  1.
         23    2    1    0    0    0 -0.16700824987E+02  0.16117291918E+02 -0.16874689099E+02  0.96394359457E+02  0.92024087873E+02 0.  0.
         13    1    3    3    0    0 -0.37097392158E+02  0.45728791722E+02 -0.12206211937E+02  0.60136026400E+02  0.10566000000E+00 0. -1.
         22    1    1    0    0    0  0.16700824987E+02 -0.16117291918E+02  0.16874689099E+02  0.28695640543E+02  0.00000000000E+00 0. -1.
</event>
<event>
 5    1  0.1264731E-009  0.9118800E+02  0.7815553E-02  0.1125453E+00
         25   -1    0    0    0    0  0.00000000000E+00  0.00000000000E+00  0.99999998245E-14  0.12509000000E+03  0.12509000000E+03 0.  0.
        -13    1    3    3    0    0 -0.32395011895E+02 -0.44205930416E+01 -0.15525055902E+02  0.36194156480E+02  0.10566000000E+00 0.  1.
         23    2    1    0    0    0  0.15406918218E+02  0.12165753501E+02  0.19254449488E+02  0.97592499890E+02  0.93638579242E+02 0.  0.
         13    1    3    3    0    0  0.47801930113E+02  0.16586346543E+02  0.34779505390E+02  0.61398343409E+02  0.10566000000E+00 0. -1.
         22    1    1    0    0    0 -0.15406918218E+02 -0.12165753501E+02 -0.19254449488E+02  0.27497500110E+02  0.00000000000E+00 0. -1.
</event>
<event>
 5    1  0.1264731E-009  0.9118800E+02  0.7815553E-02  0.1125453E+00
         25   -1    0    0    0    0  0.00000000000E+00  0.00000000000E+00  0.99999998245E-14  0.12509000000E+03  0.12509000000E+03 0.  0.
        -13    1    3    3    0    0 -0.24119559648E+02  0.24663658159E+02 -0.16349343588E+02  0.38175402961E+02  0.10566000000E+00 0. -1.
         23    2    1    0    0    0  0.76265612189E+01 -0.22441836171E+02 -0.18502961696E+02  0.95020745964E+02  0.90137573327E+02 0.  0.
         13    1    3    3    0    0  0.31746120867E+02 -0.47105494330E+02 -0.21536181076E+01  0.56845343003E+02  0.10566000000E+00 0.  1.
         22    1    1    0    0    0 -0.76265612189E+01  0.22441836171E+02  0.18502961696E+02  0.30069254036E+02  0.00000000000E+00 0.  1.
</event>
<event>
 5    1  0.1264731E-009  0.9118800E+02  0.7815553E-02  0.1125453E+00
         25   -1    0    0    0    0  0.00000000000E+00  0.00000000000E+00  0.99999998245E-14  0.12509000000E+03  0.12509000000E+03 0.  0.
        -13    1    3    3    0    0 -0.45155693859E+01  0.26839180655E+02 -0.42425289965E+02  0.50404844784E+02  0.10566000000E+00 0. -1.
         23    2    1    0    0    0 -0.23303784357E+02 -0.15838449530E+01 -0.46530299069E+01  0.10127350115E+03  0.98433207900E+02 0.  0.
         13    1    3    3    0    0 -0.18788214971E+02 -0.28423025608E+02  0.37772260058E+02  0.50868656365E+02  0.10566000000E+00 0.  1.
         22    1    1    0    0    0  0.23303784357E+02  0.15838449530E+01  0.46530299069E+01  0.23816498851E+02  0.00000000000E+00 0.  1.
</event>
<event>
 5    1  0.1264731E-009  0.9118800E+02  0.7815553E-02  0.1125453E+00
         25   -1    0    0    0    0  0.00000000000E+00  0.00000000000E+00  0.99999998245E-14  0.12509000000E+03  0.12509000000E+03 0.  0.
        -13    1    3    3    0    0 -0.37640916389E+02  0.28543453506E+02  0.21988405727E+02  0.52106318956E+02  0.10566000000E+00 0.  1.
         23    2    1    0    0    0 -0.28174905983E+02 -0.21849847325E+01 -0.76258281265E+01  0.95819661088E+02  0.91239545762E+02 0.  0.
         13    1    3    3    0    0  0.94660104057E+01 -0.30728438239E+02 -0.29614233854E+02  0.43713342132E+02  0.10566000000E+00 0. -1.
         22    1    1    0    0    0  0.28174905983E+02  0.21849847325E+01  0.76258281265E+01  0.29270338912E+02  0.00000000000E+00 0. -1.
</event>
<event>
 5    1  0.1264731E-009  0.9118800E+02  0.7815553E-02  0.1125453E+00
         25   -1    0    0    0    0  0.00000000000E+00  0.00000000000E+00  0.99999998245E-14  0.12509000000E+03  0.12509000000E+03 0.  0.
        -13    1    3    3    0    0  0.29451129203E+02  0.36273857222E+02  0.39504474795E+02  0.61186407167E+02  0.10566000000E+00 0. -1.
         23    2    1    0    0    0  0.67114171584E+01  0.22707842404E+02  0.20362026447E+02  0.93860184952E+02  0.88512332312E+02 0.  0.
         13    1    3    3    0    0 -0.22739712045E+02 -0.13566014818E+02 -0.19142448349E+02  0.32673777785E+02  0.10566000000E+00 0.  1.
         22    1    1    0    0    0 -0.67114171584E+01 -0.22707842404E+02 -0.20362026447E+02  0.31229815048E+02  0.00000000000E+00 0. -1.
</event>
<event>
 5    1  0.1264731E-009  0.9118800E+02  0.7815553E-02  0.1125453E+00
         25   -1    0    0    0    0  0.00000000000E+00  0.00000000000E+00  0.99999998245E-14  0.12509000000E+03  0.12509000000E+03 0.  0.
        -13    1    3    3    0    0 -0.38182947329E+02 -0.28045554996E+02 -0.86211209108E+01  0.48154184778E+02  0.10566000000E+00 0.  1.
         23    2    1    0    0    0 -0.15123560374E+01 -0.53179899521E+01 -0.28786789336E+02  0.95777076601E+02  0.91181143468E+02 0.  0.
         13    1    3    3    0    0  0.36670591292E+02  0.22727565044E+02 -0.20165668425E+02  0.47622891823E+02  0.10566000000E+00 0. -1.
         22    1    1    0    0    0  0.15123560374E+01  0.53179899521E+01  0.28786789336E+02  0.29312923399E+02  0.00000000000E+00 0. -1.
</event>
<event>
 5    1  0.1264731E-009  0.9118800E+02  0.7815553E-02  0.1125453E+00
         25   -1    0    0    0    0  0.00000000000E+00  0.00000000000E+00  0.99999998245E-14  0.12509000000E+03  0.12509000000E+03 0.  0.
        -13    1    3    3    0    0 -0.48689722119E+02 -0.18667048617E+02  0.21109033835E+02  0.56256112713E+02  0.10566000000E+00 0.  1.
         23    2    1    0    0    0 -0.15963700412E+02 -0.25756684852E+02  0.22092037721E+01  0.94706992797E+02  0.89701100093E+02 0.  0.
         13    1    3    3    0    0  0.32726021708E+02 -0.70896362354E+01 -0.18899830063E+02  0.38450880084E+02  0.10566000000E+00 0. -1.
         22    1    1    0    0    0  0.15963700412E+02  0.25756684852E+02 -0.22092037721E+01  0.30383007203E+02  0.00000000000E+00 0. -1.
</event>
<event>
 5    1  0.1264731E-009  0.9118800E+02  0.7815553E-02  0.1125453E+00
         25   -1    0    0    0    0  0.00000000000E+00  0.00000000000E+00  0.99999998245E-14  0.12509000000E+03  0.12509000000E+03 0.  0.
        -13    1    3    3    0    0 -0.21401407555E+02  0.31085928907E+02  0.10587411300E+02  0.39197699721E+02  0.10566000000E+00 0. -1.
         23    2    1    0    0    0  0.69669624761E+01  0.19150570188E+01 -0.28540780499E+02  0.95648835604E+02  0.91005041571E+02 0.  0.
         13    1    3    3    0    0  0.28368370031E+02 -0.29170871888E+02 -0.39128191799E+02  0.56451135883E+02  0.10566000000E+00 0.  1.
         22    1    1    0    0    0 -0.69669624761E+01 -0.19150570188E+01  0.28540780499E+02  0.29441164396E+02  0.00000000000E+00 0.  1.
</event>
<event>
 5    1  0.1264731E-009  0.9118800E+02  0.7815553E-02  0.1125453E+00
         25   -1    0    0    0    0  0.00000000000E+00  0.00000000000E+00  0.99999998245E-14  0.12509000000E+03  0.12509000000E+03 0.  0.
        -13    1    3    3    0    0 -0.60127990651E+02  0.29234770919E+01 -0.11269096024E+02  0.61244801145E+02  0.10566000000E+00 0.  1.
         23    2    1    0    0    0 -0.26928206630E+02 -0.48873236076E+01 -0.11630518976E+02  0.95353100094E+02  0.90597629558E+02 0.  0.
         13    1    3    3    0    0  0.33199784021E+02 -0.78108006995E+01 -0.36142295232E+00  0.34108298949E+02  0.10566000000E+00 0. -1.
         22    1    1    0    0    0  0.26928206630E+02  0.48873236076E+01  0.11630518976E+02  0.29736899906E+02  0.00000000000E+00 0.  1.
</event>
<event>
 5    1  0.1264731E-009  0.9118800E+02  0.7815553E-02  0.1125453E+00
         25   -1    0    0    0    0  0.00000000000E+00  0.00000000000E+00  0.99999998245E-14  0.12509000000E+03  0.12509000000E+03 0.  0.
        -13    1    3    3    0    0  0.12814315019E+02  0.35256940744E+02 -0.44366821447E+02  0.58100641557E+02  0.10566000000E+00 0. -1.
         23    2    1    0    0    0  0.44631475561E+01  0.28019874209E+02 -0.87412528593E+01  0.95400902028E+02  0.90663606643E+02 0.  0.
         13    1    3    3    0    0 -0.83511674634E+01 -0.72370665345E+01  0.35625568587E+02  0.37300260471E+02  0.10566000000E+00 0.  1.
         22    1    1    0    0    0 -0.44631475561E+01 -0.28019874209E+02  0.87412528593E+01  0.29689097972E+02  0.00000000000E+00 0. -1.
</event>
<event>
 5    1  0.1264731E-009  0.9118800E+02  0.7815553E-02  0.1125453E+00
         25   -1    0    0    0    0  0.00000000000E+00  0.00000000000E+00  0.99999998245E-14  0.12509000000E+03  0.12509000000E+03 0.  0.
        -13    1    3    3    0    0 -0.21362246326E+02 -0.48084185437E+02 -0.26719129748E+02  0.59011503250E+02  0.10566000000E+00 0.  1.
         23    2    1    0    0    0 -0.22085663811E+02 -0.18222486981E+02 -0.48090132684E+01  0.96056188911E+02  0.91563252683E+02 0.  0.
         13    1    3    3    0    0 -0.72341748482E+00  0.29861698457E+02  0.21910116480E+02  0.37044685662E+02  0.10566000000E+00 0. -1.
         22    1    1    0    0    0  0.22085663811E+02  0.18222486981E+02  0.48090132684E+01  0.29033811089E+02  0.00000000000E+00 0.  1.
</event>
<event>
 5    1  0.1264731E-009  0.9118800E+02  0.7815553E-02  0.1125453E+00
         25   -1    0    0    0    0  0.00000000000E+00  0.00000000000E+00  0.99999998245E-14  0.12509000000E+03  0.12509000000E+03 0.  0.
        -13    1    3    3    0    0  0.18692688613E+02  0.18164931352E+02  0.26014336372E+02  0.36825781724E+02  0.10566000000E+00 0.  1.
         23    2    1    0    0    0  0.10918053916E+02 -0.62492159991E+01 -0.26776218231E+02  0.95505840985E+02  0.90808277142E+02 0.  0.
         13    1    3    3    0    0 -0.77746346970E+01 -0.24414147351E+02 -0.52790554603E+02  0.58680059261E+02  0.10566000000E+00 0. -1.
         22    1    1    0    0    0 -0.10918053916E+02  0.62492159991E+01  0.26776218231E+02  0.29584159015E+02  0.00000000000E+00 0. -1.
</event>
<event>
 5    1  0.1264731E-009  0.9118800E+02  0.7815553E-02  0.1125453E+00
         25   -1    0    0    0    0  0.00000000000E+00  0.00000000000E+00  0.99999998245E-14  0.12509000000E+03  0.12509000000E+03 0.  0.
        -13    1    3    3    0    0 -0.56297950047E+02 -0.89172395242E+01  0.28327159424E+01  0.57070235534E+02  0.10566000000E+00 0.  1.
         23    2    1    0    0    0 -0.20233002746E+02 -0.15856912695E+02  0.14462866078E+02  0.95594397353E+02  0.90930183271E+02 0.  0.
         13    1    3    3    0    0  0.36064947302E+02 -0.69396731711E+01  0.11630150136E+02  0.38524161818E+02  0.10566000000E+00 0. -1.
         22    1    1    0    0    0  0.20233002746E+02  0.15856912695E+02 -0.14462866078E+02  0.29495602647E+02  0.00000000000E+00 0.  1.
</event>
<event>
 5    1  0.1264731E-009  0.9118800E+02  0.7815553E-02  0.1125453E+00
         25   -1    0    0    0    0  0.00000000000E+00  0.00000000000E+00  0.99999998245E-14  0.12509000000E+03  0.12509000000E+03 0.  0.
        -13    1    3    3    0    0 -0.33959329371E+02  0.33051731359E+02  0.21961868170E+02  0.52230142779E+02  0.10566000000E+00 0. -1.
         23    2    1    0    0    0  0.22349429080E+01  0.88129713340E+01  0.27485397919E+02  0.96139861273E+02  0.91677491204E+02 0.  0.
         13    1    3    3    0    0  0.36194272279E+02 -0.24238760025E+02  0.55235297485E+01  0.43909718494E+02  0.10566000000E+00 0.  1.
         22    1    1    0    0    0 -0.22349429080E+01 -0.88129713340E+01 -0.27485397919E+02  0.28950138727E+02  0.00000000000E+00 0. -1.
</event>
<event>
 5    1  0.1264731E-009  0.9118800E+02  0.7815553E-02  0.1125453E+00
         25   -1    0    0    0    0  0.00000000000E+00  0.00000000000E+00  0.99999998245E-14  0.12509000000E+03  0.12509000000E+03 0.  0.
        -13    1    3    3    0    0 -0.43337550294E+02  0.24191937197E+01  0.34418603968E+02  0.55395371890E+02  0.10566000000E+00 0. -1.
         23    2    1    0    0    0 -0.36254159558E+01  0.12176197863E+02  0.24526905818E+02  0.97468042353E+02  0.93472170917E+02 0.  0.
         13    1    3    3    0    0  0.39712134338E+02  0.97570041428E+01 -0.98916981496E+01  0.42072670463E+02  0.10566000000E+00 0.  1.
         22    1    1    0    0    0  0.36254159558E+01 -0.12176197863E+02 -0.24526905818E+02  0.27621957647E+02  0.00000000000E+00 0. -1.
</event>
<event>
 5    1  0.1264731E-009  0.9118800E+02  0.7815553E-02  0.1125453E+00
         25   -1    0    0    0    0  0.00000000000E+00  0.00000000000E+00  0.99999998245E-14  0.12509000000E+03  0.12509000000E+03 0.  0.
        -13    1    3    3    0    0  0.17143658441E+02  0.29790858261E+02 -0.12786312274E+02  0.36672894708E+02  0.10566000000E+00 0.  1.
         23    2    1    0    0    0 -0.16330389943E+02 -0.61494307613E+01  0.22110977559E+02  0.96922776797E+02  0.92739593481E+02 0.  0.
         13    1    3    3    0    0 -0.33474048383E+02 -0.35940289022E+02  0.34897289832E+02  0.60249882090E+02  0.10566000000E+00 0. -1.
         22    1    1    0    0    0  0.16330389943E+02  0.61494307613E+01 -0.22110977559E+02  0.28167223203E+02  0.00000000000E+00 0. -1.
</event>
<event>
 5    1  0.1264731E-009  0.9118800E+02  0.7815553E-02  0.1125453E+00
         25   -1    0    0    0    0  0.00000000000E+00  0.00000000000E+00  0.99999998245E-14  0.12509000000E+03  0.12509000000E+03 0.  0.
        -13    1    3    3    0    0 -0.43385553306E+02 -0.34330342894E+00  0.44356801067E+02  0.62048054425E+02  0.10566000000E+00 0.  1.
         23    2    1    0    0    0 -0.21874308709E+02  0.52314181904E+01  0.20386630762E+02  0.94734311380E+02  0.89739188324E+02 0.  0.
         13    1    3    3    0    0  0.21511244597E+02  0.55747216193E+01 -0.23970170305E+02  0.32686256956E+02  0.10566000000E+00 0. -1.
         22    1    1    0    0    0  0.21874308709E+02 -0.52314181904E+01 -0.20386630762E+02  0.30355688620E+02  0.00000000000E+00 0.  1.
</event>
<event>
 5    1  0.1264731E-009  0.9118800E+02  0.7815553E-02  0.1125453E+00
         25   -1    0    0    0    0  0.00000000000E+00  0.00000000000E+00  0.99999998245E-14  0.12509000000E+03  0.12509000000E+03 0.  0.
        -13    1    3    3    0    0 -0.33313744146E+02  0.16999713604E+02 -0.10841905023E+02  0.38940388804E+02  0.10566000000E+00 0.  1.
         23    2    1    0    0    0 -0.62256825669E+01 -0.23630074230E+02  0.17159063920E+02  0.95230780215E+02  0.90428582286E+02 0.  0.
         13    1    3    3    0    0  0.27088061579E+02 -0.40629787834E+02  0.28000968943E+02  0.56290391412E+02  0.10566000000E+00 0. -1.
         22    1    1    0    0    0  0.62256825669E+01  0.23630074230E+02 -0.17159063920E+02  0.29859219785E+02  0.00000000000E+00 0. -1.
</event>
<event>
 5    1  0.1264731E-009  0.9118800E+02  0.7815553E-02  0.1125453E+00
         25   -1    0    0    0    0  0.00000000000E+00  0.00000000000E+00  0.99999998245E-14  0.12509000000E+03  0.12509000000E+03 0.  0.
        -13    1    3    3    0    0  0.12688976390E+02 -0.18270469621E+02  0.14721226578E+02  0.26674816925E+02  0.10566000000E+00 0.  1.
         23    2    1    0    0    0 -0.30830854138E+02  0.19941174776E+02  0.16985635524E+02  0.84633803534E+02  0.74338259787E+02 0.  0.
         13    1    3    3    0    0 -0.43519830529E+02  0.38211644397E+02  0.22644089467E+01  0.57958986609E+02  0.10566000000E+00 0. -1.
         22    1    1    0    0    0  0.30830854138E+02 -0.19941174776E+02 -0.16985635524E+02  0.40456196466E+02  0.00000000000E+00 0. -1.
</event>
<event>
 5    1  0.1264731E-009  0.9118800E+02  0.7815553E-02  0.1125453E+00
         25   -1    0    0    0    0  0.00000000000E+00  0.00000000000E+00  0.99999998245E-14  0.12509000000E+03  0.12509000000E+03 0.  0.
        -13    1    3    3    0    0  0.28413857714E+02 -0.16155942438E+02 -0.29134532834E+02  0.43785773417E+02  0.10566000000E+00 0.  1.
         23    2    1    0    0    0 -0.22076518751E+02 -0.11084668606E+02 -0.13784839190E+02  0.96801056051E+02  0.92575267231E+02 0.  0.
         13    1    3    3    0    0 -0.50490376464E+02  0.50712738329E+01  0.15349693644E+02  0.53015282634E+02  0.10566000000E+00 0. -1.
         22    1    1    0    0    0  0.22076518751E+02  0.11084668606E+02  0.13784839190E+02  0.28288943949E+02  0.00000000000E+00 0. -1.
</event>
<event>
 5    1  0.1264731E-009  0.9118800E+02  0.7815553E-02  0.1125453E+00
         25   -1    0    0    0    0  0.00000000000E+00  0.00000000000E+00  0.99999998245E-14  0.12509000000E+03  0.12509000000E+03 0.  0.
        -13    1    3    3    0    0 -0.13099299482E+02  0.31701479724E+02  0.39459767000E+02  0.52284412968E+02  0.10566000000E+00 0.  1.
         23    2    1    0    0    0 -0.27114928433E+02  0.13728137926E+02  0.40024576353E+01  0.94435460663E+02  0.89321640427E+02 0.  0.
         13    1    3    3    0    0 -0.14015628952E+02 -0.17973341799E+02 -0.35457309365E+02  0.42151047695E+02  0.10566000000E+00 0. -1.
         22    1    1    0    0    0  0.27114928433E+02 -0.13728137926E+02 -0.40024576353E+01  0.30654539337E+02  0.00000000000E+00 0.  1.
</event>
<event>
 5    1  0.1264731E-009  0.9118800E+02  0.7815553E-02  0.1125453E+00
         25   -1    0    0    0    0  0.00000000000E+00  0.00000000000E+00  0.99999998245E-14  0.12509000000E+03  0.12509000000E+03 0.  0.
        -13    1    3    3    0    0 -0.22899923725E+02 -0.49362227837E+01 -0.29754238319E+02  0.37869495164E+02  0.10566000000E+00 0. -1.
         23    2    1    0    0    0  0.13800849196E+02 -0.22975094316E+02  0.11470582046E+02  0.95937081625E+02  0.91400388297E+02 0.  0.
         13    1    3    3    0    0  0.36700772921E+02 -0.18038871532E+02  0.41224820365E+02  0.58067586460E+02  0.10566000000E+00 0.  1.
         22    1    1    0    0    0 -0.13800849196E+02  0.22975094316E+02 -0.11470582046E+02  0.29152918375E+02  0.00000000000E+00 0.  1.
</event>
<event>
 5    1  0.1264731E-009  0.9118800E+02  0.7815553E-02  0.1125453E+00
         25   -1    0    0    0    0  0.00000000000E+00  0.00000000000E+00  0.99999998245E-14  0.12509000000E+03  0.12509000000E+03 0.  0.
        -13    1    3    3    0    0 -0.26845547918E+02 -0.11248145744E+02 -0.16796130888E+02  0.33605437098E+02  0.10566000000E+00 0.  1.
         23    2    1    0    0    0  0.15563388230E+02  0.25840254557E+02  0.59160549436E+01  0.94350164040E+02  0.89202107260E+02 0.  0.
         13    1    3    3    0    0  0.42408936148E+02  0.37088400301E+02  0.22712185832E+02  0.60744726942E+02  0.10566000000E+00 0. -1.
         22    1    1    0    0    0 -0.15563388230E+02 -0.25840254557E+02 -0.59160549436E+01  0.30739835960E+02  0.00000000000E+00 0. -1.
</event>
<event>
 5    1  0.1264731E-009  0.9118800E+02  0.7815553E-02  0.1125453E+00
         25   -1    0    0    0    0  0.00000000000E+00  0.00000000000E+00  0.99999998245E-14  0.12509000000E+03  0.12509000000E+03 0.  0.
        -13    1    3    3    0    0  0.15878691720E+02 -0.54458264868E+01 -0.28702623239E+02  0.33251189779E+02  0.10566000000E+00 0.  1.
         23    2    1    0    0    0 -0.19627086708E+02  0.20294250822E+01  0.21960311130E+02  0.95567189095E+02  0.90892745958E+02 0.  0.
         13    1    3    3    0    0 -0.35505778428E+02  0.74752515690E+01  0.50662934370E+02  0.62315999316E+02  0.10566000000E+00 0. -1.
         22    1    1    0    0    0  0.19627086708E+02 -0.20294250822E+01 -0.21960311130E+02  0.29522810905E+02  0.00000000000E+00 0. -1.
</event>
<event>
 5    1  0.1264731E-009  0.9118800E+02  0.7815553E-02  0.1125453E+00
         25   -1    0    0    0    0  0.00000000000E+00  0.00000000000E+00  0.99999998245E-14  0.12509000000E+03  0.12509000000E+03 0.  0.
        -13    1    3    3    0    0 -0.63293032842E+01  0.35255060944E+02  0.48006764303E+02  0.59896911315E+02  0.10566000000E+00 0. -1.
         23    2    1    0    0    0  0.96575127703E+01  0.15434825845E+02  0.24603789233E+02  0.94482029692E+02  0.89386833976E+02 0.  0.
         13    1    3    3    0    0  0.15986816054E+02 -0.19820235099E+02 -0.23402975070E+02  0.34585118376E+02  0.10566000000E+00 0.  1.
         22    1    1    0    0    0 -0.96575127703E+01 -0.15434825845E+02 -0.24603789233E+02  0.30607970308E+02  0.00000000000E+00 0. -1.
</event>
<event>
 5    1  0.1264731E-009  0.9118800E+02  0.7815553E-02  0.1125453E+00
         25   -1    0    0    0    0  0.00000000000E+00  0.00000000000E+00  0.99999998245E-14  0.12509000000E+03  0.12509000000E+03 0.  0.
        -13    1    3    3    0    0  0.36334426262E+02  0.18884242100E+02  0.47259066312E+02  0.62531877025E+02  0.10566000000E+00 0.  1.
         23    2    1    0    0    0  0.17935151133E+02  0.86236100175E+01  0.21951964889E+02  0.95460199825E+02  0.90745383862E+02 0.  0.
         13    1    3    3    0    0 -0.18399275130E+02 -0.10260632083E+02 -0.25307101422E+02  0.32928322801E+02  0.10566000000E+00 0. -1.
         22    1    1    0    0    0 -0.17935151133E+02 -0.86236100175E+01 -0.21951964889E+02  0.29629800175E+02  0.00000000000E+00 0.  1.
</event>
<event>
 5    1  0.1264731E-009  0.9118800E+02  0.7815553E-02  0.1125453E+00
         25   -1    0    0    0    0  0.00000000000E+00  0.00000000000E+00  0.99999998245E-14  0.12509000000E+03  0.12509000000E+03 0.  0.
        -13    1    3    3    0    0  0.19755464398E+02  0.10944995233E+02  0.60979091146E+01  0.23393737492E+02  0.10566000000E+00 0. -1.
         23    2    1    0    0    0 -0.36818588964E+02 -0.12563004016E+02 -0.56653957986E+01  0.85776716332E+02  0.76237200841E+02 0.  0.
         13    1    3    3    0    0 -0.56574053362E+02 -0.23507999249E+02 -0.11763304913E+02  0.62382978840E+02  0.10566000000E+00 0.  1.
         22    1    1    0    0    0  0.36818588964E+02  0.12563004016E+02  0.56653957986E+01  0.39313283668E+02  0.00000000000E+00 0.  1.
</event>
<event>
 5    1  0.1264731E-009  0.9118800E+02  0.7815553E-02  0.1125453E+00
         25   -1    0    0    0    0  0.00000000000E+00  0.00000000000E+00  0.99999998245E-14  0.12509000000E+03  0.12509000000E+03 0.  0.
        -13    1    3    3    0    0  0.31134594088E+02  0.37122658836E+01 -0.38026755881E+02  0.49286805474E+02  0.10566000000E+00 0.  1.
         23    2    1    0    0    0 -0.75784005328E+01 -0.17353147210E+02 -0.21706703051E+02  0.96284708297E+02  0.91874916173E+02 0.  0.
         13    1    3    3    0    0 -0.38712994621E+02 -0.21065413094E+02  0.16320052830E+02  0.46997902823E+02  0.10566000000E+00 0. -1.
         22    1    1    0    0    0  0.75784005328E+01  0.17353147210E+02  0.21706703051E+02  0.28805291703E+02  0.00000000000E+00 0.  1.
</event>
<event>
 5    1  0.1264731E-009  0.9118800E+02  0.7815553E-02  0.1125453E+00
         25   -1    0    0    0    0  0.00000000000E+00  0.00000000000E+00  0.99999998245E-14  0.12509000000E+03  0.12509000000E+03 0.  0.
        -13    1    3    3    0    0 -0.36107156435E+01  0.56116822200E+01  0.45211325066E+02  0.45701239841E+02  0.10566000000E+00 0. -1.
         23    2    1    0    0    0 -0.28198076362E+02 -0.66095165999E+01  0.31150256748E+01  0.95960622987E+02  0.91432601182E+02 0.  0.
         13    1    3    3    0    0 -0.24587360719E+02 -0.12221198820E+02 -0.42096299391E+02  0.50259383145E+02  0.10566000000E+00 0.  1.
         22    1    1    0    0    0  0.28198076362E+02  0.66095165999E+01 -0.31150256748E+01  0.29129377013E+02  0.00000000000E+00 0.  1.
</event>
<event>
 5    1  0.1264731E-009  0.9118800E+02  0.7815553E-02  0.1125453E+00
         25   -1    0    0    0    0  0.00000000000E+00  0.00000000000E+00  0.99999998245E-14  0.12509000000E+03  0.12509000000E+03 0.  0.
        -13    1    3    3    0    0 -0.15744340733E+02  0.68750407572E+01 -0.35814442477E+02  0.39721982636E+02  0.10566000000E+00 0.  1.
         23    2    1    0    0    0 -0.12870615279E+02  0.12410494652E+02  0.21359381876E+02  0.97235084648E+02  0.93159891462E+02 0.  0.
         13    1    3    3    0    0  0.28737254547E+01  0.55354538947E+01  0.57173824353E+02  0.57513102012E+02  0.10566000000E+00 0. -1.
         22    1    1    0    0    0  0.12870615279E+02 -0.12410494652E+02 -0.21359381876E+02  0.27854915352E+02  0.00000000000E+00 0. -1.
</event>
<event>
 5    1  0.1264731E-009  0.9118800E+02  0.7815553E-02  0.1125453E+00
         25   -1    0    0    0    0  0.00000000000E+00  0.00000000000E+00  0.99999998245E-14  0.12509000000E+03  0.12509000000E+03 0.  0.
        -13    1    3    3    0    0  0.30039068609E+02 -0.28517986797E+02 -0.13938120473E+02  0.43702443642E+02  0.10566000000E+00 0.  1.
         23    2    1    0    0    0  0.13798947999E+02  0.20971599588E+02 -0.15086710773E+02  0.95801302571E+02  0.91214372646E+02 0.  0.
         13    1    3    3    0    0 -0.16240120610E+02  0.49489586385E+02 -0.11485902998E+01  0.52098858929E+02  0.10566000000E+00 0. -1.
         22    1    1    0    0    0 -0.13798947999E+02 -0.20971599588E+02  0.15086710773E+02  0.29288697429E+02  0.00000000000E+00 0. -1.
</event>
<event>
 5    1  0.1264731E-009  0.9118800E+02  0.7815553E-02  0.1125453E+00
         25   -1    0    0    0    0  0.00000000000E+00  0.00000000000E+00  0.99999998245E-14  0.12509000000E+03  0.12509000000E+03 0.  0.
        -13    1    3    3    0    0  0.37114393147E+02 -0.13150670258E+02 -0.26176471831E+02  0.47282524768E+02  0.10566000000E+00 0.  1.
         23    2    1    0    0    0 -0.73760481150E+01 -0.25708724776E+02 -0.12996571829E+02  0.95353566208E+02  0.90598273128E+02 0.  0.
         13    1    3    3    0    0 -0.44490441262E+02 -0.12558054517E+02  0.13179900003E+02  0.48071041439E+02  0.10566000000E+00 0. -1.
         22    1    1    0    0    0  0.73760481150E+01  0.25708724776E+02  0.12996571829E+02  0.29736433792E+02  0.00000000000E+00 0.  1.
</event>
<event>
 5    1  0.1264731E-009  0.9118800E+02  0.7815553E-02  0.1125453E+00
         25   -1    0    0    0    0  0.00000000000E+00  0.00000000000E+00  0.99999998245E-14  0.12509000000E+03  0.12509000000E+03 0.  0.
        -13    1    3    3    0    0 -0.40002186572E+02  0.31483485822E+02  0.45131239598E+01  0.51105423019E+02  0.10566000000E+00 0. -1.
         23    2    1    0    0    0 -0.27627730968E+02 -0.10190770299E+02 -0.39024101019E+01  0.95385250846E+02  0.90642009888E+02 0.  0.
         13    1    3    3    0    0  0.12374455604E+02 -0.41674256121E+02 -0.84155340617E+01  0.44279827827E+02  0.10566000000E+00 0.  1.
         22    1    1    0    0    0  0.27627730968E+02  0.10190770299E+02  0.39024101019E+01  0.29704749154E+02  0.00000000000E+00 0. -1.
</event>
<event>
 5    1  0.1264731E-009  0.9118800E+02  0.7815553E-02  0.1125453E+00
         25   -1    0    0    0    0  0.00000000000E+00  0.00000000000E+00  0.99999998245E-14  0.12509000000E+03  0.12509000000E+03 0.  0.
        -13    1    3    3    0    0 -0.47155914837E+02 -0.31938859340E+01 -0.36200534805E+02  0.59534620984E+02  0.10566000000E+00 0. -1.
         23    2    1    0    0    0 -0.29317338207E+02 -0.33430073818E+01 -0.54523519493E+01  0.95083164784E+02  0.90224154558E+02 0.  0.
         13    1    3    3    0    0  0.17838576630E+02 -0.14912144781E+00  0.30748182855E+02  0.35548543800E+02  0.10566000000E+00 0.  1.
         22    1    1    0    0    0  0.29317338207E+02  0.33430073818E+01  0.54523519493E+01  0.30006835216E+02  0.00000000000E+00 0. -1.
</event>
<event>
 5    1  0.1264731E-009  0.9118800E+02  0.7815553E-02  0.1125453E+00
         25   -1    0    0    0    0  0.00000000000E+00  0.00000000000E+00  0.99999998245E-14  0.12509000000E+03  0.12509000000E+03 0.  0.
        -13    1    3    3    0    0 -0.22236071741E+02  0.65020479312E+01 -0.29232004809E+02  0.37299340249E+02  0.10566000000E+00 0.  1.
         23    2    1    0    0    0  0.68781855596E+00  0.18114556281E+02  0.23174832558E+02  0.95667506773E+02  0.91030702208E+02 0.  0.
         13    1    3    3    0    0  0.22923890297E+02  0.11612508350E+02  0.52406837367E+02  0.58368166524E+02  0.10566000000E+00 0. -1.
         22    1    1    0    0    0 -0.68781855596E+00 -0.18114556281E+02 -0.23174832558E+02  0.29422493227E+02  0.00000000000E+00 0.  1.
</event>
<event>
 5    1  0.1264731E-009  0.9118800E+02  0.7815553E-02  0.1125453E+00
         25   -1    0    0    0    0  0.00000000000E+00  0.00000000000E+00  0.99999998245E-14  0.12509000000E+03  0.12509000000E+03 0.  0.
        -13    1    3    3    0    0  0.37496872848E+02  0.25185064014E+02 -0.42096531461E+02  0.61744894913E+02  0.10566000000E+00 0. -1.
         23    2    1    0    0    0  0.13217441666E+02  0.70899906008E+01 -0.23282020963E+02  0.97394851850E+02  0.93374171675E+02 0.  0.
         13    1    3    3    0    0 -0.24279431182E+02 -0.18095073413E+02  0.18814510498E+02  0.35649956937E+02  0.10566000000E+00 0.  1.
         22    1    1    0    0    0 -0.13217441666E+02 -0.70899906008E+01  0.23282020963E+02  0.27695148150E+02  0.00000000000E+00 0. -1.
</event>
<event>
 5    1  0.1264731E-009  0.9118800E+02  0.7815553E-02  0.1125453E+00
         25   -1    0    0    0    0  0.00000000000E+00  0.00000000000E+00  0.99999998245E-14  0.12509000000E+03  0.12509000000E+03 0.  0.
        -13    1    3    3    0    0 -0.29883826654E+02 -0.23416751362E+02 -0.40493886581E+02  0.55508137730E+02  0.10566000000E+00 0.  1.
         23    2    1    0    0    0  0.41757310947E+01 -0.21689775997E+02 -0.19980599625E+02  0.95305650513E+02  0.90532091247E+02 0.  0.
         13    1    3    3    0    0  0.34059557749E+02  0.17269753651E+01  0.20513286955E+02  0.39797512783E+02  0.10566000000E+00 0. -1.
         22    1    1    0    0    0 -0.41757310947E+01  0.21689775997E+02  0.19980599625E+02  0.29784349487E+02  0.00000000000E+00 0.  1.
</event>
<event>
 5    1  0.1264731E-009  0.9118800E+02  0.7815553E-02  0.1125453E+00
         25   -1    0    0    0    0  0.00000000000E+00  0.00000000000E+00  0.99999998245E-14  0.12509000000E+03  0.12509000000E+03 0.  0.
        -13    1    3    3    0    0  0.58334288628E+01  0.13649484388E+01 -0.62196764383E+02  0.62484723255E+02  0.10566000000E+00 0. -1.
         23    2    1    0    0    0  0.87190596581E+00  0.11555677241E+01 -0.29289992276E+02  0.95764256969E+02  0.91163554717E+02 0.  0.
         13    1    3    3    0    0 -0.49615228970E+01 -0.20938071477E+00  0.32906772107E+02  0.33279533714E+02  0.10566000000E+00 0.  1.
         22    1    1    0    0    0 -0.87190596581E+00 -0.11555677241E+01  0.29289992276E+02  0.29325743031E+02  0.00000000000E+00 0. -1.
</event>
<event>
 5    1  0.1264731E-009  0.9118800E+02  0.7815553E-02  0.1125453E+00
         25   -1    0    0    0    0  0.00000000000E+00  0.00000000000E+00  0.99999998245E-14  0.12509000000E+03  0.12509000000E+03 0.  0.
        -13    1    3    3    0    0  0.42577467073E+02 -0.18317347391E+02  0.30076033196E+02  0.55253460114E+02  0.10566000000E+00 0.  1.
         23    2    1    0    0    0  0.24783601385E+01 -0.15244843624E+02  0.24881829794E+02  0.95804287101E+02  0.91218465494E+02 0.  0.
         13    1    3    3    0    0 -0.40099106934E+02  0.30725037673E+01 -0.51942034021E+01  0.40550826987E+02  0.10566000000E+00 0. -1.
         22    1    1    0    0    0 -0.24783601385E+01  0.15244843624E+02 -0.24881829794E+02  0.29285712899E+02  0.00000000000E+00 0.  1.
</event>
<event>
 5    1  0.1264731E-009  0.9118800E+02  0.7815553E-02  0.1125453E+00
         25   -1    0    0    0    0  0.00000000000E+00  0.00000000000E+00  0.99999998245E-14  0.12509000000E+03  0.12509000000E+03 0.  0.
        -13    1    3    3    0    0 -0.79927040346E+00 -0.10689556767E+02  0.48640278179E+02  0.49807562502E+02  0.10566000000E+00 0. -1.
         23    2    1    0    0    0  0.25158426882E+02  0.47106485319E+01  0.13425630677E+02  0.96186986112E+02  0.91741768489E+02 0.  0.
         13    1    3    3    0    0  0.25957697285E+02  0.15400205299E+02 -0.35214647502E+02  0.46379423609E+02  0.10566000000E+00 0.  1.
         22    1    1    0    0    0 -0.25158426882E+02 -0.47106485319E+01 -0.13425630677E+02  0.28903013888E+02  0.00000000000E+00 0.  1.
</event>
<event>
 5    1  0.1264731E-009  0.9118800E+02  0.7815553E-02  0.1125453E+00
         25   -1    0    0    0    0  0.00000000000E+00  0.00000000000E+00  0.99999998245E-14  0.12509000000E+03  0.12509000000E+03 0.  0.
        -13    1    3    3    0    0 -0.22227585864E+02  0.19173627662E+02  0.34456412175E+02  0.45265318678E+02  0.10566000000E+00 0.  1.
         23    2    1    0    0    0  0.22016125407E+02  0.16234485363E+02  0.95904458589E+01  0.96103021118E+02  0.91627210605E+02 0.  0.
         13    1    3    3    0    0  0.44243711271E+02 -0.29391422987E+01 -0.24865966316E+02  0.50837702440E+02  0.10566000000E+00 0. -1.
         22    1    1    0    0    0 -0.22016125407E+02 -0.16234485363E+02 -0.95904458589E+01  0.28986978882E+02  0.00000000000E+00 0. -1.
</event>
<event>
 5    1  0.1264731E-009  0.9118800E+02  0.7815553E-02  0.1125453E+00
         25   -1    0    0    0    0  0.00000000000E+00  0.00000000000E+00  0.99999998245E-14  0.12509000000E+03  0.12509000000E+03 0.  0.
        -13    1    3    3    0    0 -0.44021834546E+02  0.24668697913E+02 -0.32312205603E+01  0.50565981884E+02  0.10566000000E+00 0.  1.
         23    2    1    0    0    0 -0.85250254391E+01  0.79522060558E+01 -0.26469089549E+02  0.96167234893E+02  0.91714833726E+02 0.  0.
         13    1    3    3    0    0  0.35496809107E+02 -0.16716491857E+02 -0.23237868989E+02  0.45601253009E+02  0.10566000000E+00 0. -1.
         22    1    1    0    0    0  0.85250254391E+01 -0.79522060558E+01  0.26469089549E+02  0.28922765107E+02  0.00000000000E+00 0.  1.
</event>
<event>
 5    1  0.1264731E-009  0.9118800E+02  0.7815553E-02  0.1125453E+00
         25   -1    0    0    0    0  0.00000000000E+00  0.00000000000E+00  0.99999998245E-14  0.12509000000E+03  0.12509000000E+03 0.  0.
        -13    1    3    3    0    0  0.29759243110E+02  0.80431520283E+01 -0.24352735101E+02  0.39285769892E+02  0.10566000000E+00 0.  1.
         23    2    1    0    0    0 -0.21867985607E+02 -0.12932180831E+02 -0.14380645752E+02  0.95896626303E+02  0.91345004617E+02 0.  0.
         13    1    3    3    0    0 -0.51627228717E+02 -0.20975332859E+02  0.99720893486E+01  0.56610856411E+02  0.10566000000E+00 0. -1.
         22    1    1    0    0    0  0.21867985607E+02  0.12932180831E+02  0.14380645752E+02  0.29193373697E+02  0.00000000000E+00 0. -1.
</event>
<event>
 5    1  0.1264731E-009  0.9118800E+02  0.7815553E-02  0.1125453E+00
         25   -1    0    0    0    0  0.00000000000E+00  0.00000000000E+00  0.99999998245E-14  0.12509000000E+03  0.12509000000E+03 0.  0.
        -13    1    3    3    0    0 -0.26236217332E+02 -0.42965592451E+02  0.31551253442E+02  0.59412742677E+02  0.10566000000E+00 0. -1.
         23    2    1    0    0    0  0.97639595790E+00 -0.24868195492E+02  0.14757204189E+02  0.96156359172E+02  0.91699999114E+02 0.  0.
         13    1    3    3    0    0  0.27212613290E+02  0.18097396959E+02 -0.16794049252E+02  0.36743616495E+02  0.10566000000E+00 0.  1.
         22    1    1    0    0    0 -0.97639595790E+00  0.24868195492E+02 -0.14757204189E+02  0.28933640828E+02  0.00000000000E+00 0. -1.
</event>
<event>
 5    1  0.1264731E-009  0.9118800E+02  0.7815553E-02  0.1125453E+00
         25   -1    0    0    0    0  0.00000000000E+00  0.00000000000E+00  0.99999998245E-14  0.12509000000E+03  0.12509000000E+03 0.  0.
        -13    1    3    3    0    0 -0.32110316626E+02  0.18487426696E+01  0.19986705760E+02  0.37867794423E+02  0.10566000000E+00 0.  1.
         23    2    1    0    0    0 -0.12856527050E+02 -0.10156170259E+02 -0.28959245269E+02  0.91817248856E+02  0.85576464164E+02 0.  0.
         13    1    3    3    0    0  0.19253789575E+02 -0.12004912928E+02 -0.48945951030E+02  0.53949454433E+02  0.10566000000E+00 0. -1.
         22    1    1    0    0    0  0.12856527050E+02  0.10156170259E+02  0.28959245269E+02  0.33272751144E+02  0.00000000000E+00 0. -1.
</event>
<event>
 5    1  0.1264731E-009  0.9118800E+02  0.7815553E-02  0.1125453E+00
         25   -1    0    0    0    0  0.00000000000E+00  0.00000000000E+00  0.99999998245E-14  0.12509000000E+03  0.12509000000E+03 0.  0.
        -13    1    3    3    0    0  0.17387585451E+02 -0.14565900047E+02  0.26556280716E+02  0.34924787494E+02  0.10566000000E+00 0.  1.
         23    2    1    0    0    0 -0.23051744645E+02  0.19917318716E+01 -0.16811310189E+02  0.96489823824E+02  0.92153762941E+02 0.  0.
         13    1    3    3    0    0 -0.40439330096E+02  0.16557631919E+02 -0.43367590905E+02  0.61565036330E+02  0.10566000000E+00 0. -1.
         22    1    1    0    0    0  0.23051744645E+02 -0.19917318716E+01  0.16811310189E+02  0.28600176176E+02  0.00000000000E+00 0. -1.
</event>
<event>
 5    1  0.1264731E-009  0.9118800E+02  0.7815553E-02  0.1125453E+00
         25   -1    0    0    0    0  0.00000000000E+00  0.00000000000E+00  0.99999998245E-14  0.12509000000E+03  0.12509000000E+03 0.  0.
        -13    1    3    3    0    0 -0.23859596323E+02 -0.42756491473E+02  0.11458605182E+02  0.50286267475E+02  0.10566000000E+00 0.  1.
         23    2    1    0    0    0 -0.12747455542E+02 -0.14279555686E+02 -0.22215353467E+02  0.95765517685E+02  0.91165284591E+02 0.  0.
         13    1    3    3    0    0  0.11112140781E+02  0.28476935788E+02 -0.33673958649E+02  0.45479250211E+02  0.10566000000E+00 0. -1.
         22    1    1    0    0    0  0.12747455542E+02  0.14279555686E+02  0.22215353467E+02  0.29324482315E+02  0.00000000000E+00 0.  1.
</event>
<event>
 5    1  0.1264731E-009  0.9118800E+02  0.7815553E-02  0.1125453E+00
         25   -1    0    0    0    0  0.00000000000E+00  0.00000000000E+00  0.99999998245E-14  0.12509000000E+03  0.12509000000E+03 0.  0.
        -13    1    3    3    0    0 -0.42330715264E+02 -0.17264725470E+01  0.29513530140E+02  0.51632642656E+02  0.10566000000E+00 0.  1.
         23    2    1    0    0    0 -0.12447592326E+02 -0.24181641693E+02  0.24471120895E+01  0.97782808507E+02  0.93892464725E+02 0.  0.
         13    1    3    3    0    0  0.29883122938E+02 -0.22455169146E+02 -0.27066418051E+02  0.46150165851E+02  0.10566000000E+00 0. -1.
         22    1    1    0    0    0  0.12447592326E+02  0.24181641693E+02 -0.24471120895E+01  0.27307191493E+02  0.00000000000E+00 0.  1.
</event>
<event>
 5    1  0.1264731E-009  0.9118800E+02  0.7815553E-02  0.1125453E+00
         25   -1    0    0    0    0  0.00000000000E+00  0.00000000000E+00  0.99999998245E-14  0.12509000000E+03  0.12509000000E+03 0.  0.
        -13    1    3    3    0    0 -0.17231346571E+02  0.22407717097E+01 -0.41987927770E+02  0.45441584534E+02  0.10566000000E+00 0.  1.
         23    2    1    0    0    0  0.13568899038E+01 -0.24991307008E+02  0.15016424405E+01  0.10001687682E+03  0.96823107479E+02 0.  0.
         13    1    3    3    0    0  0.18588236475E+02 -0.27232078717E+02  0.43489570211E+02  0.54575292282E+02  0.10566000000E+00 0. -1.
         22    1    1    0    0    0 -0.13568899038E+01  0.24991307008E+02 -0.15016424405E+01  0.25073123184E+02  0.00000000000E+00 0. -1.
</event>
<event>
 5    1  0.1264731E-009  0.9118800E+02  0.7815553E-02  0.1125453E+00
         25   -1    0    0    0    0  0.00000000000E+00  0.00000000000E+00  0.99999998245E-14  0.12509000000E+03  0.12509000000E+03 0.  0.
        -13    1    3    3    0    0  0.33073870588E+02 -0.10698855772E+02 -0.55856045545E+01  0.35207336917E+02  0.10566000000E+00 0. -1.
         23    2    1    0    0    0 -0.20190534302E+02  0.19807318749E+02 -0.30562735987E+01  0.96641303022E+02  0.92359152714E+02 0.  0.
         13    1    3    3    0    0 -0.53264404890E+02  0.30506174521E+02  0.25293309558E+01  0.61433966105E+02  0.10566000000E+00 0.  1.
         22    1    1    0    0    0  0.20190534302E+02 -0.19807318749E+02  0.30562735987E+01  0.28448696978E+02  0.00000000000E+00 0.  1.
</event>
<event>
 5    1  0.1264731E-009  0.9118800E+02  0.7815553E-02  0.1125453E+00
         25   -1    0    0    0    0  0.00000000000E+00  0.00000000000E+00  0.99999998245E-14  0.12509000000E+03  0.12509000000E+03 0.  0.
        -13    1    3    3    0    0  0.37591022785E+01  0.15924698735E+02  0.52897863621E+02  0.55370768637E+02  0.10566000000E+00 0. -1.
         23    2    1    0    0    0 -0.14154151543E+02 -0.69009628448E+01  0.24466835082E+02  0.95993792119E+02  0.91477969000E+02 0.  0.
         13    1    3    3    0    0 -0.17913253822E+02 -0.22825661580E+02 -0.28431028539E+02  0.40623023482E+02  0.10566000000E+00 0.  1.
         22    1    1    0    0    0  0.14154151543E+02  0.69009628448E+01 -0.24466835082E+02  0.29096207881E+02  0.00000000000E+00 0. -1.
</event>
<event>
 5    1  0.1264731E-009  0.9118800E+02  0.7815553E-02  0.1125453E+00
         25   -1    0    0    0    0  0.00000000000E+00  0.00000000000E+00  0.99999998245E-14  0.12509000000E+03  0.12509000000E+03 0.  0.
        -13    1    3    3    0    0 -0.25860124506E+01 -0.16603927215E+02 -0.40666751730E+02  0.44001974043E+02  0.10566000000E+00 0.  1.
         23    2    1    0    0    0 -0.11357712367E+02 -0.25110394390E+02  0.97332981132E+01  0.95862160039E+02  0.91297793503E+02 0.  0.
         13    1    3    3    0    0 -0.87716999164E+01 -0.85064671756E+01  0.50400049844E+02  0.51860185996E+02  0.10566000000E+00 0. -1.
         22    1    1    0    0    0  0.11357712367E+02  0.25110394390E+02 -0.97332981132E+01  0.29227839961E+02  0.00000000000E+00 0. -1.
</event>
<event>
 5    1  0.1264731E-009  0.9118800E+02  0.7815553E-02  0.1125453E+00
         25   -1    0    0    0    0  0.00000000000E+00  0.00000000000E+00  0.99999998245E-14  0.12509000000E+03  0.12509000000E+03 0.  0.
        -13    1    3    3    0    0  0.52389715190E+02 -0.24744457371E+01  0.32788574631E+02  0.61853916042E+02  0.10566000000E+00 0. -1.
         23    2    1    0    0    0  0.29082506613E+02  0.10184864327E+01  0.10909217947E+02  0.94012024813E+02  0.88726660412E+02 0.  0.
         13    1    3    3    0    0 -0.23307208577E+02  0.34929321699E+01 -0.21879356684E+02  0.32158108771E+02  0.10566000000E+00 0.  1.
         22    1    1    0    0    0 -0.29082506613E+02 -0.10184864327E+01 -0.10909217947E+02  0.31077975187E+02  0.00000000000E+00 0. -1.
</event>
<event>
 5    1  0.1264731E-009  0.9118800E+02  0.7815553E-02  0.1125453E+00
         25   -1    0    0    0    0  0.00000000000E+00  0.00000000000E+00  0.99999998245E-14  0.12509000000E+03  0.12509000000E+03 0.  0.
        -13    1    3    3    0    0  0.24768867177E+02 -0.49806767140E+02  0.14599938740E+02  0.57509827068E+02  0.10566000000E+00 0.  1.
         23    2    1    0    0    0  0.24145988317E+02 -0.11974388436E+02  0.12430162434E+02  0.95409641708E+02  0.90675664114E+02 0.  0.
         13    1    3    3    0    0 -0.62287885977E+00  0.37832378704E+02 -0.21697763061E+01  0.37899814640E+02  0.10566000000E+00 0. -1.
         22    1    1    0    0    0 -0.24145988317E+02  0.11974388436E+02 -0.12430162434E+02  0.29680358292E+02  0.00000000000E+00 0.  1.
</event>
<event>
 5    1  0.1264731E-009  0.9118800E+02  0.7815553E-02  0.1125453E+00
         25   -1    0    0    0    0  0.00000000000E+00  0.00000000000E+00  0.99999998245E-14  0.12509000000E+03  0.12509000000E+03 0.  0.
        -13    1    3    3    0    0  0.26950409052E+01 -0.10100101112E+02 -0.53163347494E+02  0.54181435646E+02  0.10566000000E+00 0.  1.
         23    2    1    0    0    0  0.10371628208E+02 -0.25917228245E+02 -0.23800400846E+02  0.88405773525E+02  0.80435367349E+02 0.  0.
         13    1    3    3    0    0  0.76765873031E+01 -0.15817127133E+02  0.29362946648E+02  0.34224337879E+02  0.10566000000E+00 0. -1.
         22    1    1    0    0    0 -0.10371628208E+02  0.25917228245E+02  0.23800400846E+02  0.36684226475E+02  0.00000000000E+00 0.  1.
</event>
<event>
 5    1  0.1264731E-009  0.9118800E+02  0.7815553E-02  0.1125453E+00
         25   -1    0    0    0    0  0.00000000000E+00  0.00000000000E+00  0.99999998245E-14  0.12509000000E+03  0.12509000000E+03 0.  0.
        -13    1    3    3    0    0 -0.29197908031E+02  0.27450293394E+02  0.32697451051E+02  0.51722054388E+02  0.10566000000E+00 0. -1.
         23    2    1    0    0    0  0.56859229397E+01  0.88526069197E+00  0.28775800362E+02  0.95744470653E+02  0.91136400895E+02 0.  0.
         13    1    3    3    0    0  0.34883830971E+02 -0.26565032702E+02 -0.39216506888E+01  0.44022416266E+02  0.10566000000E+00 0.  1.
         22    1    1    0    0    0 -0.56859229397E+01 -0.88526069197E+00 -0.28775800362E+02  0.29345529347E+02  0.00000000000E+00 0. -1.
</event>
<event>
 5    1  0.1264731E-009  0.9118800E+02  0.7815553E-02  0.1125453E+00
         25   -1    0    0    0    0  0.00000000000E+00  0.00000000000E+00  0.99999998245E-14  0.12509000000E+03  0.12509000000E+03 0.  0.
        -13    1    3    3    0    0 -0.52980286717E+01  0.37331307773E+02  0.38156966210E+02  0.53643833590E+02  0.10566000000E+00 0. -1.
         23    2    1    0    0    0  0.20434848850E+02  0.17779885489E+02  0.11008898313E+02  0.95851271957E+02  0.91282874178E+02 0.  0.
         13    1    3    3    0    0  0.25732877522E+02 -0.19551422284E+02 -0.27148067897E+02  0.42207438367E+02  0.10566000000E+00 0.  1.
         22    1    1    0    0    0 -0.20434848850E+02 -0.17779885489E+02 -0.11008898313E+02  0.29238728043E+02  0.00000000000E+00 0. -1.
</event>
<event>
 5    1  0.1264731E-009  0.9118800E+02  0.7815553E-02  0.1125453E+00
         25   -1    0    0    0    0  0.00000000000E+00  0.00000000000E+00  0.99999998245E-14  0.12509000000E+03  0.12509000000E+03 0.  0.
        -13    1    3    3    0    0 -0.99720666784E+01  0.32821441290E+02 -0.32790749853E+02  0.47454542060E+02  0.10566000000E+00 0.  1.
         23    2    1    0    0    0 -0.28153823452E+02 -0.43110465866E+01 -0.86867734148E+01  0.95312778336E+02  0.90541939366E+02 0.  0.
         13    1    3    3    0    0 -0.18181756774E+02 -0.37132487877E+02  0.24103976438E+02  0.47858236276E+02  0.10566000000E+00 0. -1.
         22    1    1    0    0    0  0.28153823452E+02  0.43110465866E+01  0.86867734148E+01  0.29777221664E+02  0.00000000000E+00 0. -1.
</event>
<event>
 5    1  0.1264731E-009  0.9118800E+02  0.7815553E-02  0.1125453E+00
         25   -1    0    0    0    0  0.00000000000E+00  0.00000000000E+00  0.99999998245E-14  0.12509000000E+03  0.12509000000E+03 0.  0.
        -13    1    3    3    0    0 -0.15636091488E+02  0.56262466261E+00  0.27946853627E+02  0.32028763560E+02  0.10566000000E+00 0. -1.
         23    2    1    0    0    0  0.28990819019E+02 -0.71899219074E+01 -0.12458379306E+02  0.92726845343E+02  0.86895880616E+02 0.  0.
         13    1    3    3    0    0  0.44626910507E+02 -0.77525465700E+01 -0.40405232933E+02  0.60698081783E+02  0.10566000000E+00 0.  1.
         22    1    1    0    0    0 -0.28990819019E+02  0.71899219074E+01  0.12458379306E+02  0.32363154657E+02  0.00000000000E+00 0.  1.
</event>
<event>
 5    1  0.1264731E-009  0.9118800E+02  0.7815553E-02  0.1125453E+00
         25   -1    0    0    0    0  0.00000000000E+00  0.00000000000E+00  0.99999998245E-14  0.12509000000E+03  0.12509000000E+03 0.  0.
        -13    1    3    3    0    0  0.39442070900E+02 -0.33190752373E+01 -0.98909074505E+01  0.40798706249E+02  0.10566000000E+00 0.  1.
         23    2    1    0    0    0 -0.52344348527E+01  0.78473265375E+01 -0.31889760352E+02  0.91834374050E+02  0.85601492976E+02 0.  0.
         13    1    3    3    0    0 -0.44676505753E+02  0.11166401775E+02 -0.21998852902E+02  0.51035667801E+02  0.10566000000E+00 0. -1.
         22    1    1    0    0    0  0.52344348527E+01 -0.78473265375E+01  0.31889760352E+02  0.33255625950E+02  0.00000000000E+00 0. -1.
</event>
<event>
 5    1  0.1264731E-009  0.9118800E+02  0.7815553E-02  0.1125453E+00
         25   -1    0    0    0    0  0.00000000000E+00  0.00000000000E+00  0.99999998245E-14  0.12509000000E+03  0.12509000000E+03 0.  0.
        -13    1    3    3    0    0 -0.16474680251E+02  0.45411151669E+02  0.12473419525E+02  0.49891734225E+02  0.10566000000E+00 0. -1.
         23    2    1    0    0    0  0.15335721304E+02  0.14658504968E+02  0.21320853183E+02  0.95012850928E+02  0.90126616187E+02 0.  0.
         13    1    3    3    0    0  0.31810401556E+02 -0.30752646701E+02  0.88474336585E+01  0.45121116704E+02  0.10566000000E+00 0.  1.
         22    1    1    0    0    0 -0.15335721304E+02 -0.14658504968E+02 -0.21320853183E+02  0.30077149072E+02  0.00000000000E+00 0. -1.
</event>
<event>
 5    1  0.1264731E-009  0.9118800E+02  0.7815553E-02  0.1125453E+00
         25   -1    0    0    0    0  0.00000000000E+00  0.00000000000E+00  0.99999998245E-14  0.12509000000E+03  0.12509000000E+03 0.  0.
        -13    1    3    3    0    0  0.36123869367E+02  0.76318591856E+01 -0.28054024192E+01  0.37027836279E+02  0.10566000000E+00 0.  1.
         23    2    1    0    0    0 -0.10178131969E+02 -0.27868091936E+02 -0.13392576374E+01  0.95391203230E+02  0.90650224071E+02 0.  0.
         13    1    3    3    0    0 -0.46302001336E+02 -0.35499951122E+02  0.14661447818E+01  0.58363366952E+02  0.10566000000E+00 0. -1.
         22    1    1    0    0    0  0.10178131969E+02  0.27868091936E+02  0.13392576374E+01  0.29698796770E+02  0.00000000000E+00 0. -1.
</event>
<event>
 5    1  0.1264731E-009  0.9118800E+02  0.7815553E-02  0.1125453E+00
         25   -1    0    0    0    0  0.00000000000E+00  0.00000000000E+00  0.99999998245E-14  0.12509000000E+03  0.12509000000E+03 0.  0.
        -13    1    3    3    0    0 -0.37952517247E+02 -0.67576714559E+01  0.18296475205E+02  0.42671206426E+02  0.10566000000E+00 0.  1.
         23    2    1    0    0    0 -0.65487563644E+00 -0.24738273216E+02 -0.15302510794E+02  0.95993988926E+02  0.91478238120E+02 0.  0.
         13    1    3    3    0    0  0.37297641611E+02 -0.17980601760E+02 -0.33598985999E+02  0.53322782500E+02  0.10566000000E+00 0. -1.
         22    1    1    0    0    0  0.65487563644E+00  0.24738273216E+02  0.15302510794E+02  0.29096011074E+02  0.00000000000E+00 0.  1.
</event>
<event>
 5    1  0.1264731E-009  0.9118800E+02  0.7815553E-02  0.1125453E+00
         25   -1    0    0    0    0  0.00000000000E+00  0.00000000000E+00  0.99999998245E-14  0.12509000000E+03  0.12509000000E+03 0.  0.
        -13    1    3    3    0    0 -0.95224843623E+00  0.29087711857E+02 -0.27171209787E+02  0.39815669824E+02  0.10566000000E+00 0.  1.
         23    2    1    0    0    0  0.16766193164E+02  0.12548666262E+02  0.22049198030E+02  0.94680439136E+02  0.89664062829E+02 0.  0.
         13    1    3    3    0    0  0.17718441601E+02 -0.16539045595E+02  0.49220407817E+02  0.54864769312E+02  0.10566000000E+00 0. -1.
         22    1    1    0    0    0 -0.16766193164E+02 -0.12548666262E+02 -0.22049198030E+02  0.30409560864E+02  0.00000000000E+00 0. -1.
</event>
<event>
 5    1  0.1264731E-009  0.9118800E+02  0.7815553E-02  0.1125453E+00
         25   -1    0    0    0    0  0.00000000000E+00  0.00000000000E+00  0.99999998245E-14  0.12509000000E+03  0.12509000000E+03 0.  0.
        -13    1    3    3    0    0 -0.58021242652E+02  0.95494993631E+01  0.12834699473E+02  0.60186362338E+02  0.10566000000E+00 0.  1.
         23    2    1    0    0    0 -0.24793203154E+02  0.15906539645E+02  0.26654382447E+01  0.95512551037E+02  0.90817519887E+02 0.  0.
         13    1    3    3    0    0  0.33228039497E+02  0.63570402823E+01 -0.10169261228E+02  0.35326188698E+02  0.10566000000E+00 0. -1.
         22    1    1    0    0    0  0.24793203154E+02 -0.15906539645E+02 -0.26654382447E+01  0.29577448963E+02  0.00000000000E+00 0.  1.
</event>
<event>
 5    1  0.1264731E-009  0.9118800E+02  0.7815553E-02  0.1125453E+00
         25   -1    0    0    0    0  0.00000000000E+00  0.00000000000E+00  0.99999998245E-14  0.12509000000E+03  0.12509000000E+03 0.  0.
        -13    1    3    3    0    0 -0.31540473028E+02  0.59285262788E+01  0.48069089580E+02  0.57797901344E+02  0.10566000000E+00 0.  1.
         23    2    1    0    0    0 -0.18447565452E+02 -0.13640194856E+02  0.18362073489E+02  0.95704062383E+02  0.91080921312E+02 0.  0.
         13    1    3    3    0    0  0.13092907576E+02 -0.19568721135E+02 -0.29707016091E+02  0.37906161039E+02  0.10566000000E+00 0. -1.
         22    1    1    0    0    0  0.18447565452E+02  0.13640194856E+02 -0.18362073489E+02  0.29385937617E+02  0.00000000000E+00 0.  1.
</event>
<event>
 5    1  0.1264731E-009  0.9118800E+02  0.7815553E-02  0.1125453E+00
         25   -1    0    0    0    0  0.00000000000E+00  0.00000000000E+00  0.99999998245E-14  0.12509000000E+03  0.12509000000E+03 0.  0.
        -13    1    3    3    0    0  0.39317371718E+01 -0.43452419062E+02 -0.10597786150E+02  0.44898725091E+02  0.10566000000E+00 0.  1.
         23    2    1    0    0    0 -0.28110737658E+02 -0.40162135081E+01 -0.59029926278E+00  0.96687676225E+02  0.92421938618E+02 0.  0.
         13    1    3    3    0    0 -0.32042474830E+02  0.39436205554E+02  0.10007486888E+02  0.51788951134E+02  0.10566000000E+00 0. -1.
         22    1    1    0    0    0  0.28110737658E+02  0.40162135081E+01  0.59029926278E+00  0.28402323775E+02  0.00000000000E+00 0. -1.
</event>
<event>
 5    1  0.1264731E-009  0.9118800E+02  0.7815553E-02  0.1125453E+00
         25   -1    0    0    0    0  0.00000000000E+00  0.00000000000E+00  0.99999998245E-14  0.12509000000E+03  0.12509000000E+03 0.  0.
        -13    1    3    3    0    0 -0.21855310747E+02 -0.39949000633E+02  0.40988056209E+02  0.61266705275E+02  0.10566000000E+00 0. -1.
         23    2    1    0    0    0 -0.90602917992E+01 -0.12505083943E+02  0.25501503798E+02  0.95277373349E+02  0.90493011688E+02 0.  0.
         13    1    3    3    0    0  0.12795018948E+02  0.27443916691E+02 -0.15486552411E+02  0.34010668074E+02  0.10566000000E+00 0.  1.
         22    1    1    0    0    0  0.90602917992E+01  0.12505083943E+02 -0.25501503798E+02  0.29812626651E+02  0.00000000000E+00 0. -1.
</event>
<event>
 5    1  0.1264731E-009  0.9118800E+02  0.7815553E-02  0.1125453E+00
         25   -1    0    0    0    0  0.00000000000E+00  0.00000000000E+00  0.99999998245E-14  0.12509000000E+03  0.12509000000E+03 0.  0.
        -13    1    3    3    0    0  0.26879023895E+02  0.25400939087E+02  0.41741258672E+02  0.55767674074E+02  0.10566000000E+00 0.  1.
         23    2    1    0    0    0  0.27578403284E+02  0.34074620670E+01  0.77824140000E+01  0.96232676959E+02  0.91804046869E+02 0.  0.
         13    1    3    3    0    0  0.69937938873E+00 -0.21993477020E+02 -0.33958844672E+02  0.40465002885E+02  0.10566000000E+00 0. -1.
         22    1    1    0    0    0 -0.27578403284E+02 -0.34074620670E+01 -0.77824140000E+01  0.28857323041E+02  0.00000000000E+00 0.  1.
</event>
<event>
 5    1  0.1264731E-009  0.9118800E+02  0.7815553E-02  0.1125453E+00
         25   -1    0    0    0    0  0.00000000000E+00  0.00000000000E+00  0.99999998245E-14  0.12509000000E+03  0.12509000000E+03 0.  0.
        -13    1    3    3    0    0 -0.20514063793E+02 -0.13300544783E+02 -0.43656076465E+02  0.50035941894E+02  0.10566000000E+00 0.  1.
         23    2    1    0    0    0 -0.19238846762E+02 -0.22986169739E+02  0.34953896849E+00  0.95113018806E+02  0.90265535754E+02 0.  0.
         13    1    3    3    0    0  0.12752170308E+01 -0.96856249561E+01  0.44005615434E+02  0.45077076913E+02  0.10566000000E+00 0. -1.
         22    1    1    0    0    0  0.19238846762E+02  0.22986169739E+02 -0.34953896849E+00  0.29976981194E+02  0.00000000000E+00 0.  1.
</event>
<event>
 5    1  0.1264731E-009  0.9118800E+02  0.7815553E-02  0.1125453E+00
         25   -1    0    0    0    0  0.00000000000E+00  0.00000000000E+00  0.99999998245E-14  0.12509000000E+03  0.12509000000E+03 0.  0.
        -13    1    3    3    0    0 -0.17944927401E+01 -0.50560423216E+01 -0.31416440267E+02  0.31871423741E+02  0.10566000000E+00 0.  1.
         23    2    1    0    0    0  0.80314272409E+01 -0.15890331475E+02  0.27363510436E+02  0.92443895159E+02  0.86487603683E+02 0.  0.
         13    1    3    3    0    0  0.98259199810E+01 -0.10834289153E+02  0.58779950704E+02  0.60572471418E+02  0.10566000000E+00 0. -1.
         22    1    1    0    0    0 -0.80314272409E+01  0.15890331475E+02 -0.27363510436E+02  0.32646104841E+02  0.00000000000E+00 0. -1.
</event>
<event>
 5    1  0.1264731E-009  0.9118800E+02  0.7815553E-02  0.1125453E+00
         25   -1    0    0    0    0  0.00000000000E+00  0.00000000000E+00  0.99999998245E-14  0.12509000000E+03  0.12509000000E+03 0.  0.
        -13    1    3    3    0    0  0.60768362786E+02 -0.10603803157E+02 -0.25261801205E+01  0.61738377912E+02  0.10566000000E+00 0.  1.
         23    2    1    0    0    0  0.28428175204E+02 -0.38297514754E+00  0.43011715683E+01  0.96335732625E+02  0.91944360829E+02 0.  0.
         13    1    3    3    0    0 -0.32340187583E+02  0.10220828009E+02  0.68273516888E+01  0.34597354714E+02  0.10566000000E+00 0. -1.
         22    1    1    0    0    0 -0.28428175204E+02  0.38297514754E+00 -0.43011715683E+01  0.28754267375E+02  0.00000000000E+00 0.  1.
</event>
<event>
 5    1  0.1264731E-009  0.9118800E+02  0.7815553E-02  0.1125453E+00
         25   -1    0    0    0    0  0.00000000000E+00  0.00000000000E+00  0.99999998245E-14  0.12509000000E+03  0.12509000000E+03 0.  0.
        -13    1    3    3    0    0  0.74190465017E+01 -0.13145445672E+02 -0.32966450160E+02  0.36258005917E+02  0.10566000000E+00 0.  1.
         23    2    1    0    0    0  0.47761328888E+01  0.25915107652E+02  0.12217853961E+02  0.96043826321E+02  0.91546361855E+02 0.  0.
         13    1    3    3    0    0 -0.26429136129E+01  0.39060553324E+02  0.45184304122E+02  0.59785820403E+02  0.10566000000E+00 0. -1.
         22    1    1    0    0    0 -0.47761328888E+01 -0.25915107652E+02 -0.12217853961E+02  0.29046173679E+02  0.00000000000E+00 0. -1.
</event>
<event>
 5    1  0.1264731E-009  0.9118800E+02  0.7815553E-02  0.1125453E+00
         25   -1    0    0    0    0  0.00000000000E+00  0.00000000000E+00  0.99999998245E-14  0.12509000000E+03  0.12509000000E+03 0.  0.
        -13    1    3    3    0    0  0.31854355086E+02  0.94205129520E+01 -0.16004719297E+02  0.36872865444E+02  0.10566000000E+00 0.  1.
         23    2    1    0    0    0 -0.15686510746E+02  0.13345960051E+02  0.19801930463E+02  0.96519075634E+02  0.92193460951E+02 0.  0.
         13    1    3    3    0    0 -0.47540865832E+02  0.39254470991E+01  0.35806649760E+02  0.59646210190E+02  0.10566000000E+00 0. -1.
         22    1    1    0    0    0  0.15686510746E+02 -0.13345960051E+02 -0.19801930463E+02  0.28570924366E+02  0.00000000000E+00 0. -1.
</event>
<event>
 5    1  0.1264731E-009  0.9118800E+02  0.7815553E-02  0.1125453E+00
         25   -1    0    0    0    0  0.00000000000E+00  0.00000000000E+00  0.99999998245E-14  0.12509000000E+03  0.12509000000E+03 0.  0.
        -13    1    3    3    0    0  0.25174797058E+01 -0.32755335032E+02 -0.41627470382E+02  0.53029304460E+02  0.10566000000E+00 0.  1.
         23    2    1    0    0    0  0.10061869322E+02 -0.27645660984E+02  0.28360974653E-01  0.95670200717E+02  0.91034404021E+02 0.  0.
         13    1    3    3    0    0  0.75443896161E+01  0.51096740477E+01  0.41655831357E+02  0.42640896257E+02  0.10566000000E+00 0. -1.
         22    1    1    0    0    0 -0.10061869322E+02  0.27645660984E+02 -0.28360974653E-01  0.29419799283E+02  0.00000000000E+00 0.  1.
</event>
<event>
 5    1  0.1264731E-009  0.9118800E+02  0.7815553E-02  0.1125453E+00
         25   -1    0    0    0    0  0.00000000000E+00  0.00000000000E+00  0.99999998245E-14  0.12509000000E+03  0.12509000000E+03 0.  0.
        -13    1    3    3    0    0 -0.33896382887E+02  0.23763233283E+02 -0.39569308706E+02  0.57266022949E+02  0.10566000000E+00 0.  1.
         23    2    1    0    0    0  0.23808480294E+00  0.19770145635E+02 -0.20666749620E+02  0.96488778301E+02  0.92152343733E+02 0.  0.
         13    1    3    3    0    0  0.34134467690E+02 -0.39930876473E+01  0.18902559086E+02  0.39222755353E+02  0.10566000000E+00 0. -1.
         22    1    1    0    0    0 -0.23808480294E+00 -0.19770145635E+02  0.20666749620E+02  0.28601221699E+02  0.00000000000E+00 0.  1.
</event>
<event>
 5    1  0.1264731E-009  0.9118800E+02  0.7815553E-02  0.1125453E+00
         25   -1    0    0    0    0  0.00000000000E+00  0.00000000000E+00  0.99999998245E-14  0.12509000000E+03  0.12509000000E+03 0.  0.
        -13    1    3    3    0    0 -0.99839067294E+01 -0.50752249218E+02  0.14570916347E+01  0.51745564779E+02  0.10566000000E+00 0.  1.
         23    2    1    0    0    0  0.20852215524E+02 -0.24476437338E+02  0.55328098399E+01  0.92462973446E+02  0.86515192866E+02 0.  0.
         13    1    3    3    0    0  0.30836122254E+02  0.26275811880E+02  0.40757182052E+01  0.40717408666E+02  0.10566000000E+00 0. -1.
         22    1    1    0    0    0 -0.20852215524E+02  0.24476437338E+02 -0.55328098399E+01  0.32627026554E+02  0.00000000000E+00 0. -1.
</event>
<event>
 5    1  0.1264731E-009  0.9118800E+02  0.7815553E-02  0.1125453E+00
         25   -1    0    0    0    0  0.00000000000E+00  0.00000000000E+00  0.99999998245E-14  0.12509000000E+03  0.12509000000E+03 0.  0.
        -13    1    3    3    0    0 -0.11624699419E+02 -0.50768335481E+01  0.35138061648E+02  0.37357762458E+02  0.10566000000E+00 0.  1.
         23    2    1    0    0    0  0.27992889038E+02 -0.12732673142E+02 -0.46053644897E+01  0.93994466814E+02  0.88701903066E+02 0.  0.
         13    1    3    3    0    0  0.39617588457E+02 -0.76558395941E+01 -0.39743426138E+02  0.56636704356E+02  0.10566000000E+00 0. -1.
         22    1    1    0    0    0 -0.27992889038E+02  0.12732673142E+02  0.46053644897E+01  0.31095533186E+02  0.00000000000E+00 0. -1.
</event>
<event>
 5    1  0.1264731E-009  0.9118800E+02  0.7815553E-02  0.1125453E+00
         25   -1    0    0    0    0  0.00000000000E+00  0.00000000000E+00  0.99999998245E-14  0.12509000000E+03  0.12509000000E+03 0.  0.
        -13    1    3    3    0    0 -0.47213264822E+01  0.27032212810E+02 -0.48590364979E+02  0.55803818740E+02  0.10566000000E+00 0.  1.
         23    2    1    0    0    0 -0.57496256684E+00  0.26785958166E+02 -0.72748111510E+01  0.97327777212E+02  0.93284270930E+02 0.  0.
         13    1    3    3    0    0  0.41463639154E+01 -0.24625464325E+00  0.41315553828E+02  0.41523958472E+02  0.10566000000E+00 0. -1.
         22    1    1    0    0    0  0.57496256684E+00 -0.26785958166E+02  0.72748111510E+01  0.27762222788E+02  0.00000000000E+00 0.  1.
</event>
<event>
 5    1  0.1264731E-009  0.9118800E+02  0.7815553E-02  0.1125453E+00
         25   -1    0    0    0    0  0.00000000000E+00  0.00000000000E+00  0.99999998245E-14  0.12509000000E+03  0.12509000000E+03 0.  0.
        -13    1    3    3    0    0  0.59003657566E+00  0.34431941772E+02 -0.16783727845E+02  0.38309417142E+02  0.10566000000E+00 0.  1.
         23    2    1    0    0    0 -0.19438772512E+02 -0.19055544734E+02 -0.11052379005E+02  0.95710845084E+02  0.91090236157E+02 0.  0.
         13    1    3    3    0    0 -0.20028809088E+02 -0.53487486506E+02  0.57313488405E+01  0.57401427942E+02  0.10566000000E+00 0. -1.
         22    1    1    0    0    0  0.19438772512E+02  0.19055544734E+02  0.11052379005E+02  0.29379154916E+02  0.00000000000E+00 0. -1.
</event>
<event>
 5    1  0.1264731E-009  0.9118800E+02  0.7815553E-02  0.1125453E+00
         25   -1    0    0    0    0  0.00000000000E+00  0.00000000000E+00  0.99999998245E-14  0.12509000000E+03  0.12509000000E+03 0.  0.
        -13    1    3    3    0    0  0.25430313131E+02  0.14169571018E+02  0.30956744222E+02  0.42494808455E+02  0.10566000000E+00 0.  1.
         23    2    1    0    0    0  0.33349612943E+02 -0.39023867241E+01 -0.11731388850E+02  0.89522447513E+02  0.82153623285E+02 0.  0.
         13    1    3    3    0    0  0.79192998116E+01 -0.18071957742E+02 -0.42688133072E+02  0.47027639058E+02  0.10566000000E+00 0. -1.
         22    1    1    0    0    0 -0.33349612943E+02  0.39023867241E+01  0.11731388850E+02  0.35567552487E+02  0.00000000000E+00 0.  1.
</event>
<event>
 5    1  0.1264731E-009  0.9118800E+02  0.7815553E-02  0.1125453E+00
         25   -1    0    0    0    0  0.00000000000E+00  0.00000000000E+00  0.99999998245E-14  0.12509000000E+03  0.12509000000E+03 0.  0.
        -13    1    3    3    0    0 -0.17261841734E+02 -0.30477557250E+02  0.14926087834E+02  0.38074294978E+02  0.10566000000E+00 0.  1.
         23    2    1    0    0    0 -0.44213712220E+01  0.26280307988E+02  0.10540347282E+02  0.96431632422E+02  0.92074739746E+02 0.  0.
         13    1    3    3    0    0  0.12840470512E+02  0.56757865238E+02 -0.43857405524E+01  0.58357337444E+02  0.10566000000E+00 0. -1.
         22    1    1    0    0    0  0.44213712220E+01 -0.26280307988E+02 -0.10540347282E+02  0.28658367578E+02  0.00000000000E+00 0. -1.
</event>
<event>
 5    1  0.1264731E-009  0.9118800E+02  0.7815553E-02  0.1125453E+00
         25   -1    0    0    0    0  0.00000000000E+00  0.00000000000E+00  0.99999998245E-14  0.12509000000E+03  0.12509000000E+03 0.  0.
        -13    1    3    3    0    0 -0.58258724823E+02  0.77394047489E+01  0.11329843623E+02  0.59852768728E+02  0.10566000000E+00 0.  1.
         23    2    1    0    0    0 -0.22201346095E+02  0.11202294708E+02  0.14649963397E+02  0.96228042293E+02  0.91797731567E+02 0.  0.
         13    1    3    3    0    0  0.36057378728E+02  0.34628899589E+01  0.33201197740E+01  0.36375273565E+02  0.10566000000E+00 0. -1.
         22    1    1    0    0    0  0.22201346095E+02 -0.11202294708E+02 -0.14649963397E+02  0.28861957707E+02  0.00000000000E+00 0.  1.
</event>
<event>
 5    1  0.1264731E-009  0.9118800E+02  0.7815553E-02  0.1125453E+00
         25   -1    0    0    0    0  0.00000000000E+00  0.00000000000E+00  0.99999998245E-14  0.12509000000E+03  0.12509000000E+03 0.  0.
        -13    1    3    3    0    0 -0.48809381412E+02 -0.30758491218E+02 -0.12900818568E+02  0.59117533606E+02  0.10566000000E+00 0. -1.
         23    2    1    0    0    0 -0.16290245260E+02 -0.25278660929E+02  0.12221778815E+01  0.94992217560E+02  0.90097973835E+02 0.  0.
         13    1    3    3    0    0  0.32519136152E+02  0.54798302891E+01  0.14122996450E+02  0.35874683955E+02  0.10566000000E+00 0.  1.
         22    1    1    0    0    0  0.16290245260E+02  0.25278660929E+02 -0.12221778815E+01  0.30097782440E+02  0.00000000000E+00 0. -1.
</event>
<event>
 5    1  0.1264731E-009  0.9118800E+02  0.7815553E-02  0.1125453E+00
         25   -1    0    0    0    0  0.00000000000E+00  0.00000000000E+00  0.99999998245E-14  0.12509000000E+03  0.12509000000E+03 0.  0.
        -13    1    3    3    0    0 -0.34265058304E+02  0.10911841077E+02  0.20048175587E+01  0.36016564991E+02  0.10566000000E+00 0.  1.
         23    2    1    0    0    0  0.24537832644E+02  0.12380109104E+02  0.10932311079E+02  0.95511498385E+02  0.90816069976E+02 0.  0.
         13    1    3    3    0    0  0.58802890948E+02  0.14682680274E+01  0.89274935201E+01  0.59494933393E+02  0.10566000000E+00 0. -1.
         22    1    1    0    0    0 -0.24537832644E+02 -0.12380109104E+02 -0.10932311079E+02  0.29578501615E+02  0.00000000000E+00 0. -1.
</event>
<event>
 5    1  0.1264731E-009  0.9118800E+02  0.7815553E-02  0.1125453E+00
         25   -1    0    0    0    0  0.00000000000E+00  0.00000000000E+00  0.99999998245E-14  0.12509000000E+03  0.12509000000E+03 0.  0.
        -13    1    3    3    0    0  0.29641362783E+02 -0.12419103313E+02 -0.13694358036E+02  0.34934096822E+02  0.10566000000E+00 0.  1.
         23    2    1    0    0    0 -0.24188671925E+02  0.15212985428E+02 -0.33610663767E+01  0.96318077187E+02  0.91920337525E+02 0.  0.
         13    1    3    3    0    0 -0.53830034708E+02  0.27632088742E+02  0.10333291660E+02  0.61383980365E+02  0.10566000000E+00 0. -1.
         22    1    1    0    0    0  0.24188671925E+02 -0.15212985428E+02  0.33610663767E+01  0.28771922813E+02  0.00000000000E+00 0. -1.
</event>
<event>
 5    1  0.1264731E-009  0.9118800E+02  0.7815553E-02  0.1125453E+00
         25   -1    0    0    0    0  0.00000000000E+00  0.00000000000E+00  0.99999998245E-14  0.12509000000E+03  0.12509000000E+03 0.  0.
        -13    1    3    3    0    0 -0.34905377327E+01 -0.39031917892E+02  0.16658768376E+02  0.42581688504E+02  0.10566000000E+00 0.  1.
         23    2    1    0    0    0  0.80939600332E+01  0.10987932845E+02  0.26890023738E+02  0.94935062861E+02  0.90018586562E+02 0.  0.
         13    1    3    3    0    0  0.11584497766E+02  0.50019850737E+02  0.10231255362E+02  0.52353374357E+02  0.10566000000E+00 0. -1.
         22    1    1    0    0    0 -0.80939600332E+01 -0.10987932845E+02 -0.26890023738E+02  0.30154937139E+02  0.00000000000E+00 0. -1.
</event>
<event>
 5    1  0.1264731E-009  0.9118800E+02  0.7815553E-02  0.1125453E+00
         25   -1    0    0    0    0  0.00000000000E+00  0.00000000000E+00  0.99999998245E-14  0.12509000000E+03  0.12509000000E+03 0.  0.
        -13    1    3    3    0    0  0.21746399025E+02 -0.84437058453E+00  0.33626318830E+02  0.40054454364E+02  0.10566000000E+00 0.  1.
         23    2    1    0    0    0  0.63117015207E+01  0.26571665039E+02 -0.11821770957E+02  0.95330207870E+02  0.90566016281E+02 0.  0.
         13    1    3    3    0    0 -0.15434697505E+02  0.27416035624E+02 -0.45448089787E+02  0.55275753507E+02  0.10566000000E+00 0. -1.
         22    1    1    0    0    0 -0.63117015207E+01 -0.26571665039E+02  0.11821770957E+02  0.29759792130E+02  0.00000000000E+00 0. -1.
</event>
<event>
 5    1  0.1264731E-009  0.9118800E+02  0.7815553E-02  0.1125453E+00
         25   -1    0    0    0    0  0.00000000000E+00  0.00000000000E+00  0.99999998245E-14  0.12509000000E+03  0.12509000000E+03 0.  0.
        -13    1    3    3    0    0 -0.69113484953E+01  0.22510649136E+02  0.47416436839E+02  0.52941719929E+02  0.10566000000E+00 0.  1.
         23    2    1    0    0    0 -0.20311183550E+02 -0.73379547967E+01  0.20579706668E+02  0.95258572205E+02  0.90467018820E+02 0.  0.
         13    1    3    3    0    0 -0.13399835054E+02 -0.29848603932E+02 -0.26836730171E+02  0.42316852276E+02  0.10566000000E+00 0. -1.
         22    1    1    0    0    0  0.20311183550E+02  0.73379547967E+01 -0.20579706668E+02  0.29831427795E+02  0.00000000000E+00 0.  1.
</event>
<event>
 5    1  0.1264731E-009  0.9118800E+02  0.7815553E-02  0.1125453E+00
         25   -1    0    0    0    0  0.00000000000E+00  0.00000000000E+00  0.99999998245E-14  0.12509000000E+03  0.12509000000E+03 0.  0.
        -13    1    3    3    0    0  0.13211983431E+02  0.20207619902E+02  0.23193633881E+02  0.33479250662E+02  0.10566000000E+00 0.  1.
         23    2    1    0    0    0 -0.23046753010E+02 -0.52897366872E+01 -0.19060461502E+02  0.94718379509E+02  0.89716977689E+02 0.  0.
         13    1    3    3    0    0 -0.36258736441E+02 -0.25497356589E+02 -0.42254095383E+02  0.61239128847E+02  0.10566000000E+00 0. -1.
         22    1    1    0    0    0  0.23046753010E+02  0.52897366872E+01  0.19060461502E+02  0.30371620491E+02  0.00000000000E+00 0. -1.
</event>
<event>
 5    1  0.1264731E-009  0.9118800E+02  0.7815553E-02  0.1125453E+00
         25   -1    0    0    0    0  0.00000000000E+00  0.00000000000E+00  0.99999998245E-14  0.12509000000E+03  0.12509000000E+03 0.  0.
        -13    1    3    3    0    0  0.47325105054E+02 -0.16049558521E+02  0.78032432771E+01  0.50578213361E+02  0.10566000000E+00 0. -1.
         23    2    1    0    0    0  0.35201291359E+02  0.10346912252E+02  0.21361197582E+02  0.82634255175E+02  0.70893792814E+02 0.  0.
         13    1    3    3    0    0 -0.12123813694E+02  0.26396470774E+02  0.13557954305E+02  0.32056041814E+02  0.10566000000E+00 0.  1.
         22    1    1    0    0    0 -0.35201291359E+02 -0.10346912252E+02 -0.21361197582E+02  0.42455744825E+02  0.00000000000E+00 0.  1.
</event>
<event>
 5    1  0.1264731E-009  0.9118800E+02  0.7815553E-02  0.1125453E+00
         25   -1    0    0    0    0  0.00000000000E+00  0.00000000000E+00  0.99999998245E-14  0.12509000000E+03  0.12509000000E+03 0.  0.
        -13    1    3    3    0    0 -0.46024079971E+02  0.13102000503E+02 -0.96291265019E+01  0.48811982091E+02  0.10566000000E+00 0. -1.
         23    2    1    0    0    0 -0.11590689287E+02  0.22555500370E+02  0.18026151782E+02  0.93976709863E+02  0.88676858162E+02 0.  0.
         13    1    3    3    0    0  0.34433390684E+02  0.94534998667E+01  0.27655278284E+02  0.45164727772E+02  0.10566000000E+00 0.  1.
         22    1    1    0    0    0  0.11590689287E+02 -0.22555500370E+02 -0.18026151782E+02  0.31113290137E+02  0.00000000000E+00 0. -1.
</event>
<event>
 5    1  0.1264731E-009  0.9118800E+02  0.7815553E-02  0.1125453E+00
         25   -1    0    0    0    0  0.00000000000E+00  0.00000000000E+00  0.99999998245E-14  0.12509000000E+03  0.12509000000E+03 0.  0.
        -13    1    3    3    0    0 -0.19797202813E+02 -0.27251313771E+02 -0.38256501987E+02  0.50971898629E+02  0.10566000000E+00 0. -1.
         23    2    1    0    0    0 -0.20668557685E+02  0.11757187018E+02 -0.19855658592E+02  0.94111492911E+02  0.88866783425E+02 0.  0.
         13    1    3    3    0    0 -0.87135487179E+00  0.39008500789E+02  0.18400843395E+02  0.43139594282E+02  0.10566000000E+00 0.  1.
         22    1    1    0    0    0  0.20668557685E+02 -0.11757187018E+02  0.19855658592E+02  0.30978507089E+02  0.00000000000E+00 0. -1.
</event>
<event>
 5    1  0.1264731E-009  0.9118800E+02  0.7815553E-02  0.1125453E+00
         25   -1    0    0    0    0  0.00000000000E+00  0.00000000000E+00  0.99999998245E-14  0.12509000000E+03  0.12509000000E+03 0.  0.
        -13    1    3    3    0    0 -0.47091084043E+02 -0.36670678792E+02  0.16345910512E+02  0.61883025410E+02  0.10566000000E+00 0.  1.
         23    2    1    0    0    0 -0.24266715261E+02 -0.15097779193E+02  0.19154473621E+01  0.96445884641E+02  0.92094100351E+02 0.  0.
         13    1    3    3    0    0  0.22824368782E+02  0.21572899599E+02 -0.14430463150E+02  0.34562859231E+02  0.10566000000E+00 0. -1.
         22    1    1    0    0    0  0.24266715261E+02  0.15097779193E+02 -0.19154473621E+01  0.28644115359E+02  0.00000000000E+00 0.  1.
</event>
<event>
 5    1  0.1264731E-009  0.9118800E+02  0.7815553E-02  0.1125453E+00
         25   -1    0    0    0    0  0.00000000000E+00  0.00000000000E+00  0.99999998245E-14  0.12509000000E+03  0.12509000000E+03 0.  0.
        -13    1    3    3    0    0 -0.40069173670E+02 -0.64740533276E+00 -0.27658155195E+02  0.48692325115E+02  0.10566000000E+00 0.  1.
         23    2    1    0    0    0 -0.22904340921E+02  0.82080586312E+01  0.15683250533E+02  0.96142713309E+02  0.91681382601E+02 0.  0.
         13    1    3    3    0    0  0.17164832749E+02  0.88554639639E+01  0.43341405727E+02  0.47450388194E+02  0.10566000000E+00 0. -1.
         22    1    1    0    0    0  0.22904340921E+02 -0.82080586312E+01 -0.15683250533E+02  0.28947286691E+02  0.00000000000E+00 0.  1.
</event>
<event>
 5    1  0.1264731E-009  0.9118800E+02  0.7815553E-02  0.1125453E+00
         25   -1    0    0    0    0  0.00000000000E+00  0.00000000000E+00  0.99999998245E-14  0.12509000000E+03  0.12509000000E+03 0.  0.
        -13    1    3    3    0    0  0.24558025086E+02  0.70553591596E+01  0.41835437711E+01  0.25891849906E+02  0.10566000000E+00 0.  1.
         23    2    1    0    0    0 -0.33572106017E+02 -0.34710989172E+01  0.18393287072E+02  0.86652416316E+02  0.77660758520E+02 0.  0.
         13    1    3    3    0    0 -0.58130131104E+02 -0.10526458077E+02  0.14209743301E+02  0.60760566410E+02  0.10566000000E+00 0. -1.
         22    1    1    0    0    0  0.33572106017E+02  0.34710989172E+01 -0.18393287072E+02  0.38437583684E+02  0.00000000000E+00 0. -1.
</event>
<event>
 5    1  0.1264731E-009  0.9118800E+02  0.7815553E-02  0.1125453E+00
         25   -1    0    0    0    0  0.00000000000E+00  0.00000000000E+00  0.99999998245E-14  0.12509000000E+03  0.12509000000E+03 0.  0.
        -13    1    3    3    0    0 -0.16749175906E+01  0.20594959857E+02  0.27275575995E+02  0.34218794986E+02  0.10566000000E+00 0. -1.
         23    2    1    0    0    0  0.15350000366E+02 -0.21003187154E+02 -0.14263814271E+02  0.95421619871E+02  0.90692186871E+02 0.  0.
         13    1    3    3    0    0  0.17024917957E+02 -0.41598147011E+02 -0.41539390266E+02  0.61202824885E+02  0.10566000000E+00 0.  1.
         22    1    1    0    0    0 -0.15350000366E+02  0.21003187154E+02  0.14263814271E+02  0.29668380129E+02  0.00000000000E+00 0.  1.
</event>
<event>
 5    1  0.1264731E-009  0.9118800E+02  0.7815553E-02  0.1125453E+00
         25   -1    0    0    0    0  0.00000000000E+00  0.00000000000E+00  0.99999998245E-14  0.12509000000E+03  0.12509000000E+03 0.  0.
        -13    1    3    3    0    0 -0.45421319312E+02  0.37835266958E+01 -0.35124253034E+01  0.45713888676E+02  0.10566000000E+00 0.  1.
         23    2    1    0    0    0  0.29326079858E+00  0.27198661915E+02 -0.63630825671E+01  0.97155397235E+02  0.93052830050E+02 0.  0.
         13    1    3    3    0    0  0.45714580111E+02  0.23415135219E+02 -0.28506572637E+01  0.51441508560E+02  0.10566000000E+00 0. -1.
         22    1    1    0    0    0 -0.29326079858E+00 -0.27198661915E+02  0.63630825671E+01  0.27934602765E+02  0.00000000000E+00 0. -1.
</event>
<event>
 5    1  0.1264731E-009  0.9118800E+02  0.7815553E-02  0.1125453E+00
         25   -1    0    0    0    0  0.00000000000E+00  0.00000000000E+00  0.99999998245E-14  0.12509000000E+03  0.12509000000E+03 0.  0.
        -13    1    3    3    0    0  0.10413443083E+02 -0.55328242309E+02 -0.98733158376E+01  0.57158968880E+02  0.10566000000E+00 0.  1.
         23    2    1    0    0    0 -0.90863198638E+01 -0.24964474173E+02 -0.16454614894E+02  0.93840351510E+02  0.88484298272E+02 0.  0.
         13    1    3    3    0    0 -0.19499762946E+02  0.30363768135E+02 -0.65812990567E+01  0.36681382630E+02  0.10566000000E+00 0. -1.
         22    1    1    0    0    0  0.90863198638E+01  0.24964474173E+02  0.16454614894E+02  0.31249648490E+02  0.00000000000E+00 0.  1.
</event>
<event>
 5    1  0.1264731E-009  0.9118800E+02  0.7815553E-02  0.1125453E+00
         25   -1    0    0    0    0  0.00000000000E+00  0.00000000000E+00  0.99999998245E-14  0.12509000000E+03  0.12509000000E+03 0.  0.
        -13    1    3    3    0    0  0.26660918780E+01 -0.13933447312E+02 -0.30579791168E+02  0.33710292075E+02  0.10566000000E+00 0.  1.
         23    2    1    0    0    0  0.13542291216E+02  0.22234499050E+02  0.16652306270E+02  0.94185859444E+02  0.88971401111E+02 0.  0.
         13    1    3    3    0    0  0.10876199338E+02  0.36167946362E+02  0.47232097438E+02  0.60475567369E+02  0.10566000000E+00 0. -1.
         22    1    1    0    0    0 -0.13542291216E+02 -0.22234499050E+02 -0.16652306270E+02  0.30904140556E+02  0.00000000000E+00 0. -1.
</event>
<event>
 5    1  0.1264731E-009  0.9118800E+02  0.7815553E-02  0.1125453E+00
         25   -1    0    0    0    0  0.00000000000E+00  0.00000000000E+00  0.99999998245E-14  0.12509000000E+03  0.12509000000E+03 0.  0.
        -13    1    3    3    0    0 -0.35798473857E+02  0.22431780887E+02 -0.92804357887E+01  0.43253360294E+02  0.10566000000E+00 0. -1.
         23    2    1    0    0    0 -0.14598804798E+02 -0.47232160237E+01  0.27469349057E+02  0.93625750307E+02  0.88180395281E+02 0.  0.
         13    1    3    3    0    0  0.21199669060E+02 -0.27154996911E+02  0.36749784845E+02  0.50372390013E+02  0.10566000000E+00 0.  1.
         22    1    1    0    0    0  0.14598804798E+02  0.47232160237E+01 -0.27469349057E+02  0.31464249693E+02  0.00000000000E+00 0. -1.
</event>
<event>
 5    1  0.1264731E-009  0.9118800E+02  0.7815553E-02  0.1125453E+00
         25   -1    0    0    0    0  0.00000000000E+00  0.00000000000E+00  0.99999998245E-14  0.12509000000E+03  0.12509000000E+03 0.  0.
        -13    1    3    3    0    0  0.51256242423E+01 -0.53661070528E+01  0.34670704027E+02  0.35456113866E+02  0.10566000000E+00 0. -1.
         23    2    1    0    0    0 -0.37039493694E+00  0.20451253033E+02 -0.20197842186E+02  0.96343804217E+02  0.91955341546E+02 0.  0.
         13    1    3    3    0    0 -0.54960191793E+01  0.25817360086E+02 -0.54868546213E+02  0.60887690350E+02  0.10566000000E+00 0.  1.
         22    1    1    0    0    0  0.37039493694E+00 -0.20451253033E+02  0.20197842186E+02  0.28746195783E+02  0.00000000000E+00 0.  1.
</event>
<event>
 5    1  0.1264731E-009  0.9118800E+02  0.7815553E-02  0.1125453E+00
         25   -1    0    0    0    0  0.00000000000E+00  0.00000000000E+00  0.99999998245E-14  0.12509000000E+03  0.12509000000E+03 0.  0.
        -13    1    3    3    0    0  0.87981197078E+01 -0.15879752682E+02  0.45346298048E+02  0.48845382241E+02  0.10566000000E+00 0. -1.
         23    2    1    0    0    0 -0.20115667994E+02 -0.21278446095E+02  0.11643601212E+02  0.93578322541E+02  0.88113090023E+02 0.  0.
         13    1    3    3    0    0 -0.28913787702E+02 -0.53986934137E+01 -0.33702696835E+02  0.44732940300E+02  0.10566000000E+00 0.  1.
         22    1    1    0    0    0  0.20115667994E+02  0.21278446095E+02 -0.11643601212E+02  0.31511677459E+02  0.00000000000E+00 0. -1.
</event>
<event>
 4    1  0.1264731E-009  0.9118800E+02  0.7815553E-02  0.1125453E+00
         25   -1    0    0    0    0  0.00000000000E+00  0.00000000000E+00  0.99999998245E-14  0.12509000000E+03  0.12509000000E+03 0.  0.
        -13    1    1    0    0    0  0.15065460249E+02 -0.17647234057E+02 -0.25326503309E+02  0.34348739370E+02  0.10566000000E+00 0.  1.
         13    1    1    0    0    0 -0.31728444859E+02 -0.22268209985E+02 -0.32514269293E+01  0.38899233029E+02  0.10566000000E+00 0. -1.
         22    1    1    0    0    0  0.16662984610E+02  0.39915444042E+02  0.28577930238E+02  0.51842027602E+02  0.00000000000E+00 0.  1.
</event>
<event>
 5    1  0.1264731E-009  0.9118800E+02  0.7815553E-02  0.1125453E+00
         25   -1    0    0    0    0  0.00000000000E+00  0.00000000000E+00  0.99999998245E-14  0.12509000000E+03  0.12509000000E+03 0.  0.
        -13    1    3    3    0    0 -0.18144386929E+02  0.66551102632E+00  0.40311742354E+02  0.44212095829E+02  0.10566000000E+00 0.  1.
         23    2    1    0    0    0  0.20962097269E+02  0.16008063617E+02  0.70662623138E+01  0.97784328688E+02  0.93894489994E+02 0.  0.
         13    1    3    3    0    0  0.39106484199E+02  0.15342552590E+02 -0.33245480040E+02  0.53572232859E+02  0.10566000000E+00 0. -1.
         22    1    1    0    0    0 -0.20962097269E+02 -0.16008063617E+02 -0.70662623138E+01  0.27305671312E+02  0.00000000000E+00 0. -1.
</event>
<event>
 5    1  0.1264731E-009  0.9118800E+02  0.7815553E-02  0.1125453E+00
         25   -1    0    0    0    0  0.00000000000E+00  0.00000000000E+00  0.99999998245E-14  0.12509000000E+03  0.12509000000E+03 0.  0.
        -13    1    3    3    0    0  0.13281209727E+02 -0.32150447542E+02 -0.48004317585E+02  0.59282944257E+02  0.10566000000E+00 0.  1.
         23    2    1    0    0    0 -0.43383627813E+01 -0.52400884747E+01 -0.25899893791E+02  0.98311568058E+02  0.94594291566E+02 0.  0.
         13    1    3    3    0    0 -0.17619572509E+02  0.26910359068E+02  0.22104423794E+02  0.39028623801E+02  0.10566000000E+00 0. -1.
         22    1    1    0    0    0  0.43383627813E+01  0.52400884747E+01  0.25899893791E+02  0.26778431942E+02  0.00000000000E+00 0.  1.
</event>
<event>
 5    1  0.1264731E-009  0.9118800E+02  0.7815553E-02  0.1125453E+00
         25   -1    0    0    0    0  0.00000000000E+00  0.00000000000E+00  0.99999998245E-14  0.12509000000E+03  0.12509000000E+03 0.  0.
        -13    1    3    3    0    0 -0.37322674000E+02 -0.17642521359E+02 -0.19129250521E+02  0.45499230147E+02  0.10566000000E+00 0.  1.
         23    2    1    0    0    0  0.60907901003E+01 -0.27865114423E+02  0.48811061184E+01  0.96152351118E+02  0.91694531477E+02 0.  0.
         13    1    3    3    0    0  0.43413464100E+02 -0.10222593064E+02  0.24010356640E+02  0.50653120971E+02  0.10566000000E+00 0. -1.
         22    1    1    0    0    0 -0.60907901003E+01  0.27865114423E+02 -0.48811061184E+01  0.28937648882E+02  0.00000000000E+00 0. -1.
</event>
<event>
 5    1  0.1264731E-009  0.9118800E+02  0.7815553E-02  0.1125453E+00
         25   -1    0    0    0    0  0.00000000000E+00  0.00000000000E+00  0.99999998245E-14  0.12509000000E+03  0.12509000000E+03 0.  0.
        -13    1    3    3    0    0 -0.22665732499E+02 -0.36347757932E+02  0.31725739921E+02  0.53305052988E+02  0.10566000000E+00 0.  1.
         23    2    1    0    0    0 -0.23236016734E+02 -0.10946053242E+02 -0.59280416462E+01  0.98729608634E+02  0.95145495889E+02 0.  0.
         13    1    3    3    0    0 -0.57028423427E+00  0.25401704690E+02 -0.37653781568E+02  0.45424555646E+02  0.10566000000E+00 0. -1.
         22    1    1    0    0    0  0.23236016734E+02  0.10946053242E+02  0.59280416462E+01  0.26360391366E+02  0.00000000000E+00 0.  1.
</event>
<event>
 5    1  0.1264731E-009  0.9118800E+02  0.7815553E-02  0.1125453E+00
         25   -1    0    0    0    0  0.00000000000E+00  0.00000000000E+00  0.99999998245E-14  0.12509000000E+03  0.12509000000E+03 0.  0.
        -13    1    3    3    0    0  0.13681218616E+02 -0.40640416143E+02 -0.19504812841E+02  0.47109107985E+02  0.10566000000E+00 0. -1.
         23    2    1    0    0    0 -0.10909270741E+02 -0.30452779396E+02  0.13951240176E+02  0.89861871133E+02  0.82668826168E+02 0.  0.
         13    1    3    3    0    0 -0.24590489357E+02  0.10187636747E+02  0.33456053017E+02  0.42752763148E+02  0.10566000000E+00 0.  1.
         22    1    1    0    0    0  0.10909270741E+02  0.30452779396E+02 -0.13951240176E+02  0.35228128867E+02  0.00000000000E+00 0. -1.
</event>
<event>
 5    1  0.1264731E-009  0.9118800E+02  0.7815553E-02  0.1125453E+00
         25   -1    0    0    0    0  0.00000000000E+00  0.00000000000E+00  0.99999998245E-14  0.12509000000E+03  0.12509000000E+03 0.  0.
        -13    1    3    3    0    0  0.59286440290E+02 -0.13576142216E+02 -0.79738992780E+01  0.61341567256E+02  0.10566000000E+00 0.  1.
         23    2    1    0    0    0  0.28914356641E+02  0.19510551938E+01 -0.58980679153E+01  0.95515790941E+02  0.90821982348E+02 0.  0.
         13    1    3    3    0    0 -0.30372083649E+02  0.15527197410E+02  0.20758313627E+01  0.34174223685E+02  0.10566000000E+00 0. -1.
         22    1    1    0    0    0 -0.28914356641E+02 -0.19510551938E+01  0.58980679153E+01  0.29574209059E+02  0.00000000000E+00 0.  1.
</event>
<event>
 5    1  0.1264731E-009  0.9118800E+02  0.7815553E-02  0.1125453E+00
         25   -1    0    0    0    0  0.00000000000E+00  0.00000000000E+00  0.99999998245E-14  0.12509000000E+03  0.12509000000E+03 0.  0.
        -13    1    3    3    0    0 -0.65387645707E+01 -0.54123154646E+02 -0.14712438339E+02  0.56467143693E+02  0.10566000000E+00 0. -1.
         23    2    1    0    0    0 -0.11993591247E+02 -0.14939630791E+02 -0.21154391919E+02  0.96549728512E+02  0.92235042034E+02 0.  0.
         13    1    3    3    0    0 -0.54548266761E+01  0.39183523855E+02 -0.64419535801E+01  0.40082584818E+02  0.10566000000E+00 0.  1.
         22    1    1    0    0    0  0.11993591247E+02  0.14939630791E+02  0.21154391919E+02  0.28540271488E+02  0.00000000000E+00 0.  1.
</event>
<event>
 5    1  0.1264731E-009  0.9118800E+02  0.7815553E-02  0.1125453E+00
         25   -1    0    0    0    0  0.00000000000E+00  0.00000000000E+00  0.99999998245E-14  0.12509000000E+03  0.12509000000E+03 0.  0.
        -13    1    3    3    0    0 -0.51332338044E+02  0.28546309593E+02  0.17607491743E+02  0.61318314148E+02  0.10566000000E+00 0. -1.
         23    2    1    0    0    0 -0.28563217638E+02  0.15634452429E+02  0.62207643949E+00  0.92521910039E+02  0.86600365782E+02 0.  0.
         13    1    3    3    0    0  0.22769120406E+02 -0.12911857164E+02 -0.16985415304E+02  0.31203595891E+02  0.10566000000E+00 0.  1.
         22    1    1    0    0    0  0.28563217638E+02 -0.15634452429E+02 -0.62207643949E+00  0.32568089961E+02  0.00000000000E+00 0. -1.
</event>
<event>
 5    1  0.1264731E-009  0.9118800E+02  0.7815553E-02  0.1125453E+00
         25   -1    0    0    0    0  0.00000000000E+00  0.00000000000E+00  0.99999998245E-14  0.12509000000E+03  0.12509000000E+03 0.  0.
        -13    1    3    3    0    0 -0.23713911760E+02 -0.23889754524E+02  0.94954566136E+01  0.34974917334E+02  0.10566000000E+00 0.  1.
         23    2    1    0    0    0  0.41632119442E+01  0.29216205784E+02  0.90882860428E+00  0.95564672169E+02  0.90889282004E+02 0.  0.
         13    1    3    3    0    0  0.27877123705E+02  0.53105960308E+02 -0.85866280093E+01  0.60589754835E+02  0.10566000000E+00 0. -1.
         22    1    1    0    0    0 -0.41632119442E+01 -0.29216205784E+02 -0.90882860428E+00  0.29525327831E+02  0.00000000000E+00 0. -1.
</event>
<event>
 5    1  0.1264731E-009  0.9118800E+02  0.7815553E-02  0.1125453E+00
         25   -1    0    0    0    0  0.00000000000E+00  0.00000000000E+00  0.99999998245E-14  0.12509000000E+03  0.12509000000E+03 0.  0.
        -13    1    3    3    0    0  0.60265373616E+01 -0.10310271521E+02  0.58953930610E+02  0.60151458418E+02  0.10566000000E+00 0. -1.
         23    2    1    0    0    0  0.13915795812E+02 -0.30203673297E+00  0.24141453838E+02  0.97223346224E+02  0.93144128416E+02 0.  0.
         13    1    3    3    0    0  0.78892584503E+01  0.10008234788E+02 -0.34812476772E+02  0.37071887806E+02  0.10566000000E+00 0.  1.
         22    1    1    0    0    0 -0.13915795812E+02  0.30203673297E+00 -0.24141453838E+02  0.27866653776E+02  0.00000000000E+00 0. -1.
</event>
<event>
 5    1  0.1264731E-009  0.9118800E+02  0.7815553E-02  0.1125453E+00
         25   -1    0    0    0    0  0.00000000000E+00  0.00000000000E+00  0.99999998245E-14  0.12509000000E+03  0.12509000000E+03 0.  0.
        -13    1    3    3    0    0 -0.14084967005E+02  0.46499803320E+02  0.53582200380E+01  0.48880872438E+02  0.10566000000E+00 0. -1.
         23    2    1    0    0    0 -0.23641241106E+02  0.26753896083E+01  0.17739258702E+02  0.95412613156E+02  0.90679763230E+02 0.  0.
         13    1    3    3    0    0 -0.95562741004E+01 -0.43824413711E+02  0.12381038664E+02  0.46531740718E+02  0.10566000000E+00 0.  1.
         22    1    1    0    0    0  0.23641241106E+02 -0.26753896083E+01 -0.17739258702E+02  0.29677386844E+02  0.00000000000E+00 0. -1.
</event>
<event>
 5    1  0.1264731E-009  0.9118800E+02  0.7815553E-02  0.1125453E+00
         25   -1    0    0    0    0  0.00000000000E+00  0.00000000000E+00  0.99999998245E-14  0.12509000000E+03  0.12509000000E+03 0.  0.
        -13    1    3    3    0    0  0.15439224225E+02  0.20053072349E+02  0.20029462845E+02  0.32275159197E+02  0.10566000000E+00 0.  1.
         23    2    1    0    0    0  0.15175984239E+02 -0.32714152978E+02  0.17243661759E+02  0.85116631696E+02  0.75146329369E+02 0.  0.
         13    1    3    3    0    0 -0.26323998534E+00 -0.52767225328E+02 -0.27858010861E+01  0.52841472499E+02  0.10566000000E+00 0. -1.
         22    1    1    0    0    0 -0.15175984239E+02  0.32714152978E+02 -0.17243661759E+02  0.39973368304E+02  0.00000000000E+00 0. -1.
</event>
<event>
 5    1  0.1264731E-009  0.9118800E+02  0.7815553E-02  0.1125453E+00
         25   -1    0    0    0    0  0.00000000000E+00  0.00000000000E+00  0.99999998245E-14  0.12509000000E+03  0.12509000000E+03 0.  0.
        -13    1    3    3    0    0 -0.23539852188E+02  0.42437091429E+01 -0.54343452396E+02  0.59374705816E+02  0.10566000000E+00 0.  1.
         23    2    1    0    0    0  0.17852534689E+01 -0.53183283985E+01 -0.25695240898E+02  0.98789483813E+02  0.95224182645E+02 0.  0.
         13    1    3    3    0    0  0.25325105657E+02 -0.95620375414E+01  0.28648211498E+02  0.39414777997E+02  0.10566000000E+00 0. -1.
         22    1    1    0    0    0 -0.17852534689E+01  0.53183283985E+01  0.25695240898E+02  0.26300516187E+02  0.00000000000E+00 0.  1.
</event>
<event>
 5    1  0.1264731E-009  0.9118800E+02  0.7815553E-02  0.1125453E+00
         25   -1    0    0    0    0  0.00000000000E+00  0.00000000000E+00  0.99999998245E-14  0.12509000000E+03  0.12509000000E+03 0.  0.
        -13    1    3    3    0    0  0.12771640225E+02 -0.18077996515E+02  0.38931144719E+02  0.44783634793E+02  0.10566000000E+00 0. -1.
         23    2    1    0    0    0 -0.26587605420E+02 -0.94075155347E+01  0.74636057260E+01  0.95916252881E+02  0.91371877762E+02 0.  0.
         13    1    3    3    0    0 -0.39359245646E+02  0.86704809807E+01 -0.31467538993E+02  0.51132618088E+02  0.10566000000E+00 0.  1.
         22    1    1    0    0    0  0.26587605420E+02  0.94075155347E+01 -0.74636057260E+01  0.29173747119E+02  0.00000000000E+00 0. -1.
</event>
<event>
 5    1  0.1264731E-009  0.9118800E+02  0.7815553E-02  0.1125453E+00
         25   -1    0    0    0    0  0.00000000000E+00  0.00000000000E+00  0.99999998245E-14  0.12509000000E+03  0.12509000000E+03 0.  0.
        -13    1    3    3    0    0  0.16814479972E+02 -0.29344995013E+02 -0.96024004964E+01  0.35157825991E+02  0.10566000000E+00 0. -1.
         23    2    1    0    0    0  0.45865966090E+01  0.26250129927E+02 -0.18329352808E+02  0.92746973487E+02  0.86924851033E+02 0.  0.
         13    1    3    3    0    0 -0.12227883363E+02  0.55595124941E+02 -0.87269523114E+01  0.57589147497E+02  0.10566000000E+00 0.  1.
         22    1    1    0    0    0 -0.45865966090E+01 -0.26250129927E+02  0.18329352808E+02  0.32343026513E+02  0.00000000000E+00 0.  1.
</event>
<event>
 5    1  0.1264731E-009  0.9118800E+02  0.7815553E-02  0.1125453E+00
         25   -1    0    0    0    0  0.00000000000E+00  0.00000000000E+00  0.99999998245E-14  0.12509000000E+03  0.12509000000E+03 0.  0.
        -13    1    3    3    0    0  0.32334086442E+02 -0.30902561626E+02 -0.42070179181E+02  0.61403359855E+02  0.10566000000E+00 0.  1.
         23    2    1    0    0    0  0.87454494277E+01 -0.16631241512E+02 -0.24946940504E+02  0.93858110521E+02  0.88509400576E+02 0.  0.
         13    1    3    3    0    0 -0.23588637014E+02  0.14271320115E+02  0.17123238677E+02  0.32454750667E+02  0.10566000000E+00 0. -1.
         22    1    1    0    0    0 -0.87454494277E+01  0.16631241512E+02  0.24946940504E+02  0.31231889479E+02  0.00000000000E+00 0.  1.
</event>
<event>
 5    1  0.1264731E-009  0.9118800E+02  0.7815553E-02  0.1125453E+00
         25   -1    0    0    0    0  0.00000000000E+00  0.00000000000E+00  0.99999998245E-14  0.12509000000E+03  0.12509000000E+03 0.  0.
        -13    1    3    3    0    0 -0.39913268923E+02  0.16253761973E+02 -0.11202921071E+02  0.44528310308E+02  0.10566000000E+00 0.  1.
         23    2    1    0    0    0  0.86324686705E+01  0.28232857578E+02 -0.72714121328E+01  0.94684618950E+02  0.89669893883E+02 0.  0.
         13    1    3    3    0    0  0.48545737593E+02  0.11979095605E+02  0.39315089386E+01  0.50156308642E+02  0.10566000000E+00 0. -1.
         22    1    1    0    0    0 -0.86324686705E+01 -0.28232857578E+02  0.72714121328E+01  0.30405381050E+02  0.00000000000E+00 0. -1.
</event>
<event>
 5    1  0.1264731E-009  0.9118800E+02  0.7815553E-02  0.1125453E+00
         25   -1    0    0    0    0  0.00000000000E+00  0.00000000000E+00  0.99999998245E-14  0.12509000000E+03  0.12509000000E+03 0.  0.
        -13    1    3    3    0    0  0.29524953602E+02  0.23721406907E+02  0.34441939936E+02  0.51192640305E+02  0.10566000000E+00 0. -1.
         23    2    1    0    0    0  0.13228028177E+02  0.26064679950E+02 -0.63472211911E+01  0.95179542177E+02  0.90357676829E+02 0.  0.
         13    1    3    3    0    0 -0.16296925425E+02  0.23432730428E+01 -0.40789161127E+02  0.43986901872E+02  0.10566000000E+00 0.  1.
         22    1    1    0    0    0 -0.13228028177E+02 -0.26064679950E+02  0.63472211911E+01  0.29910457823E+02  0.00000000000E+00 0. -1.
</event>
<event>
 5    1  0.1264731E-009  0.9118800E+02  0.7815553E-02  0.1125453E+00
         25   -1    0    0    0    0  0.00000000000E+00  0.00000000000E+00  0.99999998245E-14  0.12509000000E+03  0.12509000000E+03 0.  0.
        -13    1    3    3    0    0 -0.32947873348E+02  0.22656890283E+02  0.23902420463E+02  0.46585769323E+02  0.10566000000E+00 0.  1.
         23    2    1    0    0    0 -0.42092821312E+01  0.25872047592E+02 -0.14869194873E+02  0.94954076938E+02  0.90045004682E+02 0.  0.
         13    1    3    3    0    0  0.28738591217E+02  0.32151573091E+01 -0.38771615336E+02  0.48368307614E+02  0.10566000000E+00 0. -1.
         22    1    1    0    0    0  0.42092821312E+01 -0.25872047592E+02  0.14869194873E+02  0.30135923062E+02  0.00000000000E+00 0. -1.
</event>
<event>
 5    1  0.1264731E-009  0.9118800E+02  0.7815553E-02  0.1125453E+00
         25   -1    0    0    0    0  0.00000000000E+00  0.00000000000E+00  0.99999998245E-14  0.12509000000E+03  0.12509000000E+03 0.  0.
        -13    1    3    3    0    0 -0.25275493883E+02 -0.87064242630E+01  0.26186114941E+02  0.37421600637E+02  0.10566000000E+00 0. -1.
         23    2    1    0    0    0  0.12817888711E+02  0.26777240912E+02  0.67651488749E+00  0.95395276996E+02  0.90655845366E+02 0.  0.
         13    1    3    3    0    0  0.38093382594E+02  0.35483665175E+02 -0.25509600053E+02  0.57973676360E+02  0.10566000000E+00 0.  1.
         22    1    1    0    0    0 -0.12817888711E+02 -0.26777240912E+02 -0.67651488749E+00  0.29694723004E+02  0.00000000000E+00 0.  1.
</event>
<event>
 5    1  0.1264731E-009  0.9118800E+02  0.7815553E-02  0.1125453E+00
         25   -1    0    0    0    0  0.00000000000E+00  0.00000000000E+00  0.99999998245E-14  0.12509000000E+03  0.12509000000E+03 0.  0.
        -13    1    3    3    0    0 -0.30627777933E+01  0.42892626099E+02  0.20924589874E+02  0.47822668338E+02  0.10566000000E+00 0.  1.
         23    2    1    0    0    0  0.68098853289E+01  0.18699296772E+02 -0.20320069222E+02  0.96648068787E+02  0.92368315721E+02 0.  0.
         13    1    3    3    0    0  0.98726631222E+01 -0.24193329327E+02 -0.41244659096E+02  0.48825400449E+02  0.10566000000E+00 0. -1.
         22    1    1    0    0    0 -0.68098853289E+01 -0.18699296772E+02  0.20320069222E+02  0.28441931213E+02  0.00000000000E+00 0.  1.
</event>
<event>
 5    1  0.1264731E-009  0.9118800E+02  0.7815553E-02  0.1125453E+00
         25   -1    0    0    0    0  0.00000000000E+00  0.00000000000E+00  0.99999998245E-14  0.12509000000E+03  0.12509000000E+03 0.  0.
        -13    1    3    3    0    0  0.15221478195E+02 -0.86509936804E+01  0.31349207453E+02  0.35907061451E+02  0.10566000000E+00 0. -1.
         23    2    1    0    0    0 -0.19120157267E+02 -0.77474647755E+01 -0.19122190688E+02  0.96960623877E+02  0.92790628738E+02 0.  0.
         13    1    3    3    0    0 -0.34341635462E+02  0.90352890487E+00 -0.50471398140E+02  0.61053562426E+02  0.10566000000E+00 0.  1.
         22    1    1    0    0    0  0.19120157267E+02  0.77474647755E+01  0.19122190688E+02  0.28129376123E+02  0.00000000000E+00 0.  1.
</event>
<event>
 5    1  0.1264731E-009  0.9118800E+02  0.7815553E-02  0.1125453E+00
         25   -1    0    0    0    0  0.00000000000E+00  0.00000000000E+00  0.99999998245E-14  0.12509000000E+03  0.12509000000E+03 0.  0.
        -13    1    3    3    0    0 -0.74703946313E+00  0.51859811212E+02 -0.18294283698E+02  0.54997182355E+02  0.10566000000E+00 0.  1.
         23    2    1    0    0    0 -0.19659320375E+02  0.14489162690E+02 -0.13582748710E+02  0.97145129709E+02  0.93039026493E+02 0.  0.
         13    1    3    3    0    0 -0.18912280911E+02 -0.37370648522E+02  0.47115349886E+01  0.42147947354E+02  0.10566000000E+00 0. -1.
         22    1    1    0    0    0  0.19659320375E+02 -0.14489162690E+02  0.13582748710E+02  0.27944870291E+02  0.00000000000E+00 0.  1.
</event>
<event>
 5    1  0.1264731E-009  0.9118800E+02  0.7815553E-02  0.1125453E+00
         25   -1    0    0    0    0  0.00000000000E+00  0.00000000000E+00  0.99999998245E-14  0.12509000000E+03  0.12509000000E+03 0.  0.
        -13    1    3    3    0    0 -0.23129591167E+02 -0.27005064553E+02 -0.12917425630E+02  0.37830180386E+02  0.10566000000E+00 0. -1.
         23    2    1    0    0    0 -0.17315155273E+01 -0.31903962320E+01  0.31941806926E+02  0.92942592580E+02  0.87205904110E+02 0.  0.
         13    1    3    3    0    0  0.21398075640E+02  0.23814668321E+02  0.44859232556E+02  0.55112412194E+02  0.10566000000E+00 0.  1.
         22    1    1    0    0    0  0.17315155273E+01  0.31903962320E+01 -0.31941806926E+02  0.32147407420E+02  0.00000000000E+00 0.  1.
</event>
<event>
 5    1  0.1264731E-009  0.9118800E+02  0.7815553E-02  0.1125453E+00
         25   -1    0    0    0    0  0.00000000000E+00  0.00000000000E+00  0.99999998245E-14  0.12509000000E+03  0.12509000000E+03 0.  0.
        -13    1    3    3    0    0  0.42365078273E+02  0.15499555652E+02  0.72368712770E+01  0.45688286818E+02  0.10566000000E+00 0.  1.
         23    2    1    0    0    0 -0.63792868087E+01  0.11546062983E+02  0.24263883945E+02  0.97472198953E+02  0.93477733359E+02 0.  0.
         13    1    3    3    0    0 -0.48744365082E+02 -0.39534926687E+01  0.17027012668E+02  0.51783912134E+02  0.10566000000E+00 0. -1.
         22    1    1    0    0    0  0.63792868087E+01 -0.11546062983E+02 -0.24263883945E+02  0.27617801047E+02  0.00000000000E+00 0. -1.
</event>
<event>
 5    1  0.1264731E-009  0.9118800E+02  0.7815553E-02  0.1125453E+00
         25   -1    0    0    0    0  0.00000000000E+00  0.00000000000E+00  0.99999998245E-14  0.12509000000E+03  0.12509000000E+03 0.  0.
        -13    1    3    3    0    0 -0.32386601573E+02 -0.39913113921E+02  0.16893306302E+02  0.54104931255E+02  0.10566000000E+00 0.  1.
         23    2    1    0    0    0 -0.10420907607E+02 -0.22904084226E+02 -0.14517809566E+02  0.96039024386E+02  0.91539800201E+02 0.  0.
         13    1    3    3    0    0  0.21965693966E+02  0.17009029695E+02 -0.31411115867E+02  0.41934093130E+02  0.10566000000E+00 0. -1.
         22    1    1    0    0    0  0.10420907607E+02  0.22904084226E+02  0.14517809566E+02  0.29050975614E+02  0.00000000000E+00 0.  1.
</event>
<event>
 5    1  0.1264731E-009  0.9118800E+02  0.7815553E-02  0.1125453E+00
         25   -1    0    0    0    0  0.00000000000E+00  0.00000000000E+00  0.99999998245E-14  0.12509000000E+03  0.12509000000E+03 0.  0.
        -13    1    3    3    0    0 -0.16730617302E+00 -0.22597675916E+02  0.26190953126E+02  0.34592775804E+02  0.10566000000E+00 0. -1.
         23    2    1    0    0    0 -0.11953683619E+02  0.38536194672E+01 -0.27087384693E+02  0.95232549597E+02  0.90431029841E+02 0.  0.
         13    1    3    3    0    0 -0.11786377446E+02  0.26451295383E+02 -0.53278337820E+02  0.60639773792E+02  0.10566000000E+00 0.  1.
         22    1    1    0    0    0  0.11953683619E+02 -0.38536194672E+01  0.27087384693E+02  0.29857450403E+02  0.00000000000E+00 0.  1.
</event>
<event>
 5    1  0.1264731E-009  0.9118800E+02  0.7815553E-02  0.1125453E+00
         25   -1    0    0    0    0  0.00000000000E+00  0.00000000000E+00  0.99999998245E-14  0.12509000000E+03  0.12509000000E+03 0.  0.
        -13    1    3    3    0    0 -0.65044148834E+01  0.33308756332E+02  0.20588499913E+02  0.39694812685E+02  0.10566000000E+00 0.  1.
         23    2    1    0    0    0 -0.14190193160E+02  0.43259719198E+01 -0.26033306082E+02  0.95126544917E+02  0.90284278295E+02 0.  0.
         13    1    3    3    0    0 -0.76857782763E+01 -0.28982784413E+02 -0.46621805995E+02  0.55431732232E+02  0.10566000000E+00 0. -1.
         22    1    1    0    0    0  0.14190193160E+02 -0.43259719198E+01  0.26033306082E+02  0.29963455083E+02  0.00000000000E+00 0.  1.
</event>
<event>
 5    1  0.1264731E-009  0.9118800E+02  0.7815553E-02  0.1125453E+00
         25   -1    0    0    0    0  0.00000000000E+00  0.00000000000E+00  0.99999998245E-14  0.12509000000E+03  0.12509000000E+03 0.  0.
        -13    1    3    3    0    0 -0.29794584108E+02 -0.51880416484E+02  0.12205979104E+02  0.61059740801E+02  0.10566000000E+00 0.  1.
         23    2    1    0    0    0 -0.25130284029E+02 -0.25280206154E+02  0.43858468795E+01  0.89175439563E+02  0.81623546663E+02 0.  0.
         13    1    3    3    0    0  0.46643000789E+01  0.26600210330E+02 -0.78201322248E+01  0.28115698762E+02  0.10566000000E+00 0. -1.
         22    1    1    0    0    0  0.25130284029E+02  0.25280206154E+02 -0.43858468795E+01  0.35914560437E+02  0.00000000000E+00 0.  1.
</event>
<event>
 5    1  0.1264731E-009  0.9118800E+02  0.7815553E-02  0.1125453E+00
         25   -1    0    0    0    0  0.00000000000E+00  0.00000000000E+00  0.99999998245E-14  0.12509000000E+03  0.12509000000E+03 0.  0.
        -13    1    3    3    0    0 -0.48794421041E+02 -0.10718334761E+02 -0.22009104444E+02  0.54591117110E+02  0.10566000000E+00 0. -1.
         23    2    1    0    0    0 -0.14204375760E+02  0.98685264483E+01 -0.24702746488E+02  0.94934108552E+02  0.90017260442E+02 0.  0.
         13    1    3    3    0    0  0.34590045281E+02  0.20586861209E+02 -0.26936420435E+01  0.40342991442E+02  0.10566000000E+00 0.  1.
         22    1    1    0    0    0  0.14204375760E+02 -0.98685264483E+01  0.24702746488E+02  0.30155891448E+02  0.00000000000E+00 0. -1.
</event>
<event>
 5    1  0.1264731E-009  0.9118800E+02  0.7815553E-02  0.1125453E+00
         25   -1    0    0    0    0  0.00000000000E+00  0.00000000000E+00  0.99999998245E-14  0.12509000000E+03  0.12509000000E+03 0.  0.
        -13    1    3    3    0    0 -0.74712944167E+01  0.30790786019E+02  0.14772407486E+02  0.34958946364E+02  0.10566000000E+00 0. -1.
         23    2    1    0    0    0  0.63403204093E+01 -0.13212158758E+02 -0.25166013532E+02  0.95968031676E+02  0.91442736534E+02 0.  0.
         13    1    3    3    0    0  0.13811614826E+02 -0.44002944777E+02 -0.39938421018E+02  0.61009085312E+02  0.10566000000E+00 0.  1.
         22    1    1    0    0    0 -0.63403204093E+01  0.13212158758E+02  0.25166013532E+02  0.29121968324E+02  0.00000000000E+00 0.  1.
</event>
<event>
 5    1  0.1264731E-009  0.9118800E+02  0.7815553E-02  0.1125453E+00
         25   -1    0    0    0    0  0.00000000000E+00  0.00000000000E+00  0.99999998245E-14  0.12509000000E+03  0.12509000000E+03 0.  0.
        -13    1    3    3    0    0 -0.12920413131E+02  0.47317697672E+02  0.26895159787E+02  0.55939810264E+02  0.10566000000E+00 0.  1.
         23    2    1    0    0    0 -0.70550367586E+01  0.24276788150E+02 -0.83595125224E+01  0.98462618676E+02  0.94793828071E+02 0.  0.
         13    1    3    3    0    0  0.58653763725E+01 -0.23040909521E+02 -0.35254672309E+02  0.42522808412E+02  0.10566000000E+00 0. -1.
         22    1    1    0    0    0  0.70550367586E+01 -0.24276788150E+02  0.83595125224E+01  0.26627381324E+02  0.00000000000E+00 0.  1.
</event>
<event>
 5    1  0.1264731E-009  0.9118800E+02  0.7815553E-02  0.1125453E+00
         25   -1    0    0    0    0  0.00000000000E+00  0.00000000000E+00  0.99999998245E-14  0.12509000000E+03  0.12509000000E+03 0.  0.
        -13    1    3    3    0    0  0.53081219943E+02  0.14401783029E+02  0.88210049945E+01  0.55703218562E+02  0.10566000000E+00 0. -1.
         23    2    1    0    0    0  0.26189838393E+02 -0.48476752019E+01 -0.13128434933E+02  0.95395498931E+02  0.90656151599E+02 0.  0.
         13    1    3    3    0    0 -0.26891381549E+02 -0.19249458231E+02 -0.21949439927E+02  0.39692280370E+02  0.10566000000E+00 0.  1.
         22    1    1    0    0    0 -0.26189838393E+02  0.48476752019E+01  0.13128434933E+02  0.29694501069E+02  0.00000000000E+00 0. -1.
</event>
<event>
 5    1  0.1264731E-009  0.9118800E+02  0.7815553E-02  0.1125453E+00
         25   -1    0    0    0    0  0.00000000000E+00  0.00000000000E+00  0.99999998245E-14  0.12509000000E+03  0.12509000000E+03 0.  0.
        -13    1    3    3    0    0 -0.15001406821E+01 -0.44436920903E+02 -0.25242104922E+02  0.51127931567E+02  0.10566000000E+00 0. -1.
         23    2    1    0    0    0 -0.25475831514E+02 -0.12402072331E+02 -0.38661358687E+01  0.96493210040E+02  0.92158359295E+02 0.  0.
         13    1    3    3    0    0 -0.23975690832E+02  0.32034848572E+02  0.21375969053E+02  0.45365278473E+02  0.10566000000E+00 0.  1.
         22    1    1    0    0    0  0.25475831514E+02  0.12402072331E+02  0.38661358687E+01  0.28596789960E+02  0.00000000000E+00 0. -1.
</event>
<event>
 5    1  0.1264731E-009  0.9118800E+02  0.7815553E-02  0.1125453E+00
         25   -1    0    0    0    0  0.00000000000E+00  0.00000000000E+00  0.99999998245E-14  0.12509000000E+03  0.12509000000E+03 0.  0.
        -13    1    3    3    0    0 -0.56412804610E+00  0.21366001193E+02 -0.33080838449E+02  0.39384988053E+02  0.10566000000E+00 0.  1.
         23    2    1    0    0    0  0.29815527004E+02  0.19718729229E+01  0.81197194524E+01  0.94125766160E+02  0.88886872360E+02 0.  0.
         13    1    3    3    0    0  0.30379655050E+02 -0.19394128270E+02  0.41200557901E+02  0.54740778107E+02  0.10566000000E+00 0. -1.
         22    1    1    0    0    0 -0.29815527004E+02 -0.19718729229E+01 -0.81197194524E+01  0.30964233840E+02  0.00000000000E+00 0. -1.
</event>
<event>
 5    1  0.1264731E-009  0.9118800E+02  0.7815553E-02  0.1125453E+00
         25   -1    0    0    0    0  0.00000000000E+00  0.00000000000E+00  0.99999998245E-14  0.12509000000E+03  0.12509000000E+03 0.  0.
        -13    1    3    3    0    0 -0.26783262872E+02 -0.45085188895E+02  0.61479122634E+01  0.52799861904E+02  0.10566000000E+00 0.  1.
         23    2    1    0    0    0 -0.25870782566E+02 -0.28102269218E+01  0.13585994696E+02  0.95734012232E+02  0.91122044974E+02 0.  0.
         13    1    3    3    0    0  0.91248030605E+00  0.42274961973E+02  0.74380824321E+01  0.42934150329E+02  0.10566000000E+00 0. -1.
         22    1    1    0    0    0  0.25870782566E+02  0.28102269218E+01 -0.13585994696E+02  0.29355987768E+02  0.00000000000E+00 0.  1.
</event>
<event>
 5    1  0.1264731E-009  0.9118800E+02  0.7815553E-02  0.1125453E+00
         25   -1    0    0    0    0  0.00000000000E+00  0.00000000000E+00  0.99999998245E-14  0.12509000000E+03  0.12509000000E+03 0.  0.
        -13    1    3    3    0    0  0.32876287366E+02 -0.10455077146E+02  0.51300423748E+02  0.61821546000E+02  0.10566000000E+00 0.  1.
         23    2    1    0    0    0  0.16237586509E+02  0.18288377069E+01  0.23245491060E+02  0.96675976744E+02  0.92406102406E+02 0.  0.
         13    1    3    3    0    0 -0.16638700857E+02  0.12283914853E+02 -0.28054932688E+02  0.34854430744E+02  0.10566000000E+00 0. -1.
         22    1    1    0    0    0 -0.16237586509E+02 -0.18288377069E+01 -0.23245491060E+02  0.28414023256E+02  0.00000000000E+00 0.  1.
</event>
<event>
 5    1  0.1264731E-009  0.9118800E+02  0.7815553E-02  0.1125453E+00
         25   -1    0    0    0    0  0.00000000000E+00  0.00000000000E+00  0.99999998245E-14  0.12509000000E+03  0.12509000000E+03 0.  0.
        -13    1    3    3    0    0 -0.90637055681E+00  0.48824961654E+02  0.11420815645E+02  0.50151217155E+02  0.10566000000E+00 0. -1.
         23    2    1    0    0    0 -0.15401191622E+02  0.17317742334E+02 -0.18090814032E+02  0.95689686137E+02  0.91061174920E+02 0.  0.
         13    1    3    3    0    0 -0.14494821065E+02 -0.31507219320E+02 -0.29511629677E+02  0.45538468982E+02  0.10566000000E+00 0.  1.
         22    1    1    0    0    0  0.15401191622E+02 -0.17317742334E+02  0.18090814032E+02  0.29400313863E+02  0.00000000000E+00 0.  1.
</event>
<event>
 5    1  0.1264731E-009  0.9118800E+02  0.7815553E-02  0.1125453E+00
         25   -1    0    0    0    0  0.00000000000E+00  0.00000000000E+00  0.99999998245E-14  0.12509000000E+03  0.12509000000E+03 0.  0.
        -13    1    3    3    0    0 -0.42134307273E+02 -0.13196163143E+02  0.32284027936E+02  0.54696509897E+02  0.10566000000E+00 0. -1.
         23    2    1    0    0    0 -0.12581216577E+02  0.14237825228E+02  0.21418394403E+02  0.96458718216E+02  0.92111530350E+02 0.  0.
         13    1    3    3    0    0  0.29553090696E+02  0.27433988371E+02 -0.10865633534E+02  0.41762208320E+02  0.10566000000E+00 0.  1.
         22    1    1    0    0    0  0.12581216577E+02 -0.14237825228E+02 -0.21418394403E+02  0.28631281784E+02  0.00000000000E+00 0. -1.
</event>
<event>
 5    1  0.1264731E-009  0.9118800E+02  0.7815553E-02  0.1125453E+00
         25   -1    0    0    0    0  0.00000000000E+00  0.00000000000E+00  0.99999998245E-14  0.12509000000E+03  0.12509000000E+03 0.  0.
        -13    1    3    3    0    0 -0.51228541380E+02  0.33308759098E+02 -0.18863011633E+01  0.61134328987E+02  0.10566000000E+00 0. -1.
         23    2    1    0    0    0 -0.25182802109E+02  0.12978803703E+02 -0.98046431708E+01  0.95110775605E+02  0.90262427071E+02 0.  0.
         13    1    3    3    0    0  0.26045739271E+02 -0.20329955395E+02 -0.79183420076E+01  0.33976446617E+02  0.10566000000E+00 0.  1.
         22    1    1    0    0    0  0.25182802109E+02 -0.12978803703E+02  0.98046431708E+01  0.29979224395E+02  0.00000000000E+00 0. -1.
</event>
<event>
 5    1  0.1264731E-009  0.9118800E+02  0.7815553E-02  0.1125453E+00
         25   -1    0    0    0    0  0.00000000000E+00  0.00000000000E+00  0.99999998245E-14  0.12509000000E+03  0.12509000000E+03 0.  0.
        -13    1    3    3    0    0 -0.14743265326E+02  0.51352540004E+02  0.27359894585E+02  0.60025179992E+02  0.10566000000E+00 0.  1.
         23    2    1    0    0    0 -0.90911739190E+01  0.28110130502E+02  0.11291342035E+01  0.95524753103E+02  0.90834325182E+02 0.  0.
         13    1    3    3    0    0  0.56520914074E+01 -0.23242409502E+02 -0.26230760382E+02  0.35499573110E+02  0.10566000000E+00 0. -1.
         22    1    1    0    0    0  0.90911739190E+01 -0.28110130502E+02 -0.11291342035E+01  0.29565246897E+02  0.00000000000E+00 0. -1.
</event>
<event>
 5    1  0.1264731E-009  0.9118800E+02  0.7815553E-02  0.1125453E+00
         25   -1    0    0    0    0  0.00000000000E+00  0.00000000000E+00  0.99999998245E-14  0.12509000000E+03  0.12509000000E+03 0.  0.
        -13    1    3    3    0    0  0.31744941041E-01  0.23807953068E+02 -0.48863894716E+02  0.54355413786E+02  0.10566000000E+00 0. -1.
         23    2    1    0    0    0  0.44236384429E+01 -0.10877107522E+02 -0.27144303292E+02  0.95514786623E+02  0.90820599081E+02 0.  0.
         13    1    3    3    0    0  0.43918935018E+01 -0.34685060590E+02  0.21719591425E+02  0.41159372837E+02  0.10566000000E+00 0.  1.
         22    1    1    0    0    0 -0.44236384429E+01  0.10877107522E+02  0.27144303292E+02  0.29575213377E+02  0.00000000000E+00 0.  1.
</event>
<event>
 5    1  0.1264731E-009  0.9118800E+02  0.7815553E-02  0.1125453E+00
         25   -1    0    0    0    0  0.00000000000E+00  0.00000000000E+00  0.99999998245E-14  0.12509000000E+03  0.12509000000E+03 0.  0.
        -13    1    3    3    0    0 -0.32126271617E+02 -0.51654299728E+02 -0.84503698585E+01  0.61414036858E+02  0.10566000000E+00 0.  1.
         23    2    1    0    0    0 -0.13512614257E+02 -0.23096597248E+02 -0.12148376266E+02  0.95702475531E+02  0.91078741913E+02 0.  0.
         13    1    3    3    0    0  0.18613657360E+02  0.28557702480E+02 -0.36980064071E+01  0.34288438673E+02  0.10566000000E+00 0. -1.
         22    1    1    0    0    0  0.13512614257E+02  0.23096597248E+02  0.12148376266E+02  0.29387524469E+02  0.00000000000E+00 0.  1.
</event>
<event>
 5    1  0.1264731E-009  0.9118800E+02  0.7815553E-02  0.1125453E+00
         25   -1    0    0    0    0  0.00000000000E+00  0.00000000000E+00  0.99999998245E-14  0.12509000000E+03  0.12509000000E+03 0.  0.
        -13    1    3    3    0    0 -0.23934076999E+02  0.40330626198E+02 -0.13168760465E+02  0.48711670753E+02  0.10566000000E+00 0. -1.
         23    2    1    0    0    0  0.16595367663E+02  0.24448535466E+02  0.35215723580E+01  0.95331999628E+02  0.90568491027E+02 0.  0.
         13    1    3    3    0    0  0.40529444662E+02 -0.15882090733E+02  0.16690332823E+02  0.46620328875E+02  0.10566000000E+00 0.  1.
         22    1    1    0    0    0 -0.16595367663E+02 -0.24448535466E+02 -0.35215723580E+01  0.29758000372E+02  0.00000000000E+00 0. -1.
</event>
<event>
 5    1  0.1264731E-009  0.9118800E+02  0.7815553E-02  0.1125453E+00
         25   -1    0    0    0    0  0.00000000000E+00  0.00000000000E+00  0.99999998245E-14  0.12509000000E+03  0.12509000000E+03 0.  0.
        -13    1    3    3    0    0  0.53927972605E+01 -0.26777672819E+02 -0.18179974613E+02  0.32812324893E+02  0.10566000000E+00 0.  1.
         23    2    1    0    0    0 -0.65153428417E+01  0.27747758006E+02  0.94155447815E+01  0.95072667503E+02  0.90209599578E+02 0.  0.
         13    1    3    3    0    0 -0.11908140102E+02  0.54525430824E+02  0.27595519395E+02  0.62260342611E+02  0.10566000000E+00 0. -1.
         22    1    1    0    0    0  0.65153428417E+01 -0.27747758006E+02 -0.94155447815E+01  0.30017332497E+02  0.00000000000E+00 0. -1.
</event>
<event>
 5    1  0.1264731E-009  0.9118800E+02  0.7815553E-02  0.1125453E+00
         25   -1    0    0    0    0  0.00000000000E+00  0.00000000000E+00  0.99999998245E-14  0.12509000000E+03  0.12509000000E+03 0.  0.
        -13    1    3    3    0    0 -0.25509165346E+02  0.37053519961E+02  0.33161104379E+02  0.55886947186E+02  0.10566000000E+00 0. -1.
         23    2    1    0    0    0 -0.25942462575E+02  0.23952981066E+01  0.15244601989E+02  0.94904793238E+02  0.89976514003E+02 0.  0.
         13    1    3    3    0    0 -0.43329722909E+00 -0.34658221854E+02 -0.17916502390E+02  0.39017846051E+02  0.10566000000E+00 0.  1.
         22    1    1    0    0    0  0.25942462575E+02 -0.23952981066E+01 -0.15244601989E+02  0.30185206762E+02  0.00000000000E+00 0. -1.
</event>
<event>
 5    1  0.1264731E-009  0.9118800E+02  0.7815553E-02  0.1125453E+00
         25   -1    0    0    0    0  0.00000000000E+00  0.00000000000E+00  0.99999998245E-14  0.12509000000E+03  0.12509000000E+03 0.  0.
        -13    1    3    3    0    0  0.25638304553E+02  0.38142080630E+02  0.30024049518E+02  0.54896226543E+02  0.10566000000E+00 0.  1.
         23    2    1    0    0    0  0.25645387787E+02  0.11557034589E+02 -0.24381173076E+01  0.96855351441E+02  0.92648603462E+02 0.  0.
         13    1    3    3    0    0  0.70832342244E-02 -0.26585046041E+02 -0.32462166825E+02  0.41959124898E+02  0.10566000000E+00 0. -1.
         22    1    1    0    0    0 -0.25645387787E+02 -0.11557034589E+02  0.24381173076E+01  0.28234648559E+02  0.00000000000E+00 0.  1.
</event>
<event>
 5    1  0.1264731E-009  0.9118800E+02  0.7815553E-02  0.1125453E+00
         25   -1    0    0    0    0  0.00000000000E+00  0.00000000000E+00  0.99999998245E-14  0.12509000000E+03  0.12509000000E+03 0.  0.
        -13    1    3    3    0    0 -0.43583606938E+02 -0.20123892443E+02 -0.26896535746E+02  0.55026690251E+02  0.10566000000E+00 0. -1.
         23    2    1    0    0    0 -0.12971030826E+02  0.65586472408E+01 -0.25594089330E+02  0.95656670203E+02  0.91015809898E+02 0.  0.
         13    1    3    3    0    0  0.30612576112E+02  0.26682539684E+02  0.13024464160E+01  0.40629979952E+02  0.10566000000E+00 0.  1.
         22    1    1    0    0    0  0.12971030826E+02 -0.65586472408E+01  0.25594089330E+02  0.29433329797E+02  0.00000000000E+00 0. -1.
</event>
<event>
 5    1  0.1264731E-009  0.9118800E+02  0.7815553E-02  0.1125453E+00
         25   -1    0    0    0    0  0.00000000000E+00  0.00000000000E+00  0.99999998245E-14  0.12509000000E+03  0.12509000000E+03 0.  0.
        -13    1    3    3    0    0 -0.47524416053E+02  0.32774897227E+02 -0.18084735486E+02  0.60496552224E+02  0.10566000000E+00 0.  1.
         23    2    1    0    0    0 -0.14473815031E+02  0.23532884829E+02 -0.95241823719E+01  0.95866755146E+02  0.91304089188E+02 0.  0.
         13    1    3    3    0    0  0.33050601022E+02 -0.92420123977E+01  0.85605531140E+01  0.35370202922E+02  0.10566000000E+00 0. -1.
         22    1    1    0    0    0  0.14473815031E+02 -0.23532884829E+02  0.95241823719E+01  0.29223244854E+02  0.00000000000E+00 0.  1.
</event>
<event>
 5    1  0.1264731E-009  0.9118800E+02  0.7815553E-02  0.1125453E+00
         25   -1    0    0    0    0  0.00000000000E+00  0.00000000000E+00  0.99999998245E-14  0.12509000000E+03  0.12509000000E+03 0.  0.
        -13    1    3    3    0    0  0.65549072646E+01 -0.13172426528E+02  0.32266054294E+02  0.35462502078E+02  0.10566000000E+00 0. -1.
         23    2    1    0    0    0 -0.13920875504E+02  0.13360118223E+02 -0.19839059637E+02  0.97415610738E+02  0.93401977466E+02 0.  0.
         13    1    3    3    0    0 -0.20475782768E+02  0.26532544751E+02 -0.52105113931E+02  0.61953108661E+02  0.10566000000E+00 0.  1.
         22    1    1    0    0    0  0.13920875504E+02 -0.13360118223E+02  0.19839059637E+02  0.27674389262E+02  0.00000000000E+00 0.  1.
</event>
<event>
 5    1  0.1264731E-009  0.9118800E+02  0.7815553E-02  0.1125453E+00
         25   -1    0    0    0    0  0.00000000000E+00  0.00000000000E+00  0.99999998245E-14  0.12509000000E+03  0.12509000000E+03 0.  0.
        -13    1    3    3    0    0 -0.12518783148E+01  0.37090195664E+02  0.15304899001E+01  0.37143012493E+02  0.10566000000E+00 0. -1.
         23    2    1    0    0    0 -0.23861362965E+02 -0.16837290809E+02 -0.26413020379E+01  0.95767048566E+02  0.91167385124E+02 0.  0.
         13    1    3    3    0    0 -0.22609484650E+02 -0.53927486473E+02 -0.41717919379E+01  0.58624036073E+02  0.10566000000E+00 0.  1.
         22    1    1    0    0    0  0.23861362965E+02  0.16837290809E+02  0.26413020379E+01  0.29322951434E+02  0.00000000000E+00 0.  1.
</event>
<event>
 5    1  0.1264731E-009  0.9118800E+02  0.7815553E-02  0.1125453E+00
         25   -1    0    0    0    0  0.00000000000E+00  0.00000000000E+00  0.99999998245E-14  0.12509000000E+03  0.12509000000E+03 0.  0.
        -13    1    3    3    0    0  0.80748586279E+01  0.60834460846E+02 -0.84009885699E+01  0.61940477406E+02  0.10566000000E+00 0. -1.
         23    2    1    0    0    0  0.93536735306E+01  0.26595307407E+02 -0.58400626562E+01  0.96299239045E+02  0.91894698020E+02 0.  0.
         13    1    3    3    0    0  0.12788149028E+01 -0.34239153439E+02  0.25609259137E+01  0.34358761639E+02  0.10566000000E+00 0.  1.
         22    1    1    0    0    0 -0.93536735306E+01 -0.26595307407E+02  0.58400626562E+01  0.28790760955E+02  0.00000000000E+00 0. -1.
</event>
<event>
 5    1  0.1264731E-009  0.9118800E+02  0.7815553E-02  0.1125453E+00
         25   -1    0    0    0    0  0.00000000000E+00  0.00000000000E+00  0.99999998245E-14  0.12509000000E+03  0.12509000000E+03 0.  0.
        -13    1    3    3    0    0  0.14491610437E+02 -0.33135695353E+02 -0.21361905267E+02  0.42003847922E+02  0.10566000000E+00 0. -1.
         23    2    1    0    0    0 -0.27996825298E+02 -0.30041959506E+01 -0.88601015222E+01  0.95571381824E+02  0.90898515965E+02 0.  0.
         13    1    3    3    0    0 -0.42488435734E+02  0.30131499403E+02  0.12501803745E+02  0.53567533902E+02  0.10566000000E+00 0.  1.
         22    1    1    0    0    0  0.27996825298E+02  0.30041959506E+01  0.88601015222E+01  0.29518618176E+02  0.00000000000E+00 0.  1.
</event>
<event>
 5    1  0.1264731E-009  0.9118800E+02  0.7815553E-02  0.1125453E+00
         25   -1    0    0    0    0  0.00000000000E+00  0.00000000000E+00  0.99999998245E-14  0.12509000000E+03  0.12509000000E+03 0.  0.
        -13    1    3    3    0    0 -0.26434337576E+02  0.13633847307E+02 -0.29888112700E+02  0.42165939339E+02  0.10566000000E+00 0.  1.
         23    2    1    0    0    0  0.20162310681E+02  0.19048649720E+02 -0.84402717995E+00  0.97339644867E+02  0.93300183562E+02 0.  0.
         13    1    3    3    0    0  0.46596648257E+02  0.54148024124E+01  0.29044085520E+02  0.55173705528E+02  0.10566000000E+00 0. -1.
         22    1    1    0    0    0 -0.20162310681E+02 -0.19048649720E+02  0.84402717995E+00  0.27750355133E+02  0.00000000000E+00 0. -1.
</event>
<event>
 5    1  0.1264731E-009  0.9118800E+02  0.7815553E-02  0.1125453E+00
         25   -1    0    0    0    0  0.00000000000E+00  0.00000000000E+00  0.99999998245E-14  0.12509000000E+03  0.12509000000E+03 0.  0.
        -13    1    3    3    0    0 -0.13681898227E+02 -0.39331402719E+02 -0.34241443761E+01  0.41783842663E+02  0.10566000000E+00 0. -1.
         23    2    1    0    0    0  0.12401318626E+02 -0.23910693982E+01  0.26310748762E+02  0.95904979580E+02  0.91356443075E+02 0.  0.
         13    1    3    3    0    0  0.26083216853E+02  0.36940333321E+02  0.29734893138E+02  0.54121136917E+02  0.10566000000E+00 0.  1.
         22    1    1    0    0    0 -0.12401318626E+02  0.23910693982E+01 -0.26310748762E+02  0.29185020420E+02  0.00000000000E+00 0.  1.
</event>
<event>
 5    1  0.1264731E-009  0.9118800E+02  0.7815553E-02  0.1125453E+00
         25   -1    0    0    0    0  0.00000000000E+00  0.00000000000E+00  0.99999998245E-14  0.12509000000E+03  0.12509000000E+03 0.  0.
        -13    1    3    3    0    0 -0.31630237066E+01 -0.22147207612E+02 -0.24225376940E+02  0.32975499631E+02  0.10566000000E+00 0. -1.
         23    2    1    0    0    0  0.12132793393E+01  0.27099699862E+02  0.13140223025E+02  0.94948148024E+02  0.90036767894E+02 0.  0.
         13    1    3    3    0    0  0.43763030460E+01  0.49246907474E+02  0.37365599965E+02  0.61972648394E+02  0.10566000000E+00 0.  1.
         22    1    1    0    0    0 -0.12132793393E+01 -0.27099699862E+02 -0.13140223025E+02  0.30141851976E+02  0.00000000000E+00 0.  1.
</event>
<event>
 5    1  0.1264731E-009  0.9118800E+02  0.7815553E-02  0.1125453E+00
         25   -1    0    0    0    0  0.00000000000E+00  0.00000000000E+00  0.99999998245E-14  0.12509000000E+03  0.12509000000E+03 0.  0.
        -13    1    3    3    0    0  0.33755023340E+02 -0.16635008885E+02  0.62039548798E+01  0.38139550882E+02  0.10566000000E+00 0. -1.
         23    2    1    0    0    0 -0.19723519974E+02 -0.25259425883E+02 -0.22434433853E+01  0.92963859953E+02  0.87236405147E+02 0.  0.
         13    1    3    3    0    0 -0.53478543314E+02 -0.86244169979E+01 -0.84473982651E+01  0.54824309071E+02  0.10566000000E+00 0.  1.
         22    1    1    0    0    0  0.19723519974E+02  0.25259425883E+02  0.22434433853E+01  0.32126140047E+02  0.00000000000E+00 0.  1.
</event>
<event>
 5    1  0.1264731E-009  0.9118800E+02  0.7815553E-02  0.1125453E+00
         25   -1    0    0    0    0  0.00000000000E+00  0.00000000000E+00  0.99999998245E-14  0.12509000000E+03  0.12509000000E+03 0.  0.
        -13    1    3    3    0    0  0.24969805410E+02  0.23412597746E+02 -0.25361858924E+02  0.42601361100E+02  0.10566000000E+00 0.  1.
         23    2    1    0    0    0 -0.16939120950E+02 -0.12085485263E+02 -0.17130585223E+02  0.98137268734E+02  0.94363519392E+02 0.  0.
         13    1    3    3    0    0 -0.41908926360E+02 -0.35498083009E+02  0.82312737012E+01  0.55535907634E+02  0.10566000000E+00 0. -1.
         22    1    1    0    0    0  0.16939120950E+02  0.12085485263E+02  0.17130585223E+02  0.26952731266E+02  0.00000000000E+00 0.  1.
</event>
<event>
 5    1  0.1264731E-009  0.9118800E+02  0.7815553E-02  0.1125453E+00
         25   -1    0    0    0    0  0.00000000000E+00  0.00000000000E+00  0.99999998245E-14  0.12509000000E+03  0.12509000000E+03 0.  0.
        -13    1    3    3    0    0 -0.37706032296E+02  0.11709350702E+02 -0.14504520081E+02  0.42062406400E+02  0.10566000000E+00 0.  1.
         23    2    1    0    0    0 -0.67625276665E+01 -0.26162474165E+02  0.93759962463E+01  0.96487270402E+02  0.92150296847E+02 0.  0.
         13    1    3    3    0    0  0.30943504629E+02 -0.37871824867E+02  0.23880516327E+02  0.54424864001E+02  0.10566000000E+00 0. -1.
         22    1    1    0    0    0  0.67625276665E+01  0.26162474165E+02 -0.93759962463E+01  0.28602729598E+02  0.00000000000E+00 0. -1.
</event>
<event>
 5    1  0.1264731E-009  0.9118800E+02  0.7815553E-02  0.1125453E+00
         25   -1    0    0    0    0  0.00000000000E+00  0.00000000000E+00  0.99999998245E-14  0.12509000000E+03  0.12509000000E+03 0.  0.
        -13    1    3    3    0    0  0.52761314823E+02 -0.29929022978E+01 -0.27181962168E+02  0.59427132165E+02  0.10566000000E+00 0.  1.
         23    2    1    0    0    0  0.28005389901E+02 -0.87047453520E+01 -0.12417959790E+01  0.95736695034E+02  0.91125727782E+02 0.  0.
         13    1    3    3    0    0 -0.24755924922E+02 -0.57118430542E+01  0.25940166189E+02  0.36309562869E+02  0.10566000000E+00 0. -1.
         22    1    1    0    0    0 -0.28005389901E+02  0.87047453520E+01  0.12417959790E+01  0.29353304966E+02  0.00000000000E+00 0.  1.
</event>
<event>
 5    1  0.1264731E-009  0.9118800E+02  0.7815553E-02  0.1125453E+00
         25   -1    0    0    0    0  0.00000000000E+00  0.00000000000E+00  0.99999998245E-14  0.12509000000E+03  0.12509000000E+03 0.  0.
        -13    1    3    3    0    0 -0.39697633766E+02  0.52385484591E+01 -0.43376006727E+02  0.59032479536E+02  0.10566000000E+00 0. -1.
         23    2    1    0    0    0 -0.18369143395E+02  0.16576516426E+02 -0.15611244915E+02  0.95833935780E+02  0.91259114358E+02 0.  0.
         13    1    3    3    0    0  0.21328490371E+02  0.11337967966E+02  0.27764761813E+02  0.36801456244E+02  0.10566000000E+00 0.  1.
         22    1    1    0    0    0  0.18369143395E+02 -0.16576516426E+02  0.15611244915E+02  0.29256064220E+02  0.00000000000E+00 0. -1.
</event>
<event>
 5    1  0.1264731E-009  0.9118800E+02  0.7815553E-02  0.1125453E+00
         25   -1    0    0    0    0  0.00000000000E+00  0.00000000000E+00  0.99999998245E-14  0.12509000000E+03  0.12509000000E+03 0.  0.
        -13    1    3    3    0    0  0.15029815422E+02 -0.51048815518E+02  0.10845847394E+02  0.54309488003E+02  0.10566000000E+00 0.  1.
         23    2    1    0    0    0 -0.25778089377E+01 -0.23994463034E+02 -0.15866732559E+02  0.96208646893E+02  0.91771298234E+02 0.  0.
         13    1    3    3    0    0 -0.17607624360E+02  0.27054352484E+02 -0.26712579952E+02  0.41899158890E+02  0.10566000000E+00 0. -1.
         22    1    1    0    0    0  0.25778089377E+01  0.23994463034E+02  0.15866732559E+02  0.28881353107E+02  0.00000000000E+00 0. -1.
</event>
<event>
 5    1  0.1264731E-009  0.9118800E+02  0.7815553E-02  0.1125453E+00
         25   -1    0    0    0    0  0.00000000000E+00  0.00000000000E+00  0.99999998245E-14  0.12509000000E+03  0.12509000000E+03 0.  0.
        -13    1    3    3    0    0  0.65679221054E+01 -0.33863589453E+02 -0.45317350771E+02  0.56952205720E+02  0.10566000000E+00 0. -1.
         23    2    1    0    0    0 -0.15014821975E+02 -0.81050367138E+01 -0.18281463706E+02  0.10008303268E+03  0.96908539443E+02 0.  0.
         13    1    3    3    0    0 -0.21582744080E+02  0.25758552740E+02  0.27035887064E+02  0.43130826965E+02  0.10566000000E+00 0.  1.
         22    1    1    0    0    0  0.15014821975E+02  0.81050367138E+01  0.18281463706E+02  0.25006967316E+02  0.00000000000E+00 0. -1.
</event>
<event>
 5    1  0.1264731E-009  0.9118800E+02  0.7815553E-02  0.1125453E+00
         25   -1    0    0    0    0  0.00000000000E+00  0.00000000000E+00  0.99999998245E-14  0.12509000000E+03  0.12509000000E+03 0.  0.
        -13    1    3    3    0    0 -0.11482631555E+02  0.36942317501E+02 -0.12068863720E+02  0.40524736708E+02  0.10566000000E+00 0. -1.
         23    2    1    0    0    0  0.22789573751E+02  0.67407409739E+01  0.18055136707E+02  0.95243891005E+02  0.90446716644E+02 0.  0.
         13    1    3    3    0    0  0.34272205306E+02 -0.30201576527E+02  0.30124000427E+02  0.54719154297E+02  0.10566000000E+00 0.  1.
         22    1    1    0    0    0 -0.22789573751E+02 -0.67407409739E+01 -0.18055136707E+02  0.29846108995E+02  0.00000000000E+00 0.  1.
</event>
<event>
 5    1  0.1264731E-009  0.9118800E+02  0.7815553E-02  0.1125453E+00
         25   -1    0    0    0    0  0.00000000000E+00  0.00000000000E+00  0.99999998245E-14  0.12509000000E+03  0.12509000000E+03 0.  0.
        -13    1    3    3    0    0 -0.10253281201E+01  0.34105999648E+01 -0.32845416825E+02  0.33038100131E+02  0.10566000000E+00 0.  1.
         23    2    1    0    0    0 -0.17382771896E+02 -0.93471088727E+01  0.24272284498E+02  0.93806250260E+02  0.88436076293E+02 0.  0.
         13    1    3    3    0    0 -0.16357443776E+02 -0.12757708837E+02  0.57117701322E+02  0.60768150129E+02  0.10566000000E+00 0. -1.
         22    1    1    0    0    0  0.17382771896E+02  0.93471088727E+01 -0.24272284498E+02  0.31283749740E+02  0.00000000000E+00 0. -1.
</event>
<event>
 5    1  0.1264731E-009  0.9118800E+02  0.7815553E-02  0.1125453E+00
         25   -1    0    0    0    0  0.00000000000E+00  0.00000000000E+00  0.99999998245E-14  0.12509000000E+03  0.12509000000E+03 0.  0.
        -13    1    3    3    0    0  0.20979164573E+02 -0.36379131797E+02 -0.38530039510E+02  0.56992470425E+02  0.10566000000E+00 0.  1.
         23    2    1    0    0    0  0.61419883844E+01 -0.20787051994E+01 -0.28742807233E+02  0.95624867992E+02  0.90972091183E+02 0.  0.
         13    1    3    3    0    0 -0.14837176189E+02  0.34300426598E+02  0.97872322767E+01  0.38632397566E+02  0.10566000000E+00 0. -1.
         22    1    1    0    0    0 -0.61419883844E+01  0.20787051994E+01  0.28742807233E+02  0.29465132008E+02  0.00000000000E+00 0.  1.
</event>
<event>
 5    1  0.1264731E-009  0.9118800E+02  0.7815553E-02  0.1125453E+00
         25   -1    0    0    0    0  0.00000000000E+00  0.00000000000E+00  0.99999998245E-14  0.12509000000E+03  0.12509000000E+03 0.  0.
        -13    1    3    3    0    0 -0.16228108625E+02 -0.39650616177E+02  0.40348251530E+02  0.58851639215E+02  0.10566000000E+00 0.  1.
         23    2    1    0    0    0  0.73832197287E+01 -0.21108828716E+02  0.19688802619E+02  0.95294974713E+02  0.90517339077E+02 0.  0.
         13    1    3    3    0    0  0.23611328354E+02  0.18541787461E+02 -0.20659448911E+02  0.36443335498E+02  0.10566000000E+00 0. -1.
         22    1    1    0    0    0 -0.73832197287E+01  0.21108828716E+02 -0.19688802619E+02  0.29795025287E+02  0.00000000000E+00 0.  1.
</event>
<event>
 5    1  0.1264731E-009  0.9118800E+02  0.7815553E-02  0.1125453E+00
         25   -1    0    0    0    0  0.00000000000E+00  0.00000000000E+00  0.99999998245E-14  0.12509000000E+03  0.12509000000E+03 0.  0.
        -13    1    3    3    0    0 -0.40061030880E+02  0.32629765050E+02  0.12897671283E+02  0.53253627585E+02  0.10566000000E+00 0. -1.
         23    2    1    0    0    0 -0.24181424310E+02 -0.68966347994E+01  0.14834455778E+02  0.95894693332E+02  0.91342357523E+02 0.  0.
         13    1    3    3    0    0  0.15879606570E+02 -0.39526399849E+02  0.19367844948E+01  0.42641065747E+02  0.10566000000E+00 0.  1.
         22    1    1    0    0    0  0.24181424310E+02  0.68966347994E+01 -0.14834455778E+02  0.29195306668E+02  0.00000000000E+00 0. -1.
</event>
<event>
 5    1  0.1264731E-009  0.9118800E+02  0.7815553E-02  0.1125453E+00
         25   -1    0    0    0    0  0.00000000000E+00  0.00000000000E+00  0.99999998245E-14  0.12509000000E+03  0.12509000000E+03 0.  0.
        -13    1    3    3    0    0 -0.13812799668E+02 -0.34199173407E+01  0.33619889475E+02  0.36507497882E+02  0.10566000000E+00 0.  1.
         23    2    1    0    0    0  0.13785731884E+01  0.26337775982E+02 -0.14426009311E+02  0.95028585324E+02  0.90148451880E+02 0.  0.
         13    1    3    3    0    0  0.15191372857E+02  0.29757693323E+02 -0.48045898786E+02  0.58521087441E+02  0.10566000000E+00 0. -1.
         22    1    1    0    0    0 -0.13785731884E+01 -0.26337775982E+02  0.14426009311E+02  0.30061414676E+02  0.00000000000E+00 0. -1.
</event>
<event>
 5    1  0.1264731E-009  0.9118800E+02  0.7815553E-02  0.1125453E+00
         25   -1    0    0    0    0  0.00000000000E+00  0.00000000000E+00  0.99999998245E-14  0.12509000000E+03  0.12509000000E+03 0.  0.
        -13    1    3    3    0    0  0.29887524472E+02 -0.10780204607E+02 -0.11068256901E+02  0.33645124540E+02  0.10566000000E+00 0. -1.
         23    2    1    0    0    0 -0.15186135557E+02  0.23472085601E+02  0.11857979558E+02  0.94722761160E+02  0.89723086700E+02 0.  0.
         13    1    3    3    0    0 -0.45073660029E+02  0.34252290208E+02  0.22926236458E+02  0.61077636620E+02  0.10566000000E+00 0.  1.
         22    1    1    0    0    0  0.15186135557E+02 -0.23472085601E+02 -0.11857979558E+02  0.30367238840E+02  0.00000000000E+00 0.  1.
</event>
<event>
 5    1  0.1264731E-009  0.9118800E+02  0.7815553E-02  0.1125453E+00
         25   -1    0    0    0    0  0.00000000000E+00  0.00000000000E+00  0.99999998245E-14  0.12509000000E+03  0.12509000000E+03 0.  0.
        -13    1    3    3    0    0 -0.35826404271E+01  0.47343361981E+02  0.12895912013E+02  0.49199034002E+02  0.10566000000E+00 0.  1.
         23    2    1    0    0    0 -0.47195552724E+01  0.75150629222E+01  0.30913425181E+02  0.92928062416E+02  0.87185059244E+02 0.  0.
         13    1    3    3    0    0 -0.11369148454E+01 -0.39828299058E+02  0.18017513169E+02  0.43729028414E+02  0.10566000000E+00 0. -1.
         22    1    1    0    0    0  0.47195552724E+01 -0.75150629222E+01 -0.30913425181E+02  0.32161937584E+02  0.00000000000E+00 0.  1.
</event>
<event>
 5    1  0.1264731E-009  0.9118800E+02  0.7815553E-02  0.1125453E+00
         25   -1    0    0    0    0  0.00000000000E+00  0.00000000000E+00  0.99999998245E-14  0.12509000000E+03  0.12509000000E+03 0.  0.
        -13    1    3    3    0    0 -0.21867053227E+02 -0.99272330984E+01  0.28484313132E+02  0.37257015882E+02  0.10566000000E+00 0.  1.
         23    2    1    0    0    0  0.27730659639E+02 -0.64868909821E+01 -0.35343609174E+01  0.96392248420E+02  0.92021218259E+02 0.  0.
         13    1    3    3    0    0  0.49597712866E+02  0.34403421163E+01 -0.32018674049E+02  0.59135232538E+02  0.10566000000E+00 0. -1.
         22    1    1    0    0    0 -0.27730659639E+02  0.64868909821E+01  0.35343609174E+01  0.28697751580E+02  0.00000000000E+00 0. -1.
</event>
<event>
 5    1  0.1264731E-009  0.9118800E+02  0.7815553E-02  0.1125453E+00
         25   -1    0    0    0    0  0.00000000000E+00  0.00000000000E+00  0.99999998245E-14  0.12509000000E+03  0.12509000000E+03 0.  0.
        -13    1    3    3    0    0 -0.27313858170E+02  0.17114577259E+02  0.50938743157E+02  0.60280364310E+02  0.10566000000E+00 0. -1.
         23    2    1    0    0    0 -0.15919966790E+01  0.94866670700E+01  0.27674341485E+02  0.95791527648E+02  0.91200966481E+02 0.  0.
         13    1    3    3    0    0  0.25721861491E+02 -0.76279101892E+01 -0.23264401672E+02  0.35511163338E+02  0.10566000000E+00 0.  1.
         22    1    1    0    0    0  0.15919966790E+01 -0.94866670700E+01 -0.27674341485E+02  0.29298472352E+02  0.00000000000E+00 0. -1.
</event>
<event>
 5    1  0.1264731E-009  0.9118800E+02  0.7815553E-02  0.1125453E+00
         25   -1    0    0    0    0  0.00000000000E+00  0.00000000000E+00  0.99999998245E-14  0.12509000000E+03  0.12509000000E+03 0.  0.
        -13    1    3    3    0    0  0.42266274166E+02  0.20569210620E+02 -0.39236382369E+02  0.61229365690E+02  0.10566000000E+00 0.  1.
         23    2    1    0    0    0  0.18447209420E+02  0.20230094339E+01 -0.23097989007E+02  0.95460467457E+02  0.90745752784E+02 0.  0.
         13    1    3    3    0    0 -0.23819064747E+02 -0.18546201186E+02  0.16138393362E+02  0.34231101767E+02  0.10566000000E+00 0. -1.
         22    1    1    0    0    0 -0.18447209420E+02 -0.20230094339E+01  0.23097989007E+02  0.29629532543E+02  0.00000000000E+00 0.  1.
</event>
<event>
 5    1  0.1264731E-009  0.9118800E+02  0.7815553E-02  0.1125453E+00
         25   -1    0    0    0    0  0.00000000000E+00  0.00000000000E+00  0.99999998245E-14  0.12509000000E+03  0.12509000000E+03 0.  0.
        -13    1    3    3    0    0 -0.15346913744E+02 -0.36838116385E+02 -0.45767731660E+01  0.40168801288E+02  0.10566000000E+00 0. -1.
         23    2    1    0    0    0  0.17197417671E+02  0.35015383863E+01 -0.23860067867E+02  0.95470499932E+02  0.90759581164E+02 0.  0.
         13    1    3    3    0    0  0.32544331416E+02  0.40339654771E+02 -0.19283294701E+02  0.55301698644E+02  0.10566000000E+00 0.  1.
         22    1    1    0    0    0 -0.17197417671E+02 -0.35015383863E+01  0.23860067867E+02  0.29619500068E+02  0.00000000000E+00 0.  1.
</event>
<event>
 5    1  0.1264731E-009  0.9118800E+02  0.7815553E-02  0.1125453E+00
         25   -1    0    0    0    0  0.00000000000E+00  0.00000000000E+00  0.99999998245E-14  0.12509000000E+03  0.12509000000E+03 0.  0.
        -13    1    3    3    0    0  0.37973137225E+02 -0.31151603725E+02 -0.18392176363E+02  0.52446781415E+02  0.10566000000E+00 0.  1.
         23    2    1    0    0    0  0.25863341806E+02  0.94816789839E+01 -0.10699047080E+02  0.95538616036E+02  0.90853414135E+02 0.  0.
         13    1    3    3    0    0 -0.12109795419E+02  0.40633282709E+02  0.76931292832E+01  0.43091834621E+02  0.10566000000E+00 0. -1.
         22    1    1    0    0    0 -0.25863341806E+02 -0.94816789839E+01  0.10699047080E+02  0.29551383964E+02  0.00000000000E+00 0. -1.
</event>
<event>
 5    1  0.1264731E-009  0.9118800E+02  0.7815553E-02  0.1125453E+00
         25   -1    0    0    0    0  0.00000000000E+00  0.00000000000E+00  0.99999998245E-14  0.12509000000E+03  0.12509000000E+03 0.  0.
        -13    1    3    3    0    0  0.12201630054E+02 -0.16531862726E+02 -0.58066130444E+02  0.61594390410E+02  0.10566000000E+00 0.  1.
         23    2    1    0    0    0  0.11888564799E+02 -0.11515063733E+02 -0.24572399282E+02  0.95463365493E+02  0.90749747542E+02 0.  0.
         13    1    3    3    0    0 -0.31306525535E+00  0.50167989932E+01  0.33493731162E+02  0.33868975083E+02  0.10566000000E+00 0. -1.
         22    1    1    0    0    0 -0.11888564799E+02  0.11515063733E+02  0.24572399282E+02  0.29626634507E+02  0.00000000000E+00 0.  1.
</event>
<event>
 5    1  0.1264731E-009  0.9118800E+02  0.7815553E-02  0.1125453E+00
         25   -1    0    0    0    0  0.00000000000E+00  0.00000000000E+00  0.99999998245E-14  0.12509000000E+03  0.12509000000E+03 0.  0.
        -13    1    3    3    0    0 -0.49076005605E+02  0.18976732713E+02 -0.21168830679E+02  0.56715970122E+02  0.10566000000E+00 0.  1.
         23    2    1    0    0    0 -0.21559931278E+02 -0.79145283554E+01 -0.19053661167E+02  0.95248545617E+02  0.90453153856E+02 0.  0.
         13    1    3    3    0    0  0.27516074326E+02 -0.26891261068E+02  0.21151695124E+01  0.38532575495E+02  0.10566000000E+00 0. -1.
         22    1    1    0    0    0  0.21559931278E+02  0.79145283554E+01  0.19053661167E+02  0.29841454383E+02  0.00000000000E+00 0.  1.
</event>
<event>
 5    1  0.1264731E-009  0.9118800E+02  0.7815553E-02  0.1125453E+00
         25   -1    0    0    0    0  0.00000000000E+00  0.00000000000E+00  0.99999998245E-14  0.12509000000E+03  0.12509000000E+03 0.  0.
        -13    1    3    3    0    0 -0.41575233491E+02  0.44769141518E+02 -0.55262320588E+01  0.61345957299E+02  0.10566000000E+00 0.  1.
         23    2    1    0    0    0 -0.24495474086E+02  0.14454853203E+02 -0.53913257803E+01  0.96141123935E+02  0.91679214034E+02 0.  0.
         13    1    3    3    0    0  0.17079759406E+02 -0.30314288316E+02  0.13490627856E+00  0.34795166635E+02  0.10566000000E+00 0. -1.
         22    1    1    0    0    0  0.24495474086E+02 -0.14454853203E+02  0.53913257803E+01  0.28948876065E+02  0.00000000000E+00 0.  1.
</event>
<event>
 5    1  0.1264731E-009  0.9118800E+02  0.7815553E-02  0.1125453E+00
         25   -1    0    0    0    0  0.00000000000E+00  0.00000000000E+00  0.99999998245E-14  0.12509000000E+03  0.12509000000E+03 0.  0.
        -13    1    3    3    0    0 -0.19502951284E+02 -0.13138199838E+02 -0.21102896494E+02  0.31596215093E+02  0.10566000000E+00 0.  1.
         23    2    1    0    0    0  0.18631646160E+02 -0.94825380086E+01  0.25623837326E+02  0.92019804884E+02  0.85872036693E+02 0.  0.
         13    1    3    3    0    0  0.38134597444E+02  0.36556618289E+01  0.46726733820E+02  0.60423589790E+02  0.10566000000E+00 0. -1.
         22    1    1    0    0    0 -0.18631646160E+02  0.94825380086E+01 -0.25623837326E+02  0.33070195116E+02  0.00000000000E+00 0. -1.
</event>
<event>
 5    1  0.1264731E-009  0.9118800E+02  0.7815553E-02  0.1125453E+00
         25   -1    0    0    0    0  0.00000000000E+00  0.00000000000E+00  0.99999998245E-14  0.12509000000E+03  0.12509000000E+03 0.  0.
        -13    1    3    3    0    0  0.12861495270E+01  0.27790486358E+02 -0.22455244960E+02  0.35752125851E+02  0.10566000000E+00 0. -1.
         23    2    1    0    0    0  0.95682392214E+00 -0.11885116704E+01  0.29663887877E+02  0.95386897199E+02  0.90644281901E+02 0.  0.
         13    1    3    3    0    0 -0.32932560484E+00 -0.28978998029E+02  0.52119132837E+02  0.59634771348E+02  0.10566000000E+00 0.  1.
         22    1    1    0    0    0 -0.95682392214E+00  0.11885116704E+01 -0.29663887877E+02  0.29703102801E+02  0.00000000000E+00 0.  1.
</event>
<event>
 5    1  0.1264731E-009  0.9118800E+02  0.7815553E-02  0.1125453E+00
         25   -1    0    0    0    0  0.00000000000E+00  0.00000000000E+00  0.99999998245E-14  0.12509000000E+03  0.12509000000E+03 0.  0.
        -13    1    3    3    0    0 -0.93948885591E+01  0.50745443644E+02 -0.14442488030E+02  0.53590676485E+02  0.10566000000E+00 0.  1.
         23    2    1    0    0    0  0.10320015934E+02  0.24194425302E+02  0.12235297333E+02  0.96080080224E+02  0.91595886209E+02 0.  0.
         13    1    3    3    0    0  0.19714904493E+02 -0.26551018341E+02  0.26677785363E+02  0.42489403738E+02  0.10566000000E+00 0. -1.
         22    1    1    0    0    0 -0.10320015934E+02 -0.24194425302E+02 -0.12235297333E+02  0.29009919776E+02  0.00000000000E+00 0.  1.
</event>
<event>
 4    1  0.1264731E-009  0.9118800E+02  0.7815553E-02  0.1125453E+00
         25   -1    0    0    0    0  0.00000000000E+00  0.00000000000E+00  0.99999998245E-14  0.12509000000E+03  0.12509000000E+03 0.  0.
        -13    1    1    0    0    0  0.33696012066E+02  0.68422118849E+01  0.95630770587E+01  0.35688943659E+02  0.10566000000E+00 0.  1.
         13    1    1    0    0    0 -0.88240463864E+01  0.11264214064E+02  0.33528581931E+02  0.36454400055E+02  0.10566000000E+00 0. -1.
         22    1    1    0    0    0 -0.24871965679E+02 -0.18106425948E+02 -0.43091658989E+02  0.52946656286E+02  0.00000000000E+00 0. -1.
</event>
<event>
 5    1  0.1264731E-009  0.9118800E+02  0.7815553E-02  0.1125453E+00
         25   -1    0    0    0    0  0.00000000000E+00  0.00000000000E+00  0.99999998245E-14  0.12509000000E+03  0.12509000000E+03 0.  0.
        -13    1    3    3    0    0 -0.31226963999E+02 -0.33935083421E+02  0.69665767740E+01  0.46639656124E+02  0.10566000000E+00 0.  1.
         23    2    1    0    0    0 -0.25382988043E+02  0.13421597032E+02 -0.52646150670E+01  0.95898365571E+02  0.91347386380E+02 0.  0.
         13    1    3    3    0    0  0.58439759560E+01  0.47356680453E+02 -0.12231191841E+02  0.49258709447E+02  0.10566000000E+00 0. -1.
         22    1    1    0    0    0  0.25382988043E+02 -0.13421597032E+02  0.52646150670E+01  0.29191634429E+02  0.00000000000E+00 0. -1.
</event>
<event>
 5    1  0.1264731E-009  0.9118800E+02  0.7815553E-02  0.1125453E+00
         25   -1    0    0    0    0  0.00000000000E+00  0.00000000000E+00  0.99999998245E-14  0.12509000000E+03  0.12509000000E+03 0.  0.
        -13    1    3    3    0    0  0.76624642380E+01 -0.34483973731E+02  0.47447757225E+02  0.59153686548E+02  0.10566000000E+00 0. -1.
         23    2    1    0    0    0  0.16359797190E+02 -0.18361886552E+02  0.15382690571E+02  0.96082604201E+02  0.91599333071E+02 0.  0.
         13    1    3    3    0    0  0.86973329520E+01  0.16122087180E+02 -0.32065066654E+02  0.36928917654E+02  0.10566000000E+00 0.  1.
         22    1    1    0    0    0 -0.16359797190E+02  0.18361886552E+02 -0.15382690571E+02  0.29007395799E+02  0.00000000000E+00 0. -1.
</event>
<event>
 5    1  0.1264731E-009  0.9118800E+02  0.7815553E-02  0.1125453E+00
         25   -1    0    0    0    0  0.00000000000E+00  0.00000000000E+00  0.99999998245E-14  0.12509000000E+03  0.12509000000E+03 0.  0.
        -13    1    3    3    0    0  0.14210324968E+02  0.15841147742E+02 -0.46850880123E+02  0.51457666385E+02  0.10566000000E+00 0. -1.
         23    2    1    0    0    0  0.32359081360E+00  0.29533229182E+02 -0.87062414144E+01  0.94298524289E+02  0.89129662327E+02 0.  0.
         13    1    3    3    0    0 -0.13886734155E+02  0.13692081440E+02  0.38144638709E+02  0.42840857903E+02  0.10566000000E+00 0.  1.
         22    1    1    0    0    0 -0.32359081360E+00 -0.29533229182E+02  0.87062414144E+01  0.30791475711E+02  0.00000000000E+00 0. -1.
</event>
<event>
 5    1  0.1264731E-009  0.9118800E+02  0.7815553E-02  0.1125453E+00
         25   -1    0    0    0    0  0.00000000000E+00  0.00000000000E+00  0.99999998245E-14  0.12509000000E+03  0.12509000000E+03 0.  0.
        -13    1    3    3    0    0  0.13909299394E+02  0.45792909883E+01  0.32482768206E+02  0.35631164869E+02  0.10566000000E+00 0.  1.
         23    2    1    0    0    0 -0.29688119018E+02 -0.23590277290E+01 -0.65931863790E+01  0.94587220958E+02  0.89533920049E+02 0.  0.
         13    1    3    3    0    0 -0.43597418412E+02 -0.69383187173E+01 -0.39075954585E+02  0.58956056089E+02  0.10566000000E+00 0. -1.
         22    1    1    0    0    0  0.29688119018E+02  0.23590277290E+01  0.65931863790E+01  0.30502779042E+02  0.00000000000E+00 0. -1.
</event>
<event>
 5    1  0.1264731E-009  0.9118800E+02  0.7815553E-02  0.1125453E+00
         25   -1    0    0    0    0  0.00000000000E+00  0.00000000000E+00  0.99999998245E-14  0.12509000000E+03  0.12509000000E+03 0.  0.
        -13    1    3    3    0    0 -0.32743931737E+02 -0.38510765673E+01 -0.77339326673E+01  0.33864741766E+02  0.10566000000E+00 0.  1.
         23    2    1    0    0    0  0.28797120085E+02 -0.52585384778E+01 -0.86637074124E+00  0.95803877854E+02  0.91217904281E+02 0.  0.
         13    1    3    3    0    0  0.61541051822E+02 -0.14074619105E+01  0.68675619261E+01  0.61939136088E+02  0.10566000000E+00 0. -1.
         22    1    1    0    0    0 -0.28797120085E+02  0.52585384778E+01  0.86637074124E+00  0.29286122146E+02  0.00000000000E+00 0. -1.
</event>
<event>
 5    1  0.1264731E-009  0.9118800E+02  0.7815553E-02  0.1125453E+00
         25   -1    0    0    0    0  0.00000000000E+00  0.00000000000E+00  0.99999998245E-14  0.12509000000E+03  0.12509000000E+03 0.  0.
        -13    1    3    3    0    0  0.28747047860E+02 -0.19201625103E+02  0.78516634889E+01  0.35450739779E+02  0.10566000000E+00 0. -1.
         23    2    1    0    0    0 -0.26071217713E+02  0.62577605339E+01 -0.63452934672E+01  0.97537673254E+02  0.93565308714E+02 0.  0.
         13    1    3    3    0    0 -0.54818265573E+02  0.25459385637E+02 -0.14196956956E+02  0.62086933475E+02  0.10566000000E+00 0.  1.
         22    1    1    0    0    0  0.26071217713E+02 -0.62577605339E+01  0.63452934672E+01  0.27552326746E+02  0.00000000000E+00 0.  1.
</event>
<event>
 5    1  0.1264731E-009  0.9118800E+02  0.7815553E-02  0.1125453E+00
         25   -1    0    0    0    0  0.00000000000E+00  0.00000000000E+00  0.99999998245E-14  0.12509000000E+03  0.12509000000E+03 0.  0.
        -13    1    3    3    0    0  0.12119307565E+02  0.44244950961E+02 -0.16297899639E+02  0.48683939837E+02  0.10566000000E+00 0.  1.
         23    2    1    0    0    0  0.16606635029E+02  0.20373972653E+02  0.19792571775E+02  0.92186732896E+02  0.86114857812E+02 0.  0.
         13    1    3    3    0    0  0.44873274640E+01 -0.23870978308E+02  0.36090471413E+02  0.43502793060E+02  0.10566000000E+00 0. -1.
         22    1    1    0    0    0 -0.16606635029E+02 -0.20373972653E+02 -0.19792571775E+02  0.32903267104E+02  0.00000000000E+00 0.  1.
</event>
<event>
 5    1  0.1264731E-009  0.9118800E+02  0.7815553E-02  0.1125453E+00
         25   -1    0    0    0    0  0.00000000000E+00  0.00000000000E+00  0.99999998245E-14  0.12509000000E+03  0.12509000000E+03 0.  0.
        -13    1    3    3    0    0  0.98883789422E+01  0.30908475777E+02  0.40753768253E+02  0.52096014280E+02  0.10566000000E+00 0.  1.
         23    2    1    0    0    0 -0.40921634273E+01  0.30807598241E+02  0.12658272874E+01  0.93986041577E+02  0.88690020756E+02 0.  0.
         13    1    3    3    0    0 -0.13980542370E+02 -0.10087753669E+00 -0.39487940965E+02  0.41890027297E+02  0.10566000000E+00 0. -1.
         22    1    1    0    0    0  0.40921634273E+01 -0.30807598241E+02 -0.12658272874E+01  0.31103958423E+02  0.00000000000E+00 0.  1.
</event>
<event>
 5    1  0.1264731E-009  0.9118800E+02  0.7815553E-02  0.1125453E+00
         25   -1    0    0    0    0  0.00000000000E+00  0.00000000000E+00  0.99999998245E-14  0.12509000000E+03  0.12509000000E+03 0.  0.
        -13    1    3    3    0    0 -0.33822530220E+02  0.10143815642E+01 -0.20153577081E+02  0.39384900071E+02  0.10566000000E+00 0. -1.
         23    2    1    0    0    0 -0.16890022874E+01  0.13236950239E+02  0.25365639257E+02  0.96428436273E+02  0.92070397451E+02 0.  0.
         13    1    3    3    0    0  0.32133527933E+02  0.12222568675E+02  0.45519216338E+02  0.57043536202E+02  0.10566000000E+00 0.  1.
         22    1    1    0    0    0  0.16890022874E+01 -0.13236950239E+02 -0.25365639257E+02  0.28661563727E+02  0.00000000000E+00 0.  1.
</event>
<event>
 5    1  0.1264731E-009  0.9118800E+02  0.7815553E-02  0.1125453E+00
         25   -1    0    0    0    0  0.00000000000E+00  0.00000000000E+00  0.99999998245E-14  0.12509000000E+03  0.12509000000E+03 0.  0.
        -13    1    3    3    0    0 -0.12750326601E+02 -0.50629028046E+01 -0.33966117556E+02  0.36632118682E+02  0.10566000000E+00 0. -1.
         23    2    1    0    0    0 -0.11044698104E+01  0.25860411042E+02  0.14599060887E+02  0.95372777862E+02  0.90624794982E+02 0.  0.
         13    1    3    3    0    0  0.11645856790E+02  0.30923313846E+02  0.48565178444E+02  0.58740659180E+02  0.10566000000E+00 0.  1.
         22    1    1    0    0    0  0.11044698104E+01 -0.25860411042E+02 -0.14599060887E+02  0.29717222138E+02  0.00000000000E+00 0.  1.
</event>
<event>
 5    1  0.1264731E-009  0.9118800E+02  0.7815553E-02  0.1125453E+00
         25   -1    0    0    0    0  0.00000000000E+00  0.00000000000E+00  0.99999998245E-14  0.12509000000E+03  0.12509000000E+03 0.  0.
        -13    1    3    3    0    0  0.17230830965E+02 -0.47016866869E+02  0.17534160271E+02  0.53056057584E+02  0.10566000000E+00 0. -1.
         23    2    1    0    0    0  0.26277189929E+02 -0.48277331317E+01  0.69756172826E+01  0.97477376904E+02  0.93484662131E+02 0.  0.
         13    1    3    3    0    0  0.90463589646E+01  0.42189133738E+02 -0.10558542988E+02  0.44421319320E+02  0.10566000000E+00 0.  1.
         22    1    1    0    0    0 -0.26277189929E+02  0.48277331317E+01 -0.69756172826E+01  0.27612623096E+02  0.00000000000E+00 0. -1.
</event>
<event>
 5    1  0.1264731E-009  0.9118800E+02  0.7815553E-02  0.1125453E+00
         25   -1    0    0    0    0  0.00000000000E+00  0.00000000000E+00  0.99999998245E-14  0.12509000000E+03  0.12509000000E+03 0.  0.
        -13    1    3    3    0    0 -0.85452577191E+01 -0.44614014807E+02 -0.50460945578E+01  0.45704550988E+02  0.10566000000E+00 0.  1.
         23    2    1    0    0    0  0.26068523106E+02 -0.57718364508E+01  0.24877986448E+01  0.98274498233E+02  0.94545258304E+02 0.  0.
         13    1    3    3    0    0  0.34613780825E+02  0.38842178356E+02  0.75338932026E+01  0.52569947245E+02  0.10566000000E+00 0. -1.
         22    1    1    0    0    0 -0.26068523106E+02  0.57718364508E+01 -0.24877986448E+01  0.26815501767E+02  0.00000000000E+00 0. -1.
</event>
<event>
 5    1  0.1264731E-009  0.9118800E+02  0.7815553E-02  0.1125453E+00
         25   -1    0    0    0    0  0.00000000000E+00  0.00000000000E+00  0.99999998245E-14  0.12509000000E+03  0.12509000000E+03 0.  0.
        -13    1    3    3    0    0  0.33090535536E+02 -0.48034063133E+02  0.29468413537E+01  0.58403337243E+02  0.10566000000E+00 0.  1.
         23    2    1    0    0    0  0.14366105612E+01 -0.29570415712E+02  0.48118819675E+01  0.95096208253E+02  0.90242236679E+02 0.  0.
         13    1    3    3    0    0 -0.31653924975E+02  0.18463647421E+02  0.18650406139E+01  0.36692871010E+02  0.10566000000E+00 0. -1.
         22    1    1    0    0    0 -0.14366105612E+01  0.29570415712E+02 -0.48118819675E+01  0.29993791747E+02  0.00000000000E+00 0.  1.
</event>
<event>
 5    1  0.1264731E-009  0.9118800E+02  0.7815553E-02  0.1125453E+00
         25   -1    0    0    0    0  0.00000000000E+00  0.00000000000E+00  0.99999998245E-14  0.12509000000E+03  0.12509000000E+03 0.  0.
        -13    1    3    3    0    0  0.16521380909E+02  0.34736461169E+02 -0.22508216362E+02  0.44566901727E+02  0.10566000000E+00 0.  1.
         23    2    1    0    0    0  0.15980994285E+02 -0.88598087524E+00  0.19639384906E+02  0.99754598288E+02  0.96483663382E+02 0.  0.
         13    1    3    3    0    0 -0.54038662407E+00 -0.35622442045E+02  0.42147601268E+02  0.55187696560E+02  0.10566000000E+00 0. -1.
         22    1    1    0    0    0 -0.15980994285E+02  0.88598087524E+00 -0.19639384906E+02  0.25335401712E+02  0.00000000000E+00 0. -1.
</event>
<event>
 5    1  0.1264731E-009  0.9118800E+02  0.7815553E-02  0.1125453E+00
         25   -1    0    0    0    0  0.00000000000E+00  0.00000000000E+00  0.99999998245E-14  0.12509000000E+03  0.12509000000E+03 0.  0.
        -13    1    3    3    0    0  0.28626226796E+02  0.51899509368E+02 -0.91924060024E+01  0.59979425017E+02  0.10566000000E+00 0.  1.
         23    2    1    0    0    0  0.11064250088E+01  0.27959548392E+02 -0.41984257766E+01  0.96795348534E+02  0.92567554771E+02 0.  0.
         13    1    3    3    0    0 -0.27519801787E+02 -0.23939960976E+02  0.49939802258E+01  0.36815923517E+02  0.10566000000E+00 0. -1.
         22    1    1    0    0    0 -0.11064250088E+01 -0.27959548392E+02  0.41984257766E+01  0.28294651466E+02  0.00000000000E+00 0.  1.
</event>
<event>
 5    1  0.1264731E-009  0.9118800E+02  0.7815553E-02  0.1125453E+00
         25   -1    0    0    0    0  0.00000000000E+00  0.00000000000E+00  0.99999998245E-14  0.12509000000E+03  0.12509000000E+03 0.  0.
        -13    1    3    3    0    0 -0.50122199245E+02  0.46264726341E+01  0.19868938498E+02  0.54114923887E+02  0.10566000000E+00 0. -1.
         23    2    1    0    0    0 -0.24697018236E+02  0.11700209508E+02 -0.11786356940E+02  0.95328349807E+02  0.90563449883E+02 0.  0.
         13    1    3    3    0    0  0.25425181009E+02  0.70737368740E+01 -0.31655295438E+02  0.41213425920E+02  0.10566000000E+00 0.  1.
         22    1    1    0    0    0  0.24697018236E+02 -0.11700209508E+02  0.11786356940E+02  0.29761650193E+02  0.00000000000E+00 0. -1.
</event>
<event>
 5    1  0.1264731E-009  0.9118800E+02  0.7815553E-02  0.1125453E+00
         25   -1    0    0    0    0  0.00000000000E+00  0.00000000000E+00  0.99999998245E-14  0.12509000000E+03  0.12509000000E+03 0.  0.
        -13    1    3    3    0    0 -0.31632051681E+02  0.26740638866E+02  0.22848157678E+02  0.47304312001E+02  0.10566000000E+00 0. -1.
         23    2    1    0    0    0 -0.54402333715E+01  0.16177917679E+02 -0.20109278076E+02  0.98713794354E+02  0.95124702215E+02 0.  0.
         13    1    3    3    0    0  0.26191818310E+02 -0.10562721188E+02 -0.42957435754E+02  0.51409482353E+02  0.10566000000E+00 0.  1.
         22    1    1    0    0    0  0.54402333715E+01 -0.16177917679E+02  0.20109278076E+02  0.26376205646E+02  0.00000000000E+00 0.  1.
</event>
<event>
 5    1  0.1264731E-009  0.9118800E+02  0.7815553E-02  0.1125453E+00
         25   -1    0    0    0    0  0.00000000000E+00  0.00000000000E+00  0.99999998245E-14  0.12509000000E+03  0.12509000000E+03 0.  0.
        -13    1    3    3    0    0 -0.30105734126E+02 -0.39010339498E+02  0.16323677252E+01  0.49303525263E+02  0.10566000000E+00 0. -1.
         23    2    1    0    0    0 -0.13632445487E+02 -0.46494587524E+01  0.26586153529E+02  0.94852860650E+02  0.89904285645E+02 0.  0.
         13    1    3    3    0    0  0.16473288639E+02  0.34360880745E+02  0.24953785803E+02  0.45549335386E+02  0.10566000000E+00 0.  1.
         22    1    1    0    0    0  0.13632445487E+02  0.46494587524E+01 -0.26586153529E+02  0.30237139350E+02  0.00000000000E+00 0. -1.
</event>
<event>
 5    1  0.1264731E-009  0.9118800E+02  0.7815553E-02  0.1125453E+00
         25   -1    0    0    0    0  0.00000000000E+00  0.00000000000E+00  0.99999998245E-14  0.12509000000E+03  0.12509000000E+03 0.  0.
        -13    1    3    3    0    0  0.13456821394E+02 -0.22036979733E+02 -0.33783156596E+02  0.42520904875E+02  0.10566000000E+00 0. -1.
         23    2    1    0    0    0 -0.87583842883E+01 -0.23986304665E+02  0.14514001429E+02  0.95718102814E+02  0.91100202315E+02 0.  0.
         13    1    3    3    0    0 -0.22215205682E+02 -0.19493249323E+01  0.48297158025E+02  0.53197197939E+02  0.10566000000E+00 0.  1.
         22    1    1    0    0    0  0.87583842883E+01  0.23986304665E+02 -0.14514001429E+02  0.29371897186E+02  0.00000000000E+00 0.  1.
</event>
<event>
 5    1  0.1264731E-009  0.9118800E+02  0.7815553E-02  0.1125453E+00
         25   -1    0    0    0    0  0.00000000000E+00  0.00000000000E+00  0.99999998245E-14  0.12509000000E+03  0.12509000000E+03 0.  0.
        -13    1    3    3    0    0  0.41013529524E+01 -0.31844230055E+02 -0.15413236899E+02  0.35615377572E+02  0.10566000000E+00 0.  1.
         23    2    1    0    0    0 -0.54407684577E+01  0.15887980577E+02  0.22286829235E+02  0.97184218420E+02  0.93091566022E+02 0.  0.
         13    1    3    3    0    0 -0.95421214101E+01  0.47732210632E+02  0.37700066134E+02  0.61568840848E+02  0.10566000000E+00 0. -1.
         22    1    1    0    0    0  0.54407684577E+01 -0.15887980577E+02 -0.22286829235E+02  0.27905781580E+02  0.00000000000E+00 0. -1.
</event>
<event>
 5    1  0.1264731E-009  0.9118800E+02  0.7815553E-02  0.1125453E+00
         25   -1    0    0    0    0  0.00000000000E+00  0.00000000000E+00  0.99999998245E-14  0.12509000000E+03  0.12509000000E+03 0.  0.
        -13    1    3    3    0    0 -0.38448740549E+02  0.20790451436E+02  0.27515906351E+02  0.51649634917E+02  0.10566000000E+00 0.  1.
         23    2    1    0    0    0 -0.26412755743E+02  0.75108323471E+01 -0.12062869674E+02  0.95097349346E+02  0.90243818400E+02 0.  0.
         13    1    3    3    0    0  0.12035984806E+02 -0.13279619089E+02 -0.39578776025E+02  0.43447714429E+02  0.10566000000E+00 0. -1.
         22    1    1    0    0    0  0.26412755743E+02 -0.75108323471E+01  0.12062869674E+02  0.29992650654E+02  0.00000000000E+00 0.  1.
</event>
<event>
 5    1  0.1264731E-009  0.9118800E+02  0.7815553E-02  0.1125453E+00
         25   -1    0    0    0    0  0.00000000000E+00  0.00000000000E+00  0.99999998245E-14  0.12509000000E+03  0.12509000000E+03 0.  0.
        -13    1    3    3    0    0  0.30015900259E+01  0.19863247334E+02 -0.27462823754E+02  0.34026107475E+02  0.10566000000E+00 0. -1.
         23    2    1    0    0    0 -0.23522467591E+02 -0.21310119518E+02  0.52432648721E+01  0.92919835220E+02  0.87173254358E+02 0.  0.
         13    1    3    3    0    0 -0.26524057617E+02 -0.41173366852E+02  0.32706088626E+02  0.58893727745E+02  0.10566000000E+00 0.  1.
         22    1    1    0    0    0  0.23522467591E+02  0.21310119518E+02 -0.52432648721E+01  0.32170164780E+02  0.00000000000E+00 0.  1.
</event>
<event>
 5    1  0.1264731E-009  0.9118800E+02  0.7815553E-02  0.1125453E+00
         25   -1    0    0    0    0  0.00000000000E+00  0.00000000000E+00  0.99999998245E-14  0.12509000000E+03  0.12509000000E+03 0.  0.
        -13    1    3    3    0    0 -0.59349562589E+01  0.56652936648E+02  0.67393677947E+01  0.57360345004E+02  0.10566000000E+00 0. -1.
         23    2    1    0    0    0 -0.50660631354E+00  0.74817198259E+01  0.15751495129E+02  0.10764458856E+03  0.10622153767E+03 0.  0.
         13    1    3    3    0    0  0.54283499454E+01 -0.49171216822E+02  0.90121273342E+01  0.50284243556E+02  0.10566000000E+00 0.  1.
         22    1    1    0    0    0  0.50660631354E+00 -0.74817198259E+01 -0.15751495129E+02  0.17445411440E+02  0.00000000000E+00 0. -1.
</event>
<event>
 5    1  0.1264731E-009  0.9118800E+02  0.7815553E-02  0.1125453E+00
         25   -1    0    0    0    0  0.00000000000E+00  0.00000000000E+00  0.99999998245E-14  0.12509000000E+03  0.12509000000E+03 0.  0.
        -13    1    3    3    0    0 -0.32415450134E+02  0.29599420325E+01 -0.10579124703E+02  0.34226476707E+02  0.10566000000E+00 0. -1.
         23    2    1    0    0    0  0.24940313616E+02 -0.15670425764E+02 -0.79116957173E+01  0.94591206318E+02  0.89539487919E+02 0.  0.
         13    1    3    3    0    0  0.57355763750E+02 -0.18630367797E+02  0.26674289860E+01  0.60364729612E+02  0.10566000000E+00 0.  1.
         22    1    1    0    0    0 -0.24940313616E+02  0.15670425764E+02  0.79116957173E+01  0.30498793682E+02  0.00000000000E+00 0.  1.
</event>
<event>
 5    1  0.1264731E-009  0.9118800E+02  0.7815553E-02  0.1125453E+00
         25   -1    0    0    0    0  0.00000000000E+00  0.00000000000E+00  0.99999998245E-14  0.12509000000E+03  0.12509000000E+03 0.  0.
        -13    1    3    3    0    0 -0.92090788686E+01  0.11471707814E+02  0.31686478188E+02  0.34934957818E+02  0.10566000000E+00 0.  1.
         23    2    1    0    0    0  0.74623786675E+01 -0.29695932818E+02 -0.68225670556E+01  0.93719903690E+02  0.88313857379E+02 0.  0.
         13    1    3    3    0    0  0.16671457536E+02 -0.41167640632E+02 -0.38509045243E+02  0.58784945872E+02  0.10566000000E+00 0. -1.
         22    1    1    0    0    0 -0.74623786675E+01  0.29695932818E+02  0.68225670556E+01  0.31370096310E+02  0.00000000000E+00 0. -1.
</event>
<event>
 5    1  0.1264731E-009  0.9118800E+02  0.7815553E-02  0.1125453E+00
         25   -1    0    0    0    0  0.00000000000E+00  0.00000000000E+00  0.99999998245E-14  0.12509000000E+03  0.12509000000E+03 0.  0.
        -13    1    3    3    0    0 -0.11215361234E+02  0.26307636161E+02  0.40375552501E+02  0.49477999674E+02  0.10566000000E+00 0.  1.
         23    2    1    0    0    0 -0.12312589504E+02  0.27142092379E+02 -0.49954093071E+01  0.94870020630E+02  0.89928158333E+02 0.  0.
         13    1    3    3    0    0 -0.10972282698E+01  0.83445621756E+00 -0.45370961808E+02  0.45392020956E+02  0.10566000000E+00 0. -1.
         22    1    1    0    0    0  0.12312589504E+02 -0.27142092379E+02  0.49954093071E+01  0.30219979370E+02  0.00000000000E+00 0. -1.
</event>
<event>
 5    1  0.1264731E-009  0.9118800E+02  0.7815553E-02  0.1125453E+00
         25   -1    0    0    0    0  0.00000000000E+00  0.00000000000E+00  0.99999998245E-14  0.12509000000E+03  0.12509000000E+03 0.  0.
        -13    1    3    3    0    0 -0.21567446655E+02  0.12951490971E+02  0.22757802438E+02  0.33923805939E+02  0.10566000000E+00 0.  1.
         23    2    1    0    0    0  0.23898391935E+02 -0.10613986964E+02 -0.12508832265E+02  0.96102748647E+02  0.91626838626E+02 0.  0.
         13    1    3    3    0    0  0.45465838590E+02 -0.23565477935E+02 -0.35266634703E+02  0.62178942708E+02  0.10566000000E+00 0. -1.
         22    1    1    0    0    0 -0.23898391935E+02  0.10613986964E+02  0.12508832265E+02  0.28987251353E+02  0.00000000000E+00 0. -1.
</event>
<event>
 5    1  0.1264731E-009  0.9118800E+02  0.7815553E-02  0.1125453E+00
         25   -1    0    0    0    0  0.00000000000E+00  0.00000000000E+00  0.99999998245E-14  0.12509000000E+03  0.12509000000E+03 0.  0.
        -13    1    3    3    0    0  0.55901377789E+02  0.14762987496E+02 -0.15865564056E+02  0.59955292722E+02  0.10566000000E+00 0. -1.
         23    2    1    0    0    0  0.32125864879E+02  0.12736161433E+02  0.30389484630E+01  0.90398268853E+02  0.83476528447E+02 0.  0.
         13    1    3    3    0    0 -0.23775512911E+02 -0.20268260628E+01  0.18904512519E+02  0.30442976130E+02  0.10566000000E+00 0.  1.
         22    1    1    0    0    0 -0.32125864879E+02 -0.12736161433E+02 -0.30389484630E+01  0.34691731147E+02  0.00000000000E+00 0. -1.
</event>
<event>
 5    1  0.1264731E-009  0.9118800E+02  0.7815553E-02  0.1125453E+00
         25   -1    0    0    0    0  0.00000000000E+00  0.00000000000E+00  0.99999998245E-14  0.12509000000E+03  0.12509000000E+03 0.  0.
        -13    1    3    3    0    0 -0.82802722053E+01 -0.33261296948E+01  0.27688190144E+02  0.29090773177E+02  0.10566000000E+00 0.  1.
         23    2    1    0    0    0 -0.31000950878E+02  0.10600016312E+02 -0.22105301347E+02  0.85567049088E+02  0.75892399098E+02 0.  0.
         13    1    3    3    0    0 -0.22720678673E+02  0.13926146007E+02 -0.49793491491E+02  0.56476275911E+02  0.10566000000E+00 0. -1.
         22    1    1    0    0    0  0.31000950878E+02 -0.10600016312E+02  0.22105301347E+02  0.39522950912E+02  0.00000000000E+00 0. -1.
</event>
<event>
 5    1  0.1264731E-009  0.9118800E+02  0.7815553E-02  0.1125453E+00
         25   -1    0    0    0    0  0.00000000000E+00  0.00000000000E+00  0.99999998245E-14  0.12509000000E+03  0.12509000000E+03 0.  0.
        -13    1    3    3    0    0 -0.28657352390E+02 -0.21712109108E+02  0.43112899127E+02  0.56137267150E+02  0.10566000000E+00 0. -1.
         23    2    1    0    0    0 -0.18167317382E+02 -0.23593625934E+02  0.60476678019E+01  0.94704396642E+02  0.89697479630E+02 0.  0.
         13    1    3    3    0    0  0.10490035008E+02 -0.18815168259E+01 -0.37065231325E+02  0.38567129492E+02  0.10566000000E+00 0.  1.
         22    1    1    0    0    0  0.18167317382E+02  0.23593625934E+02 -0.60476678019E+01  0.30385603358E+02  0.00000000000E+00 0. -1.
</event>
<event>
 5    1  0.1264731E-009  0.9118800E+02  0.7815553E-02  0.1125453E+00
         25   -1    0    0    0    0  0.00000000000E+00  0.00000000000E+00  0.99999998245E-14  0.12509000000E+03  0.12509000000E+03 0.  0.
        -13    1    3    3    0    0 -0.53761477617E+00 -0.28822005859E+02 -0.20949620120E+02  0.35635583321E+02  0.10566000000E+00 0.  1.
         23    2    1    0    0    0  0.44127045539E+01  0.28745638171E+02 -0.49567243643E+01  0.95588257818E+02  0.90921736900E+02 0.  0.
         13    1    3    3    0    0  0.49503193300E+01  0.57567644031E+02  0.15992895755E+02  0.59952674497E+02  0.10566000000E+00 0. -1.
         22    1    1    0    0    0 -0.44127045539E+01 -0.28745638171E+02  0.49567243643E+01  0.29501742182E+02  0.00000000000E+00 0. -1.
</event>
<event>
 5    1  0.1264731E-009  0.9118800E+02  0.7815553E-02  0.1125453E+00
         25   -1    0    0    0    0  0.00000000000E+00  0.00000000000E+00  0.99999998245E-14  0.12509000000E+03  0.12509000000E+03 0.  0.
        -13    1    3    3    0    0  0.11259972184E+02 -0.33298151712E+02  0.19048252648E+02  0.39980007179E+02  0.10566000000E+00 0. -1.
         23    2    1    0    0    0  0.97928896782E+01 -0.70753760458E+01 -0.28408255289E+02  0.94219454119E+02  0.89018621262E+02 0.  0.
         13    1    3    3    0    0 -0.14670825062E+01  0.26222775666E+02 -0.47456507937E+02  0.54239446940E+02  0.10566000000E+00 0.  1.
         22    1    1    0    0    0 -0.97928896782E+01  0.70753760458E+01  0.28408255289E+02  0.30870545881E+02  0.00000000000E+00 0.  1.
</event>
<event>
 5    1  0.1264731E-009  0.9118800E+02  0.7815553E-02  0.1125453E+00
         25   -1    0    0    0    0  0.00000000000E+00  0.00000000000E+00  0.99999998245E-14  0.12509000000E+03  0.12509000000E+03 0.  0.
        -13    1    3    3    0    0  0.30606469607E+02 -0.31328148981E+02  0.54421004211E+01  0.44134300962E+02  0.10566000000E+00 0.  1.
         23    2    1    0    0    0  0.13665423960E+02  0.92448297360E+01 -0.23209578534E+02  0.96613777909E+02  0.92321865542E+02 0.  0.
         13    1    3    3    0    0 -0.16941045647E+02  0.40572978717E+02 -0.28651678955E+02  0.52479476947E+02  0.10566000000E+00 0. -1.
         22    1    1    0    0    0 -0.13665423960E+02 -0.92448297360E+01  0.23209578534E+02  0.28476222091E+02  0.00000000000E+00 0. -1.
</event>
<event>
 5    1  0.1264731E-009  0.9118800E+02  0.7815553E-02  0.1125453E+00
         25   -1    0    0    0    0  0.00000000000E+00  0.00000000000E+00  0.99999998245E-14  0.12509000000E+03  0.12509000000E+03 0.  0.
        -13    1    3    3    0    0 -0.36223723817E+02  0.37793997421E+01  0.45251069653E+02  0.58087111293E+02  0.10566000000E+00 0.  1.
         23    2    1    0    0    0 -0.27512380398E+02  0.42027593005E+01  0.83094117092E+01  0.96044508373E+02  0.91547293815E+02 0.  0.
         13    1    3    3    0    0  0.87113434200E+01  0.42335955836E+00 -0.36941657943E+02  0.37957397081E+02  0.10566000000E+00 0. -1.
         22    1    1    0    0    0  0.27512380398E+02 -0.42027593005E+01 -0.83094117092E+01  0.29045491627E+02  0.00000000000E+00 0.  1.
</event>
<event>
 5    1  0.1264731E-009  0.9118800E+02  0.7815553E-02  0.1125453E+00
         25   -1    0    0    0    0  0.00000000000E+00  0.00000000000E+00  0.99999998245E-14  0.12509000000E+03  0.12509000000E+03 0.  0.
        -13    1    3    3    0    0 -0.25157087140E+02  0.25644232965E+02  0.44404417905E+02  0.57116277988E+02  0.10566000000E+00 0. -1.
         23    2    1    0    0    0 -0.19010399980E+02 -0.52263164081E+01  0.20557878838E+02  0.96606038321E+02  0.92311378319E+02 0.  0.
         13    1    3    3    0    0  0.61466871599E+01 -0.30870549373E+02 -0.23846539066E+02  0.39489760333E+02  0.10566000000E+00 0.  1.
         22    1    1    0    0    0  0.19010399980E+02  0.52263164081E+01 -0.20557878838E+02  0.28483961679E+02  0.00000000000E+00 0. -1.
</event>
<event>
 5    1  0.1264731E-009  0.9118800E+02  0.7815553E-02  0.1125453E+00
         25   -1    0    0    0    0  0.00000000000E+00  0.00000000000E+00  0.99999998245E-14  0.12509000000E+03  0.12509000000E+03 0.  0.
        -13    1    3    3    0    0 -0.80234167376E+01 -0.17758131123E+02 -0.51203455660E+02  0.54786234336E+02  0.10566000000E+00 0.  1.
         23    2    1    0    0    0  0.18366717345E+02 -0.80477505219E+01 -0.21654613592E+02  0.95576869289E+02  0.90906067228E+02 0.  0.
         13    1    3    3    0    0  0.26390134083E+02  0.97103806010E+01  0.29548842068E+02  0.40790634954E+02  0.10566000000E+00 0. -1.
         22    1    1    0    0    0 -0.18366717345E+02  0.80477505219E+01  0.21654613592E+02  0.29513130711E+02  0.00000000000E+00 0.  1.
</event>
<event>
 5    1  0.1264731E-009  0.9118800E+02  0.7815553E-02  0.1125453E+00
         25   -1    0    0    0    0  0.00000000000E+00  0.00000000000E+00  0.99999998245E-14  0.12509000000E+03  0.12509000000E+03 0.  0.
        -13    1    3    3    0    0  0.52819092676E+02 -0.10118810313E+02 -0.17647381344E+02  0.56601131664E+02  0.10566000000E+00 0. -1.
         23    2    1    0    0    0  0.13051509042E+02 -0.46757604815E+01 -0.24131075547E+02  0.97259918588E+02  0.93193231151E+02 0.  0.
         13    1    3    3    0    0 -0.39767583634E+02  0.54430498320E+01 -0.64836942031E+01  0.40658786924E+02  0.10566000000E+00 0.  1.
         22    1    1    0    0    0 -0.13051509042E+02  0.46757604815E+01  0.24131075547E+02  0.27830081412E+02  0.00000000000E+00 0. -1.
</event>
<event>
 5    1  0.1264731E-009  0.9118800E+02  0.7815553E-02  0.1125453E+00
         25   -1    0    0    0    0  0.00000000000E+00  0.00000000000E+00  0.99999998245E-14  0.12509000000E+03  0.12509000000E+03 0.  0.
        -13    1    3    3    0    0  0.34941003149E+02  0.15431828691E+02  0.48446323714E+00  0.38200273644E+02  0.10566000000E+00 0.  1.
         23    2    1    0    0    0 -0.51849191776E+01 -0.11347707389E+02 -0.28149419777E+02  0.94299681982E+02  0.89131287089E+02 0.  0.
         13    1    3    3    0    0 -0.40125922327E+02 -0.26779536080E+02 -0.28633883014E+02  0.56099408337E+02  0.10566000000E+00 0. -1.
         22    1    1    0    0    0  0.51849191776E+01  0.11347707389E+02  0.28149419777E+02  0.30790318018E+02  0.00000000000E+00 0. -1.
</event>
<event>
 5    1  0.1264731E-009  0.9118800E+02  0.7815553E-02  0.1125453E+00
         25   -1    0    0    0    0  0.00000000000E+00  0.00000000000E+00  0.99999998245E-14  0.12509000000E+03  0.12509000000E+03 0.  0.
        -13    1    3    3    0    0  0.47594590198E+02 -0.37020452631E+02  0.14617581779E+02  0.62043886001E+02  0.10566000000E+00 0. -1.
         23    2    1    0    0    0  0.17134509108E+02 -0.20250415055E+02  0.53536086171E+01  0.98028369644E+02  0.94219050184E+02 0.  0.
         13    1    3    3    0    0 -0.30460081090E+02  0.16770037575E+02 -0.92639731614E+01  0.35984483643E+02  0.10566000000E+00 0.  1.
         22    1    1    0    0    0 -0.17134509108E+02  0.20250415055E+02 -0.53536086171E+01  0.27061630356E+02  0.00000000000E+00 0. -1.
</event>
<event>
 5    1  0.1264731E-009  0.9118800E+02  0.7815553E-02  0.1125453E+00
         25   -1    0    0    0    0  0.00000000000E+00  0.00000000000E+00  0.99999998245E-14  0.12509000000E+03  0.12509000000E+03 0.  0.
        -13    1    3    3    0    0  0.16623914354E+02  0.90154100734E+01  0.28835320605E+02  0.34483605172E+02  0.10566000000E+00 0.  1.
         23    2    1    0    0    0 -0.24150584567E+02  0.26724132424E+02 -0.26721992193E+01  0.88971159523E+02  0.81309880023E+02 0.  0.
         13    1    3    3    0    0 -0.40774498922E+02  0.17708722351E+02 -0.31507519824E+02  0.54487554351E+02  0.10566000000E+00 0. -1.
         22    1    1    0    0    0  0.24150584567E+02 -0.26724132424E+02  0.26721992193E+01  0.36118840477E+02  0.00000000000E+00 0. -1.
</event>
<event>
 5    1  0.1264731E-009  0.9118800E+02  0.7815553E-02  0.1125453E+00
         25   -1    0    0    0    0  0.00000000000E+00  0.00000000000E+00  0.99999998245E-14  0.12509000000E+03  0.12509000000E+03 0.  0.
        -13    1    3    3    0    0 -0.71703637797E+01  0.42634816954E+00 -0.56225920578E+02  0.56682988615E+02  0.10566000000E+00 0. -1.
         23    2    1    0    0    0  0.13755710263E+02  0.86674349255E+01 -0.27178097726E+02  0.93419935443E+02  0.87887947690E+02 0.  0.
         13    1    3    3    0    0  0.20926074043E+02  0.82410867560E+01  0.29047822852E+02  0.36736946828E+02  0.10566000000E+00 0.  1.
         22    1    1    0    0    0 -0.13755710263E+02 -0.86674349255E+01  0.27178097726E+02  0.31670064557E+02  0.00000000000E+00 0. -1.
</event>
<event>
 5    1  0.1264731E-009  0.9118800E+02  0.7815553E-02  0.1125453E+00
         25   -1    0    0    0    0  0.00000000000E+00  0.00000000000E+00  0.99999998245E-14  0.12509000000E+03  0.12509000000E+03 0.  0.
        -13    1    3    3    0    0  0.23298161263E+02  0.36103676027E+02  0.40741942882E+02  0.59213147313E+02  0.10566000000E+00 0. -1.
         23    2    1    0    0    0 -0.12813010771E+01  0.24579881001E+02  0.18830668243E+02  0.94099576496E+02  0.88850008147E+02 0.  0.
         13    1    3    3    0    0 -0.24579462340E+02 -0.11523795026E+02 -0.21911274639E+02  0.34886429182E+02  0.10566000000E+00 0.  1.
         22    1    1    0    0    0  0.12813010771E+01 -0.24579881001E+02 -0.18830668243E+02  0.30990423504E+02  0.00000000000E+00 0. -1.
</event>
<event>
 5    1  0.1264731E-009  0.9118800E+02  0.7815553E-02  0.1125453E+00
         25   -1    0    0    0    0  0.00000000000E+00  0.00000000000E+00  0.99999998245E-14  0.12509000000E+03  0.12509000000E+03 0.  0.
        -13    1    3    3    0    0  0.24496762068E+02  0.30387850942E+00  0.26980508361E+02  0.36443692039E+02  0.10566000000E+00 0. -1.
         23    2    1    0    0    0 -0.29348006124E+02  0.47248144292E+01  0.42294816259E+01  0.95064713163E+02  0.90198568942E+02 0.  0.
         13    1    3    3    0    0 -0.53844768192E+02  0.44209359198E+01 -0.22751026736E+02  0.58621021124E+02  0.10566000000E+00 0.  1.
         22    1    1    0    0    0  0.29348006124E+02 -0.47248144292E+01 -0.42294816259E+01  0.30025286837E+02  0.00000000000E+00 0.  1.
</event>
<event>
 5    1  0.1264731E-009  0.9118800E+02  0.7815553E-02  0.1125453E+00
         25   -1    0    0    0    0  0.00000000000E+00  0.00000000000E+00  0.99999998245E-14  0.12509000000E+03  0.12509000000E+03 0.  0.
        -13    1    3    3    0    0  0.11297313335E+02 -0.28475390056E+01 -0.58034732813E+02  0.59192728808E+02  0.10566000000E+00 0. -1.
         23    2    1    0    0    0  0.56625977924E+00 -0.14957865720E+02 -0.25751796718E+02  0.95303871832E+02  0.90529633573E+02 0.  0.
         13    1    3    3    0    0 -0.10731053555E+02 -0.12110326715E+02  0.32282936095E+02  0.36111143024E+02  0.10566000000E+00 0.  1.
         22    1    1    0    0    0 -0.56625977924E+00  0.14957865720E+02  0.25751796718E+02  0.29786128168E+02  0.00000000000E+00 0. -1.
</event>
<event>
 5    1  0.1264731E-009  0.9118800E+02  0.7815553E-02  0.1125453E+00
         25   -1    0    0    0    0  0.00000000000E+00  0.00000000000E+00  0.99999998245E-14  0.12509000000E+03  0.12509000000E+03 0.  0.
        -13    1    3    3    0    0  0.31610757261E+02 -0.42018818012E+02 -0.24423729554E+02  0.57977157321E+02  0.10566000000E+00 0. -1.
         23    2    1    0    0    0  0.24049918682E+02 -0.48112641373E+01 -0.10335658354E+02  0.98474728353E+02  0.94809806663E+02 0.  0.
         13    1    3    3    0    0 -0.75608385789E+01  0.37207553874E+02  0.14088071200E+02  0.40497571032E+02  0.10566000000E+00 0.  1.
         22    1    1    0    0    0 -0.24049918682E+02  0.48112641373E+01  0.10335658354E+02  0.26615271647E+02  0.00000000000E+00 0. -1.
</event>
<event>
 5    1  0.1264731E-009  0.9118800E+02  0.7815553E-02  0.1125453E+00
         25   -1    0    0    0    0  0.00000000000E+00  0.00000000000E+00  0.99999998245E-14  0.12509000000E+03  0.12509000000E+03 0.  0.
        -13    1    3    3    0    0  0.26213676845E+02 -0.28678854880E+02  0.16870240205E+02  0.42358585193E+02  0.10566000000E+00 0.  1.
         23    2    1    0    0    0  0.18224800800E+02  0.11759086692E+02 -0.18430028555E+02  0.96628000130E+02  0.92341133698E+02 0.  0.
         13    1    3    3    0    0 -0.79888760447E+01  0.40437941572E+02 -0.35300268760E+02  0.54269414937E+02  0.10566000000E+00 0. -1.
         22    1    1    0    0    0 -0.18224800800E+02 -0.11759086692E+02  0.18430028555E+02  0.28461999870E+02  0.00000000000E+00 0. -1.
</event>
<event>
 5    1  0.1264731E-009  0.9118800E+02  0.7815553E-02  0.1125453E+00
         25   -1    0    0    0    0  0.00000000000E+00  0.00000000000E+00  0.99999998245E-14  0.12509000000E+03  0.12509000000E+03 0.  0.
        -13    1    3    3    0    0  0.43747262321E+02  0.31513104804E+02 -0.45156861666E+01  0.54104540665E+02  0.10566000000E+00 0. -1.
         23    2    1    0    0    0  0.18525987339E+02  0.13133967692E+02  0.20804238297E+02  0.94291791524E+02  0.89120212653E+02 0.  0.
         13    1    3    3    0    0 -0.25221274982E+02 -0.18379137112E+02  0.25319924464E+02  0.40187250859E+02  0.10566000000E+00 0.  1.
         22    1    1    0    0    0 -0.18525987339E+02 -0.13133967692E+02 -0.20804238297E+02  0.30798208476E+02  0.00000000000E+00 0. -1.
</event>
<event>
 5    1  0.1264731E-009  0.9118800E+02  0.7815553E-02  0.1125453E+00
         25   -1    0    0    0    0  0.00000000000E+00  0.00000000000E+00  0.99999998245E-14  0.12509000000E+03  0.12509000000E+03 0.  0.
        -13    1    3    3    0    0  0.91582399275E+01 -0.45814908922E+01 -0.42135485761E+02  0.43362123353E+02  0.10566000000E+00 0. -1.
         23    2    1    0    0    0 -0.26143731948E+02 -0.69760394722E+01 -0.46616008815E+00  0.98027532409E+02  0.94217938622E+02 0.  0.
         13    1    3    3    0    0 -0.35301971875E+02 -0.23945485800E+01  0.41669325673E+02  0.54665409056E+02  0.10566000000E+00 0.  1.
         22    1    1    0    0    0  0.26143731948E+02  0.69760394722E+01  0.46616008815E+00  0.27062467591E+02  0.00000000000E+00 0.  1.
</event>
<event>
 5    1  0.1264731E-009  0.9118800E+02  0.7815553E-02  0.1125453E+00
         25   -1    0    0    0    0  0.00000000000E+00  0.00000000000E+00  0.99999998245E-14  0.12509000000E+03  0.12509000000E+03 0.  0.
        -13    1    3    3    0    0  0.34020085006E+02 -0.44161974053E+02 -0.12232374384E+02  0.57072657930E+02  0.10566000000E+00 0. -1.
         23    2    1    0    0    0  0.20805087018E+02 -0.19978894987E+02 -0.24506223899E+02  0.87240787319E+02  0.78602748499E+02 0.  0.
         13    1    3    3    0    0 -0.13214997988E+02  0.24183079066E+02 -0.12273849515E+02  0.30168129390E+02  0.10566000000E+00 0.  1.
         22    1    1    0    0    0 -0.20805087018E+02  0.19978894987E+02  0.24506223899E+02  0.37849212681E+02  0.00000000000E+00 0. -1.
</event>
<event>
 5    1  0.1264731E-009  0.9118800E+02  0.7815553E-02  0.1125453E+00
         25   -1    0    0    0    0  0.00000000000E+00  0.00000000000E+00  0.99999998245E-14  0.12509000000E+03  0.12509000000E+03 0.  0.
        -13    1    3    3    0    0  0.21591353783E+02  0.11782872481E+02 -0.38307907240E+02  0.45525043254E+02  0.10566000000E+00 0. -1.
         23    2    1    0    0    0  0.19179132515E+02 -0.22254478649E+02 -0.15638153508E+01  0.95669828987E+02  0.91033893227E+02 0.  0.
         13    1    3    3    0    0 -0.24122212679E+01 -0.34037351130E+02  0.36744091889E+02  0.50144785733E+02  0.10566000000E+00 0.  1.
         22    1    1    0    0    0 -0.19179132515E+02  0.22254478649E+02  0.15638153508E+01  0.29420171013E+02  0.00000000000E+00 0.  1.
</event>
<event>
 5    1  0.1264731E-009  0.9118800E+02  0.7815553E-02  0.1125453E+00
         25   -1    0    0    0    0  0.00000000000E+00  0.00000000000E+00  0.99999998245E-14  0.12509000000E+03  0.12509000000E+03 0.  0.
        -13    1    3    3    0    0 -0.10499562766E+02 -0.22653050340E+02 -0.26381427307E+02  0.36323441175E+02  0.10566000000E+00 0.  1.
         23    2    1    0    0    0 -0.37833324705E+01  0.28580732094E+02  0.35556544487E+01  0.96041514150E+02  0.91543202424E+02 0.  0.
         13    1    3    3    0    0  0.67162302950E+01  0.51233782434E+02  0.29937081756E+02  0.59718072976E+02  0.10566000000E+00 0. -1.
         22    1    1    0    0    0  0.37833324705E+01 -0.28580732094E+02 -0.35556544487E+01  0.29048485850E+02  0.00000000000E+00 0. -1.
</event>
<event>
 5    1  0.1264731E-009  0.9118800E+02  0.7815553E-02  0.1125453E+00
         25   -1    0    0    0    0  0.00000000000E+00  0.00000000000E+00  0.99999998245E-14  0.12509000000E+03  0.12509000000E+03 0.  0.
        -13    1    3    3    0    0 -0.31555599118E+02 -0.19509028011E+02 -0.45717270244E+02  0.58876463653E+02  0.10566000000E+00 0. -1.
         23    2    1    0    0    0 -0.18830372824E+02 -0.17508880625E+02 -0.89028122457E+01  0.97879636031E+02  0.94021376517E+02 0.  0.
         13    1    3    3    0    0  0.12725226294E+02  0.20001473860E+01  0.36814457998E+02  0.39003172378E+02  0.10566000000E+00 0.  1.
         22    1    1    0    0    0  0.18830372824E+02  0.17508880625E+02  0.89028122457E+01  0.27210363969E+02  0.00000000000E+00 0. -1.
</event>
<event>
 5    1  0.1264731E-009  0.9118800E+02  0.7815553E-02  0.1125453E+00
         25   -1    0    0    0    0  0.00000000000E+00  0.00000000000E+00  0.99999998245E-14  0.12509000000E+03  0.12509000000E+03 0.  0.
        -13    1    3    3    0    0  0.53095208924E+02 -0.73233082833E+00  0.14276393652E+02  0.54986035490E+02  0.10566000000E+00 0. -1.
         23    2    1    0    0    0  0.13227995384E+02 -0.84899963381E+01  0.23673003624E+02  0.96673965789E+02  0.92403380138E+02 0.  0.
         13    1    3    3    0    0 -0.39867213540E+02 -0.77576655097E+01  0.93966099725E+01  0.41687930299E+02  0.10566000000E+00 0.  1.
         22    1    1    0    0    0 -0.13227995384E+02  0.84899963381E+01 -0.23673003624E+02  0.28416034211E+02  0.00000000000E+00 0. -1.
</event>
<event>
 5    1  0.1264731E-009  0.9118800E+02  0.7815553E-02  0.1125453E+00
         25   -1    0    0    0    0  0.00000000000E+00  0.00000000000E+00  0.99999998245E-14  0.12509000000E+03  0.12509000000E+03 0.  0.
        -13    1    3    3    0    0  0.15272651888E+02  0.59759481140E+02 -0.31481326403E+01  0.61760597350E+02  0.10566000000E+00 0.  1.
         23    2    1    0    0    0  0.77705650904E+01  0.28611378659E+02  0.54776358670E+01  0.94940420147E+02  0.90026030749E+02 0.  0.
         13    1    3    3    0    0 -0.75020867972E+01 -0.31148102481E+02  0.86257685073E+01  0.33179822797E+02  0.10566000000E+00 0. -1.
         22    1    1    0    0    0 -0.77705650904E+01 -0.28611378659E+02 -0.54776358670E+01  0.30149579853E+02  0.00000000000E+00 0.  1.
</event>
<event>
 5    1  0.1264731E-009  0.9118800E+02  0.7815553E-02  0.1125453E+00
         25   -1    0    0    0    0  0.00000000000E+00  0.00000000000E+00  0.99999998245E-14  0.12509000000E+03  0.12509000000E+03 0.  0.
        -13    1    3    3    0    0 -0.21561592356E+02  0.13046244649E+02  0.30576351811E+02  0.39623619452E+02  0.10566000000E+00 0. -1.
         23    2    1    0    0    0  0.28425081508E+02  0.15669401317E+01  0.12419254937E+02  0.94030726774E+02  0.88753023184E+02 0.  0.
         13    1    3    3    0    0  0.49986673865E+02 -0.11479304517E+02 -0.18157096874E+02  0.54407107322E+02  0.10566000000E+00 0.  1.
         22    1    1    0    0    0 -0.28425081508E+02 -0.15669401317E+01 -0.12419254937E+02  0.31059273226E+02  0.00000000000E+00 0.  1.
</event>
<event>
 5    1  0.1264731E-009  0.9118800E+02  0.7815553E-02  0.1125453E+00
         25   -1    0    0    0    0  0.00000000000E+00  0.00000000000E+00  0.99999998245E-14  0.12509000000E+03  0.12509000000E+03 0.  0.
        -13    1    3    3    0    0  0.25903666203E+02 -0.20809291618E+02 -0.65778621180E+01  0.33871905387E+02  0.10566000000E+00 0.  1.
         23    2    1    0    0    0 -0.29024487242E+02  0.62776600423E+01 -0.34345198648E+01  0.95196425407E+02  0.90381046732E+02 0.  0.
         13    1    3    3    0    0 -0.54928153445E+02  0.27086951661E+02  0.31433422533E+01  0.61324520020E+02  0.10566000000E+00 0. -1.
         22    1    1    0    0    0  0.29024487242E+02 -0.62776600423E+01  0.34345198648E+01  0.29893574593E+02  0.00000000000E+00 0. -1.
</event>
<event>
 5    1  0.1264731E-009  0.9118800E+02  0.7815553E-02  0.1125453E+00
         25   -1    0    0    0    0  0.00000000000E+00  0.00000000000E+00  0.99999998245E-14  0.12509000000E+03  0.12509000000E+03 0.  0.
        -13    1    3    3    0    0  0.61248298766E+00  0.42063532392E+02 -0.21173644604E+02  0.47096181189E+02  0.10566000000E+00 0. -1.
         23    2    1    0    0    0  0.26624714409E+02  0.11058708329E+02  0.57326973147E+01  0.95695540220E+02  0.91069216271E+02 0.  0.
         13    1    3    3    0    0  0.26012231421E+02 -0.31004824064E+02  0.26906341919E+02  0.48599359031E+02  0.10566000000E+00 0.  1.
         22    1    1    0    0    0 -0.26624714409E+02 -0.11058708329E+02 -0.57326973147E+01  0.29394459780E+02  0.00000000000E+00 0. -1.
</event>
<event>
 5    1  0.1264731E-009  0.9118800E+02  0.7815553E-02  0.1125453E+00
         25   -1    0    0    0    0  0.00000000000E+00  0.00000000000E+00  0.99999998245E-14  0.12509000000E+03  0.12509000000E+03 0.  0.
        -13    1    3    3    0    0  0.20558997732E+02  0.39705954591E+01  0.25634611794E+02  0.33099584618E+02  0.10566000000E+00 0.  1.
         23    2    1    0    0    0 -0.44876335750E+01 -0.77776607951E+01 -0.29212271556E+02  0.94528788113E+02  0.89452244858E+02 0.  0.
         13    1    3    3    0    0 -0.25046631307E+02 -0.11748256254E+02 -0.54846883350E+02  0.61429203495E+02  0.10566000000E+00 0. -1.
         22    1    1    0    0    0  0.44876335750E+01  0.77776607951E+01  0.29212271556E+02  0.30561211887E+02  0.00000000000E+00 0. -1.
</event>
<event>
 5    1  0.1264731E-009  0.9118800E+02  0.7815553E-02  0.1125453E+00
         25   -1    0    0    0    0  0.00000000000E+00  0.00000000000E+00  0.99999998245E-14  0.12509000000E+03  0.12509000000E+03 0.  0.
        -13    1    3    3    0    0 -0.40724791519E+02 -0.23749088852E+02 -0.21720786608E+01  0.47193823275E+02  0.10566000000E+00 0.  1.
         23    2    1    0    0    0 -0.19373758793E+02  0.16030856844E+02  0.15357208309E+02  0.95625194758E+02  0.90972540497E+02 0.  0.
         13    1    3    3    0    0  0.21351032726E+02  0.39779945696E+02  0.17529286970E+02  0.48431371483E+02  0.10566000000E+00 0. -1.
         22    1    1    0    0    0  0.19373758793E+02 -0.16030856844E+02 -0.15357208309E+02  0.29464805242E+02  0.00000000000E+00 0. -1.
</event>
<event>
 5    1  0.1264731E-009  0.9118800E+02  0.7815553E-02  0.1125453E+00
         25   -1    0    0    0    0  0.00000000000E+00  0.00000000000E+00  0.99999998245E-14  0.12509000000E+03  0.12509000000E+03 0.  0.
        -13    1    3    3    0    0 -0.34218696201E+02  0.15017477135E+02  0.44388617117E+02  0.58024169816E+02  0.10566000000E+00 0.  1.
         23    2    1    0    0    0 -0.17807480605E+02 -0.95310683898E+01  0.22967733770E+02  0.94504637084E+02  0.89418465686E+02 0.  0.
         13    1    3    3    0    0  0.16411215596E+02 -0.24548545524E+02 -0.21420883347E+02  0.36480467268E+02  0.10566000000E+00 0. -1.
         22    1    1    0    0    0  0.17807480605E+02  0.95310683898E+01 -0.22967733770E+02  0.30585362916E+02  0.00000000000E+00 0.  1.
</event>
<event>
 5    1  0.1264731E-009  0.9118800E+02  0.7815553E-02  0.1125453E+00
         25   -1    0    0    0    0  0.00000000000E+00  0.00000000000E+00  0.99999998245E-14  0.12509000000E+03  0.12509000000E+03 0.  0.
        -13    1    3    3    0    0  0.36375896139E+02 -0.30339506346E+02  0.20492802656E+02  0.51610634466E+02  0.10566000000E+00 0. -1.
         23    2    1    0    0    0  0.44272678195E+01 -0.17869634896E+01  0.29341138954E+02  0.95362968968E+02  0.90611254689E+02 0.  0.
         13    1    3    3    0    0 -0.31948628320E+02  0.28552542856E+02  0.88483362978E+01  0.43752334502E+02  0.10566000000E+00 0.  1.
         22    1    1    0    0    0 -0.44272678195E+01  0.17869634896E+01 -0.29341138954E+02  0.29727031032E+02  0.00000000000E+00 0. -1.
</event>
<event>
 5    1  0.1264731E-009  0.9118800E+02  0.7815553E-02  0.1125453E+00
         25   -1    0    0    0    0  0.00000000000E+00  0.00000000000E+00  0.99999998245E-14  0.12509000000E+03  0.12509000000E+03 0.  0.
        -13    1    3    3    0    0 -0.47794860551E+02  0.38125719403E+01  0.20657327506E+02  0.52207477852E+02  0.10566000000E+00 0. -1.
         23    2    1    0    0    0 -0.19350703689E+02 -0.15023294492E+02 -0.10525199294E+02  0.98426749432E+02  0.94746483169E+02 0.  0.
         13    1    3    3    0    0  0.28444156862E+02 -0.18835866432E+02 -0.31182526799E+02  0.46219271581E+02  0.10566000000E+00 0.  1.
         22    1    1    0    0    0  0.19350703689E+02  0.15023294492E+02  0.10525199294E+02  0.26663250568E+02  0.00000000000E+00 0. -1.
</event>
<event>
 5    1  0.1264731E-009  0.9118800E+02  0.7815553E-02  0.1125453E+00
         25   -1    0    0    0    0  0.00000000000E+00  0.00000000000E+00  0.99999998245E-14  0.12509000000E+03  0.12509000000E+03 0.  0.
        -13    1    3    3    0    0  0.32386994027E+02 -0.29187642959E+01 -0.31173455586E+02  0.45046998394E+02  0.10566000000E+00 0.  1.
         23    2    1    0    0    0  0.37504014226E+02 -0.23739810633E+02 -0.27930479549E+01  0.80616065962E+02  0.67238525284E+02 0.  0.
         13    1    3    3    0    0  0.51170201983E+01 -0.20821046337E+02  0.28380407631E+02  0.35569067568E+02  0.10566000000E+00 0. -1.
         22    1    1    0    0    0 -0.37504014226E+02  0.23739810633E+02  0.27930479549E+01  0.44473934038E+02  0.00000000000E+00 0.  1.
</event>
<event>
 5    1  0.1264731E-009  0.9118800E+02  0.7815553E-02  0.1125453E+00
         25   -1    0    0    0    0  0.00000000000E+00  0.00000000000E+00  0.99999998245E-14  0.12509000000E+03  0.12509000000E+03 0.  0.
        -13    1    3    3    0    0  0.29349556230E+02 -0.47521409579E+02  0.16736170478E+02  0.58307730067E+02  0.10566000000E+00 0.  1.
         23    2    1    0    0    0  0.70882214572E+01 -0.21033866883E+02  0.22613486162E+02  0.93403469804E+02  0.87864509192E+02 0.  0.
         13    1    3    3    0    0 -0.22261334773E+02  0.26487542697E+02  0.58773156845E+01  0.35095739737E+02  0.10566000000E+00 0. -1.
         22    1    1    0    0    0 -0.70882214572E+01  0.21033866883E+02 -0.22613486162E+02  0.31686530196E+02  0.00000000000E+00 0.  1.
</event>
<event>
 5    1  0.1264731E-009  0.9118800E+02  0.7815553E-02  0.1125453E+00
         25   -1    0    0    0    0  0.00000000000E+00  0.00000000000E+00  0.99999998245E-14  0.12509000000E+03  0.12509000000E+03 0.  0.
        -13    1    3    3    0    0  0.90756788287E+01 -0.39122896960E+01 -0.36148096112E+02  0.37474924595E+02  0.10566000000E+00 0. -1.
         23    2    1    0    0    0  0.27690917801E+02  0.10636571800E+02  0.13531095195E+02  0.92486102603E+02  0.86548628233E+02 0.  0.
         13    1    3    3    0    0  0.18615238972E+02  0.14548861496E+02  0.49679191307E+02  0.55011178008E+02  0.10566000000E+00 0.  1.
         22    1    1    0    0    0 -0.27690917801E+02 -0.10636571800E+02 -0.13531095195E+02  0.32603897397E+02  0.00000000000E+00 0.  1.
</event>
<event>
 5    1  0.1264731E-009  0.9118800E+02  0.7815553E-02  0.1125453E+00
         25   -1    0    0    0    0  0.00000000000E+00  0.00000000000E+00  0.99999998245E-14  0.12509000000E+03  0.12509000000E+03 0.  0.
        -13    1    3    3    0    0 -0.47536238508E+02 -0.25978598264E+02  0.19208340893E+02  0.57476543591E+02  0.10566000000E+00 0. -1.
         23    2    1    0    0    0 -0.28891709505E+02 -0.12650871905E+01 -0.36253514500E+01  0.95944254224E+02  0.91410204144E+02 0.  0.
         13    1    3    3    0    0  0.18644529003E+02  0.24713511073E+02 -0.22833692343E+02  0.38467710633E+02  0.10566000000E+00 0.  1.
         22    1    1    0    0    0  0.28891709505E+02  0.12650871905E+01  0.36253514500E+01  0.29145745776E+02  0.00000000000E+00 0. -1.
</event>
<event>
 5    1  0.1264731E-009  0.9118800E+02  0.7815553E-02  0.1125453E+00
         25   -1    0    0    0    0  0.00000000000E+00  0.00000000000E+00  0.99999998245E-14  0.12509000000E+03  0.12509000000E+03 0.  0.
        -13    1    3    3    0    0 -0.72213861764E+01  0.20694868020E+02 -0.46158906488E+02  0.51098745512E+02  0.10566000000E+00 0.  1.
         23    2    1    0    0    0 -0.65781864447E+00  0.29635002821E+02 -0.34227220721E+01  0.95250744916E+02  0.90456195273E+02 0.  0.
         13    1    3    3    0    0  0.65635675319E+01  0.89401348005E+01  0.42736184416E+02  0.44151999405E+02  0.10566000000E+00 0. -1.
         22    1    1    0    0    0  0.65781864447E+00 -0.29635002821E+02  0.34227220721E+01  0.29839255084E+02  0.00000000000E+00 0.  1.
</event>
<event>
 5    1  0.1264731E-009  0.9118800E+02  0.7815553E-02  0.1125453E+00
         25   -1    0    0    0    0  0.00000000000E+00  0.00000000000E+00  0.99999998245E-14  0.12509000000E+03  0.12509000000E+03 0.  0.
        -13    1    3    3    0    0 -0.56317885847E+02 -0.11752853104E+02  0.32334595400E+01  0.57622046535E+02  0.10566000000E+00 0. -1.
         23    2    1    0    0    0 -0.27570411909E+02  0.10810955868E+02  0.78375881481E+01  0.94456159765E+02  0.89350623668E+02 0.  0.
         13    1    3    3    0    0  0.28747473938E+02  0.22563808971E+02  0.46041286081E+01  0.36834113229E+02  0.10566000000E+00 0.  1.
         22    1    1    0    0    0  0.27570411909E+02 -0.10810955868E+02 -0.78375881481E+01  0.30633840235E+02  0.00000000000E+00 0. -1.
</event>
<event>
 5    1  0.1264731E-009  0.9118800E+02  0.7815553E-02  0.1125453E+00
         25   -1    0    0    0    0  0.00000000000E+00  0.00000000000E+00  0.99999998245E-14  0.12509000000E+03  0.12509000000E+03 0.  0.
        -13    1    3    3    0    0  0.15260274062E+01 -0.85053537554E+01 -0.57698401632E+02  0.58341979029E+02  0.10566000000E+00 0. -1.
         23    2    1    0    0    0 -0.11831497713E+02 -0.13948534139E+02 -0.24701808121E+02  0.94353616556E+02  0.89206948665E+02 0.  0.
         13    1    3    3    0    0 -0.13357525119E+02 -0.54431803833E+01  0.32996593511E+02  0.36011637527E+02  0.10566000000E+00 0.  1.
         22    1    1    0    0    0  0.11831497713E+02  0.13948534139E+02  0.24701808121E+02  0.30736383444E+02  0.00000000000E+00 0. -1.
</event>
<event>
 5    1  0.1264731E-009  0.9118800E+02  0.7815553E-02  0.1125453E+00
         25   -1    0    0    0    0  0.00000000000E+00  0.00000000000E+00  0.99999998245E-14  0.12509000000E+03  0.12509000000E+03 0.  0.
        -13    1    3    3    0    0 -0.86894194722E+01  0.24947430611E+02 -0.49810350221E+02  0.56382288514E+02  0.10566000000E+00 0. -1.
         23    2    1    0    0    0 -0.19585643401E+02  0.17023671718E+02 -0.12041500233E+02  0.96482299043E+02  0.92143548198E+02 0.  0.
         13    1    3    3    0    0 -0.10896223929E+02 -0.79237588929E+01  0.37768849989E+02  0.40100010529E+02  0.10566000000E+00 0.  1.
         22    1    1    0    0    0  0.19585643401E+02 -0.17023671718E+02  0.12041500233E+02  0.28607700957E+02  0.00000000000E+00 0. -1.
</event>
<event>
 5    1  0.1264731E-009  0.9118800E+02  0.7815553E-02  0.1125453E+00
         25   -1    0    0    0    0  0.00000000000E+00  0.00000000000E+00  0.99999998245E-14  0.12509000000E+03  0.12509000000E+03 0.  0.
        -13    1    3    3    0    0 -0.34225719512E+02 -0.19775724724E+02  0.39752380638E+02  0.56060164956E+02  0.10566000000E+00 0.  1.
         23    2    1    0    0    0  0.45596903224E+01 -0.16004841807E+02  0.17526347905E+02  0.10092145416E+03  0.97984801382E+02 0.  0.
         13    1    3    3    0    0  0.38785409834E+02  0.37708829164E+01 -0.22226032733E+02  0.44861289205E+02  0.10566000000E+00 0. -1.
         22    1    1    0    0    0 -0.45596903224E+01  0.16004841807E+02 -0.17526347905E+02  0.24168545839E+02  0.00000000000E+00 0.  1.
</event>
<event>
 5    1  0.1264731E-009  0.9118800E+02  0.7815553E-02  0.1125453E+00
         25   -1    0    0    0    0  0.00000000000E+00  0.00000000000E+00  0.99999998245E-14  0.12509000000E+03  0.12509000000E+03 0.  0.
        -13    1    3    3    0    0 -0.17269845107E+02 -0.28231326171E+02 -0.12004010786E+02  0.35204584451E+02  0.10566000000E+00 0.  1.
         23    2    1    0    0    0  0.19423515794E+02  0.19752571402E+02 -0.99805011403E+01  0.95644330611E+02  0.90998849071E+02 0.  0.
         13    1    3    3    0    0  0.36693360900E+02  0.47983897573E+02  0.20235096456E+01  0.60439746159E+02  0.10566000000E+00 0. -1.
         22    1    1    0    0    0 -0.19423515794E+02 -0.19752571402E+02  0.99805011403E+01  0.29445669389E+02  0.00000000000E+00 0. -1.
</event>
<event>
 5    1  0.1264731E-009  0.9118800E+02  0.7815553E-02  0.1125453E+00
         25   -1    0    0    0    0  0.00000000000E+00  0.00000000000E+00  0.99999998245E-14  0.12509000000E+03  0.12509000000E+03 0.  0.
        -13    1    3    3    0    0 -0.53100713809E+00  0.35018936496E+02 -0.22928092632E+02  0.41860679374E+02  0.10566000000E+00 0.  1.
         23    2    1    0    0    0 -0.16454415081E+02  0.79673461946E+01  0.21884690513E+02  0.96573933303E+02  0.92267862952E+02 0.  0.
         13    1    3    3    0    0 -0.15923407942E+02 -0.27051590301E+02  0.44812783145E+02  0.54713253929E+02  0.10566000000E+00 0. -1.
         22    1    1    0    0    0  0.16454415081E+02 -0.79673461946E+01 -0.21884690513E+02  0.28516066697E+02  0.00000000000E+00 0. -1.
</event>
<event>
 5    1  0.1264731E-009  0.9118800E+02  0.7815553E-02  0.1125453E+00
         25   -1    0    0    0    0  0.00000000000E+00  0.00000000000E+00  0.99999998245E-14  0.12509000000E+03  0.12509000000E+03 0.  0.
        -13    1    3    3    0    0 -0.22733994963E+02 -0.44526224181E+02  0.36831808824E+00  0.49995659702E+02  0.10566000000E+00 0.  1.
         23    2    1    0    0    0  0.40803907175E+01 -0.14457219251E+02  0.24053805852E+02  0.96730762478E+02  0.92480236033E+02 0.  0.
         13    1    3    3    0    0  0.26814385680E+02  0.30069004930E+02  0.23685487763E+02  0.46735102776E+02  0.10566000000E+00 0. -1.
         22    1    1    0    0    0 -0.40803907175E+01  0.14457219251E+02 -0.24053805852E+02  0.28359237522E+02  0.00000000000E+00 0. -1.
</event>
<event>
 5    1  0.1264731E-009  0.9118800E+02  0.7815553E-02  0.1125453E+00
         25   -1    0    0    0    0  0.00000000000E+00  0.00000000000E+00  0.99999998245E-14  0.12509000000E+03  0.12509000000E+03 0.  0.
        -13    1    3    3    0    0 -0.19212542665E+02  0.48632756839E+02  0.25779275885E+02  0.58299648906E+02  0.10566000000E+00 0.  1.
         23    2    1    0    0    0 -0.15080032974E+02  0.78367739531E+01  0.18541247350E+02  0.99938453849E+02  0.96721736357E+02 0.  0.
         13    1    3    3    0    0  0.41325096904E+01 -0.40795982886E+02 -0.72380285351E+01  0.41638804943E+02  0.10566000000E+00 0. -1.
         22    1    1    0    0    0  0.15080032974E+02 -0.78367739531E+01 -0.18541247350E+02  0.25151546151E+02  0.00000000000E+00 0.  1.
</event>
<event>
 5    1  0.1264731E-009  0.9118800E+02  0.7815553E-02  0.1125453E+00
         25   -1    0    0    0    0  0.00000000000E+00  0.00000000000E+00  0.99999998245E-14  0.12509000000E+03  0.12509000000E+03 0.  0.
        -13    1    3    3    0    0  0.29843128575E+02  0.10405356101E+02 -0.29448176273E+02  0.43198263953E+02  0.10566000000E+00 0. -1.
         23    2    1    0    0    0  0.20091884618E+02 -0.13629072884E+02  0.16341869333E+02  0.95824112887E+02  0.91245649004E+02 0.  0.
         13    1    3    3    0    0 -0.97512439564E+01 -0.24034428986E+02  0.45790045606E+02  0.52625848934E+02  0.10566000000E+00 0.  1.
         22    1    1    0    0    0 -0.20091884618E+02  0.13629072884E+02 -0.16341869333E+02  0.29265887113E+02  0.00000000000E+00 0.  1.
</event>
<event>
 5    1  0.1264731E-009  0.9118800E+02  0.7815553E-02  0.1125453E+00
         25   -1    0    0    0    0  0.00000000000E+00  0.00000000000E+00  0.99999998245E-14  0.12509000000E+03  0.12509000000E+03 0.  0.
        -13    1    3    3    0    0  0.27450323709E+02  0.75012373274E+01  0.15456466695E+02  0.32383674281E+02  0.10566000000E+00 0. -1.
         23    2    1    0    0    0 -0.16226702892E+02 -0.94130449311E+01 -0.24696358267E+02  0.94076754229E+02  0.88817871360E+02 0.  0.
         13    1    3    3    0    0 -0.43677026602E+02 -0.16914282258E+02 -0.40152824961E+02  0.61693079948E+02  0.10566000000E+00 0.  1.
         22    1    1    0    0    0  0.16226702892E+02  0.94130449311E+01  0.24696358267E+02  0.31013245771E+02  0.00000000000E+00 0.  1.
</event>
<event>
 5    1  0.1264731E-009  0.9118800E+02  0.7815553E-02  0.1125453E+00
         25   -1    0    0    0    0  0.00000000000E+00  0.00000000000E+00  0.99999998245E-14  0.12509000000E+03  0.12509000000E+03 0.  0.
        -13    1    3    3    0    0  0.21341076307E+01 -0.22029893839E+02 -0.48431283999E+02  0.53249141512E+02  0.10566000000E+00 0. -1.
         23    2    1    0    0    0  0.15683594534E+02  0.92904364196E+01 -0.22633297200E+02  0.96028797539E+02  0.91525824051E+02 0.  0.
         13    1    3    3    0    0  0.13549486903E+02  0.31320330259E+02  0.25797986799E+02  0.42779656027E+02  0.10566000000E+00 0.  1.
         22    1    1    0    0    0 -0.15683594534E+02 -0.92904364196E+01  0.22633297200E+02  0.29061202461E+02  0.00000000000E+00 0.  1.
</event>
<event>
 5    1  0.1264731E-009  0.9118800E+02  0.7815553E-02  0.1125453E+00
         25   -1    0    0    0    0  0.00000000000E+00  0.00000000000E+00  0.99999998245E-14  0.12509000000E+03  0.12509000000E+03 0.  0.
        -13    1    3    3    0    0  0.85337541720E+01 -0.31264410817E+02 -0.20266724319E+02  0.38223548012E+02  0.10566000000E+00 0. -1.
         23    2    1    0    0    0  0.70112201413E+01  0.65678036573E+00  0.28059301138E+02  0.96160552223E+02  0.91705718770E+02 0.  0.
         13    1    3    3    0    0 -0.15225340306E+01  0.31921191183E+02  0.48326025457E+02  0.57937004211E+02  0.10566000000E+00 0.  1.
         22    1    1    0    0    0 -0.70112201413E+01 -0.65678036573E+00 -0.28059301138E+02  0.28929447777E+02  0.00000000000E+00 0.  1.
</event>
<event>
 5    1  0.1264731E-009  0.9118800E+02  0.7815553E-02  0.1125453E+00
         25   -1    0    0    0    0  0.00000000000E+00  0.00000000000E+00  0.99999998245E-14  0.12509000000E+03  0.12509000000E+03 0.  0.
        -13    1    3    3    0    0 -0.83768857447E+01 -0.11003091060E+02 -0.35317624075E+02  0.37928695759E+02  0.10566000000E+00 0. -1.
         23    2    1    0    0    0  0.67565220975E+01  0.30731288637E+02 -0.17654352064E+01  0.93575250221E+02  0.88108728287E+02 0.  0.
         13    1    3    3    0    0  0.15133407842E+02  0.41734379697E+02  0.33552188868E+02  0.55646554462E+02  0.10566000000E+00 0.  1.
         22    1    1    0    0    0 -0.67565220975E+01 -0.30731288637E+02  0.17654352064E+01  0.31514749779E+02  0.00000000000E+00 0.  1.
</event>
<event>
 5    1  0.1264731E-009  0.9118800E+02  0.7815553E-02  0.1125453E+00
         25   -1    0    0    0    0  0.00000000000E+00  0.00000000000E+00  0.99999998245E-14  0.12509000000E+03  0.12509000000E+03 0.  0.
        -13    1    3    3    0    0  0.58685544928E+02  0.13139587132E+02 -0.42047033106E+00  0.60140085574E+02  0.10566000000E+00 0.  1.
         23    2    1    0    0    0  0.21097078187E+02  0.17085707769E+02 -0.59179974869E+00  0.97935656979E+02  0.94095879628E+02 0.  0.
         13    1    3    3    0    0 -0.37588466741E+02  0.39461206368E+01 -0.17132941763E+00  0.37795571405E+02  0.10566000000E+00 0. -1.
         22    1    1    0    0    0 -0.21097078187E+02 -0.17085707769E+02  0.59179974869E+00  0.27154343021E+02  0.00000000000E+00 0.  1.
</event>
<event>
 5    1  0.1264731E-009  0.9118800E+02  0.7815553E-02  0.1125453E+00
         25   -1    0    0    0    0  0.00000000000E+00  0.00000000000E+00  0.99999998245E-14  0.12509000000E+03  0.12509000000E+03 0.  0.
        -13    1    3    3    0    0  0.21351918543E+01 -0.50221823165E+02  0.74386716467E+01  0.50814718007E+02  0.10566000000E+00 0.  1.
         23    2    1    0    0    0  0.16722731534E+02 -0.92054796245E+01  0.21286989336E+02  0.96497579325E+02  0.92164289698E+02 0.  0.
         13    1    3    3    0    0  0.14587539679E+02  0.41016343541E+02  0.13848317689E+02  0.45682861318E+02  0.10566000000E+00 0. -1.
         22    1    1    0    0    0 -0.16722731534E+02  0.92054796245E+01 -0.21286989336E+02  0.28592420675E+02  0.00000000000E+00 0.  1.
</event>
<event>
 5    1  0.1264731E-009  0.9118800E+02  0.7815553E-02  0.1125453E+00
         25   -1    0    0    0    0  0.00000000000E+00  0.00000000000E+00  0.99999998245E-14  0.12509000000E+03  0.12509000000E+03 0.  0.
        -13    1    3    3    0    0 -0.53729135282E+02 -0.27763141517E+02  0.96972440037E+01  0.61250793549E+02  0.10566000000E+00 0.  1.
         23    2    1    0    0    0 -0.28079104882E+02 -0.24104223273E+02  0.80864314231E+01  0.87210716958E+02  0.78554879343E+02 0.  0.
         13    1    3    3    0    0  0.25650030400E+02  0.36589182441E+01 -0.16108125805E+01  0.25959923410E+02  0.10566000000E+00 0. -1.
         22    1    1    0    0    0  0.28079104882E+02  0.24104223273E+02 -0.80864314231E+01  0.37879283042E+02  0.00000000000E+00 0.  1.
</event>
<event>
 5    1  0.1264731E-009  0.9118800E+02  0.7815553E-02  0.1125453E+00
         25   -1    0    0    0    0  0.00000000000E+00  0.00000000000E+00  0.99999998245E-14  0.12509000000E+03  0.12509000000E+03 0.  0.
        -13    1    3    3    0    0  0.29910601694E+02 -0.50045639819E+02 -0.54360607852E+01  0.58555717735E+02  0.10566000000E+00 0. -1.
         23    2    1    0    0    0 -0.81558474740E+00 -0.28196654493E+02 -0.59455474323E+01  0.96261784007E+02  0.91843698873E+02 0.  0.
         13    1    3    3    0    0 -0.30726186442E+02  0.21848985325E+02 -0.50948664713E+00  0.37706066271E+02  0.10566000000E+00 0.  1.
         22    1    1    0    0    0  0.81558474740E+00  0.28196654493E+02  0.59455474323E+01  0.28828215993E+02  0.00000000000E+00 0. -1.
</event>
<event>
 5    1  0.1264731E-009  0.9118800E+02  0.7815553E-02  0.1125453E+00
         25   -1    0    0    0    0  0.00000000000E+00  0.00000000000E+00  0.99999998245E-14  0.12509000000E+03  0.12509000000E+03 0.  0.
        -13    1    3    3    0    0 -0.16306102270E+02 -0.30366046363E+02  0.14175331561E+02  0.37268444184E+02  0.10566000000E+00 0.  1.
         23    2    1    0    0    0  0.22604748984E+02 -0.14741642486E+01 -0.18603648243E+02  0.95777143353E+02  0.91181235043E+02 0.  0.
         13    1    3    3    0    0  0.38910851254E+02  0.28891882115E+02 -0.32778979804E+02  0.58508699169E+02  0.10566000000E+00 0. -1.
         22    1    1    0    0    0 -0.22604748984E+02  0.14741642486E+01  0.18603648243E+02  0.29312856647E+02  0.00000000000E+00 0. -1.
</event>
<event>
 5    1  0.1264731E-009  0.9118800E+02  0.7815553E-02  0.1125453E+00
         25   -1    0    0    0    0  0.00000000000E+00  0.00000000000E+00  0.99999998245E-14  0.12509000000E+03  0.12509000000E+03 0.  0.
        -13    1    3    3    0    0  0.20007004016E+02 -0.20484438307E+02  0.53449527888E+02  0.60636256629E+02  0.10566000000E+00 0.  1.
         23    2    1    0    0    0  0.48872246355E+01 -0.19208892440E+02  0.22504292415E+02  0.95101507366E+02  0.90249581787E+02 0.  0.
         13    1    3    3    0    0 -0.15119779380E+02  0.12755458670E+01 -0.30945235474E+02  0.34465250737E+02  0.10566000000E+00 0. -1.
         22    1    1    0    0    0 -0.48872246355E+01  0.19208892440E+02 -0.22504292415E+02  0.29988492634E+02  0.00000000000E+00 0.  1.
</event>
<event>
 5    1  0.1264731E-009  0.9118800E+02  0.7815553E-02  0.1125453E+00
         25   -1    0    0    0    0  0.00000000000E+00  0.00000000000E+00  0.99999998245E-14  0.12509000000E+03  0.12509000000E+03 0.  0.
        -13    1    3    3    0    0  0.45326004882E+02 -0.24120801020E+02  0.70172617123E+01  0.51821934414E+02  0.10566000000E+00 0. -1.
         23    2    1    0    0    0  0.16851871811E+01 -0.13235935927E+02 -0.17527978812E+02  0.10306138459E+03  0.10067963596E+03 0.  0.
         13    1    3    3    0    0 -0.43640817701E+02  0.10884865092E+02 -0.24545240525E+02  0.51239450174E+02  0.10566000000E+00 0.  1.
         22    1    1    0    0    0 -0.16851871811E+01  0.13235935927E+02  0.17527978812E+02  0.22028615412E+02  0.00000000000E+00 0.  1.
</event>
<event>
 5    1  0.1264731E-009  0.9118800E+02  0.7815553E-02  0.1125453E+00
         25   -1    0    0    0    0  0.00000000000E+00  0.00000000000E+00  0.99999998245E-14  0.12509000000E+03  0.12509000000E+03 0.  0.
        -13    1    3    3    0    0 -0.11251225806E+02  0.35098807784E+02 -0.93561564961E+01  0.38027164217E+02  0.10566000000E+00 0.  1.
         23    2    1    0    0    0  0.49023495534E+01 -0.77654412549E+01  0.27039841800E+02  0.96533246795E+02  0.92212686672E+02 0.  0.
         13    1    3    3    0    0  0.16153575359E+02 -0.42864249039E+02  0.36395998296E+02  0.58506082578E+02  0.10566000000E+00 0. -1.
         22    1    1    0    0    0 -0.49023495534E+01  0.77654412549E+01 -0.27039841800E+02  0.28556753205E+02  0.00000000000E+00 0. -1.
</event>
<event>
 5    1  0.1264731E-009  0.9118800E+02  0.7815553E-02  0.1125453E+00
         25   -1    0    0    0    0  0.00000000000E+00  0.00000000000E+00  0.99999998245E-14  0.12509000000E+03  0.12509000000E+03 0.  0.
        -13    1    3    3    0    0 -0.53514971100E+01 -0.47718660098E+02 -0.69566983514E+01  0.48519231845E+02  0.10566000000E+00 0.  1.
         23    2    1    0    0    0  0.86112093211E+01 -0.15018078286E+02 -0.29689447676E+02  0.90722007555E+02  0.83960251013E+02 0.  0.
         13    1    3    3    0    0  0.13962706431E+02  0.32700581812E+02 -0.22732749325E+02  0.42202775710E+02  0.10566000000E+00 0. -1.
         22    1    1    0    0    0 -0.86112093211E+01  0.15018078286E+02  0.29689447676E+02  0.34367992445E+02  0.00000000000E+00 0. -1.
</event>
<event>
 5    1  0.1264731E-009  0.9118800E+02  0.7815553E-02  0.1125453E+00
         25   -1    0    0    0    0  0.00000000000E+00  0.00000000000E+00  0.99999998245E-14  0.12509000000E+03  0.12509000000E+03 0.  0.
        -13    1    3    3    0    0 -0.35405030189E+02  0.13450315824E+02 -0.44781307040E+02  0.58649840432E+02  0.10566000000E+00 0.  1.
         23    2    1    0    0    0 -0.18167174319E+02 -0.92383419356E+01 -0.21698153730E+02  0.95320837100E+02  0.90553072426E+02 0.  0.
         13    1    3    3    0    0  0.17237855870E+02 -0.22688657760E+02  0.23083153310E+02  0.36670996669E+02  0.10566000000E+00 0. -1.
         22    1    1    0    0    0  0.18167174319E+02  0.92383419356E+01  0.21698153730E+02  0.29769162900E+02  0.00000000000E+00 0.  1.
</event>
<event>
 5    1  0.1264731E-009  0.9118800E+02  0.7815553E-02  0.1125453E+00
         25   -1    0    0    0    0  0.00000000000E+00  0.00000000000E+00  0.99999998245E-14  0.12509000000E+03  0.12509000000E+03 0.  0.
        -13    1    3    3    0    0 -0.80907746835E+01  0.47061681034E+02  0.19492704357E+02  0.51577506181E+02  0.10566000000E+00 0.  1.
         23    2    1    0    0    0  0.21948558901E+02  0.16333082836E+02  0.12073222631E+02  0.95185626784E+02  0.90366099887E+02 0.  0.
         13    1    3    3    0    0  0.30039333584E+02 -0.30728598197E+02 -0.74194817265E+01  0.43608120602E+02  0.10566000000E+00 0. -1.
         22    1    1    0    0    0 -0.21948558901E+02 -0.16333082836E+02 -0.12073222631E+02  0.29904373216E+02  0.00000000000E+00 0.  1.
</event>
<event>
 5    1  0.1264731E-009  0.9118800E+02  0.7815553E-02  0.1125453E+00
         25   -1    0    0    0    0  0.00000000000E+00  0.00000000000E+00  0.99999998245E-14  0.12509000000E+03  0.12509000000E+03 0.  0.
        -13    1    3    3    0    0 -0.62843993692E+01 -0.69051082720E+01  0.60973671014E+02  0.61684470628E+02  0.10566000000E+00 0.  1.
         23    2    1    0    0    0 -0.24707940834E+01 -0.10292575818E+02  0.26165409251E+02  0.96864646475E+02  0.92661152351E+02 0.  0.
         13    1    3    3    0    0  0.38136052858E+01 -0.33874675458E+01 -0.34808261763E+02  0.35180175847E+02  0.10566000000E+00 0. -1.
         22    1    1    0    0    0  0.24707940834E+01  0.10292575818E+02 -0.26165409251E+02  0.28225353525E+02  0.00000000000E+00 0.  1.
</event>
<event>
 5    1  0.1264731E-009  0.9118800E+02  0.7815553E-02  0.1125453E+00
         25   -1    0    0    0    0  0.00000000000E+00  0.00000000000E+00  0.99999998245E-14  0.12509000000E+03  0.12509000000E+03 0.  0.
        -13    1    3    3    0    0  0.16443973675E+02  0.23652313377E+02 -0.26388124195E+02  0.39066359709E+02  0.10566000000E+00 0.  1.
         23    2    1    0    0    0  0.54464605372E+01 -0.28061076105E+02 -0.51374672690E+01  0.96047247126E+02  0.91551035963E+02 0.  0.
         13    1    3    3    0    0 -0.10997513138E+02 -0.51713389483E+02  0.21250656926E+02  0.56980887417E+02  0.10566000000E+00 0. -1.
         22    1    1    0    0    0 -0.54464605372E+01  0.28061076105E+02  0.51374672690E+01  0.29042752874E+02  0.00000000000E+00 0. -1.
</event>
<event>
 5    1  0.1264731E-009  0.9118800E+02  0.7815553E-02  0.1125453E+00
         25   -1    0    0    0    0  0.00000000000E+00  0.00000000000E+00  0.99999998245E-14  0.12509000000E+03  0.12509000000E+03 0.  0.
        -13    1    3    3    0    0  0.51205588088E+02 -0.31407400108E+02 -0.82975410070E+01  0.60640723806E+02  0.10566000000E+00 0. -1.
         23    2    1    0    0    0  0.26820395246E+02 -0.10605960279E+02  0.58250071035E+01  0.95666358105E+02  0.91029123751E+02 0.  0.
         13    1    3    3    0    0 -0.24385192842E+02  0.20801439829E+02  0.14122548110E+02  0.35025634299E+02  0.10566000000E+00 0.  1.
         22    1    1    0    0    0 -0.26820395246E+02  0.10605960279E+02 -0.58250071035E+01  0.29423641895E+02  0.00000000000E+00 0. -1.
</event>
<event>
 5    1  0.1264731E-009  0.9118800E+02  0.7815553E-02  0.1125453E+00
         25   -1    0    0    0    0  0.00000000000E+00  0.00000000000E+00  0.99999998245E-14  0.12509000000E+03  0.12509000000E+03 0.  0.
        -13    1    3    3    0    0  0.41870725378E+01 -0.53718391923E+02  0.16300592883E+02  0.56293140787E+02  0.10566000000E+00 0.  1.
         23    2    1    0    0    0  0.17518176771E+02 -0.23043213274E+02 -0.46687159347E+01  0.95769817466E+02  0.91171184228E+02 0.  0.
         13    1    3    3    0    0  0.13331104233E+02  0.30675178650E+02 -0.20969308818E+02  0.39476676679E+02  0.10566000000E+00 0. -1.
         22    1    1    0    0    0 -0.17518176771E+02  0.23043213274E+02  0.46687159347E+01  0.29320182534E+02  0.00000000000E+00 0.  1.
</event>
<event>
 5    1  0.1264731E-009  0.9118800E+02  0.7815553E-02  0.1125453E+00
         25   -1    0    0    0    0  0.00000000000E+00  0.00000000000E+00  0.99999998245E-14  0.12509000000E+03  0.12509000000E+03 0.  0.
        -13    1    3    3    0    0  0.18949181655E+02 -0.33417655342E+02 -0.23066805449E+02  0.44809595530E+02  0.10566000000E+00 0.  1.
         23    2    1    0    0    0 -0.10111157047E+02  0.72826685228E+01 -0.27382279284E+02  0.95005752022E+02  0.90116762818E+02 0.  0.
         13    1    3    3    0    0 -0.29060338701E+02  0.40700323864E+02 -0.43154738352E+01  0.50196156492E+02  0.10566000000E+00 0. -1.
         22    1    1    0    0    0  0.10111157047E+02 -0.72826685228E+01  0.27382279284E+02  0.30084247978E+02  0.00000000000E+00 0. -1.
</event>
<event>
 5    1  0.1264731E-009  0.9118800E+02  0.7815553E-02  0.1125453E+00
         25   -1    0    0    0    0  0.00000000000E+00  0.00000000000E+00  0.99999998245E-14  0.12509000000E+03  0.12509000000E+03 0.  0.
        -13    1    3    3    0    0  0.15403366123E+01  0.23085853085E+01 -0.40729930512E+02  0.40824509875E+02  0.10566000000E+00 0. -1.
         23    2    1    0    0    0  0.20053859295E+02 -0.20099624726E+02  0.62011235687E+01  0.96027892020E+02  0.91524586453E+02 0.  0.
         13    1    3    3    0    0  0.18513522683E+02 -0.22408210034E+02  0.46931054080E+02  0.55203382145E+02  0.10566000000E+00 0.  1.
         22    1    1    0    0    0 -0.20053859295E+02  0.20099624726E+02 -0.62011235687E+01  0.29062107980E+02  0.00000000000E+00 0. -1.
</event>
<event>
 5    1  0.1264731E-009  0.9118800E+02  0.7815553E-02  0.1125453E+00
         25   -1    0    0    0    0  0.00000000000E+00  0.00000000000E+00  0.99999998245E-14  0.12509000000E+03  0.12509000000E+03 0.  0.
        -13    1    3    3    0    0  0.22200269084E+02  0.15747986244E+02 -0.26955480921E+02  0.38307442277E+02  0.10566000000E+00 0.  1.
         23    2    1    0    0    0  0.50653467876E+01 -0.15611620302E+02  0.21203225274E+02  0.98276622955E+02  0.94548069420E+02 0.  0.
         13    1    3    3    0    0 -0.17134922296E+02 -0.31359606546E+02  0.48158706195E+02  0.59969180678E+02  0.10566000000E+00 0. -1.
         22    1    1    0    0    0 -0.50653467876E+01  0.15611620302E+02 -0.21203225274E+02  0.26813377045E+02  0.00000000000E+00 0. -1.
</event>
<event>
 5    1  0.1264731E-009  0.9118800E+02  0.7815553E-02  0.1125453E+00
         25   -1    0    0    0    0  0.00000000000E+00  0.00000000000E+00  0.99999998245E-14  0.12509000000E+03  0.12509000000E+03 0.  0.
        -13    1    3    3    0    0  0.27713321090E+02  0.28463933369E+01 -0.26689392738E+02  0.38580629461E+02  0.10566000000E+00 0. -1.
         23    2    1    0    0    0  0.80311846694E+01 -0.18091788340E+02  0.22235221856E+02  0.95320589130E+02  0.90552729879E+02 0.  0.
         13    1    3    3    0    0 -0.19682136420E+02 -0.20938181677E+02  0.48924614594E+02  0.56739959669E+02  0.10566000000E+00 0.  1.
         22    1    1    0    0    0 -0.80311846694E+01  0.18091788340E+02 -0.22235221856E+02  0.29769410870E+02  0.00000000000E+00 0.  1.
</event>
<event>
 5    1  0.1264731E-009  0.9118800E+02  0.7815553E-02  0.1125453E+00
         25   -1    0    0    0    0  0.00000000000E+00  0.00000000000E+00  0.99999998245E-14  0.12509000000E+03  0.12509000000E+03 0.  0.
        -13    1    3    3    0    0  0.35734171385E+02  0.18421716460E+01 -0.34077066677E+02  0.49412369285E+02  0.10566000000E+00 0.  1.
         23    2    1    0    0    0 -0.89091145711E+01  0.14964219540E+02 -0.21122053724E+02  0.97714073671E+02  0.93800846749E+02 0.  0.
         13    1    3    3    0    0 -0.44643285956E+02  0.13122047894E+02  0.12955012954E+02  0.48301704386E+02  0.10566000000E+00 0. -1.
         22    1    1    0    0    0  0.89091145711E+01 -0.14964219540E+02  0.21122053724E+02  0.27375926329E+02  0.00000000000E+00 0. -1.
</event>
<event>
 5    1  0.1264731E-009  0.9118800E+02  0.7815553E-02  0.1125453E+00
         25   -1    0    0    0    0  0.00000000000E+00  0.00000000000E+00  0.99999998245E-14  0.12509000000E+03  0.12509000000E+03 0.  0.
        -13    1    3    3    0    0  0.33656720447E+02 -0.11267501011E+02 -0.10333284899E+02  0.36966462519E+02  0.10566000000E+00 0. -1.
         23    2    1    0    0    0 -0.49330449918E+01  0.11340550200E+02  0.27107866973E+02  0.95294371737E+02  0.90516505794E+02 0.  0.
         13    1    3    3    0    0 -0.38589765439E+02  0.22608051211E+02  0.37441151873E+02  0.58327909218E+02  0.10566000000E+00 0.  1.
         22    1    1    0    0    0  0.49330449918E+01 -0.11340550200E+02 -0.27107866973E+02  0.29795628263E+02  0.00000000000E+00 0.  1.
</event>
<event>
 5    1  0.1264731E-009  0.9118800E+02  0.7815553E-02  0.1125453E+00
         25   -1    0    0    0    0  0.00000000000E+00  0.00000000000E+00  0.99999998245E-14  0.12509000000E+03  0.12509000000E+03 0.  0.
        -13    1    3    3    0    0 -0.91957159079E+01  0.31347887341E+02 -0.14782874896E+02  0.35857994730E+02  0.10566000000E+00 0.  1.
         23    2    1    0    0    0  0.49762850592E+01 -0.16390094528E+02  0.21594361147E+02  0.97527071183E+02  0.93551133443E+02 0.  0.
         13    1    3    3    0    0  0.14172000967E+02 -0.47737981870E+02  0.36377236043E+02  0.61669076453E+02  0.10566000000E+00 0. -1.
         22    1    1    0    0    0 -0.49762850592E+01  0.16390094528E+02 -0.21594361147E+02  0.27562928817E+02  0.00000000000E+00 0. -1.
</event>
<event>
 5    1  0.1264731E-009  0.9118800E+02  0.7815553E-02  0.1125453E+00
         25   -1    0    0    0    0  0.00000000000E+00  0.00000000000E+00  0.99999998245E-14  0.12509000000E+03  0.12509000000E+03 0.  0.
        -13    1    3    3    0    0 -0.29101004561E+02  0.40086123290E+02  0.38463521449E+01  0.49684719339E+02  0.10566000000E+00 0. -1.
         23    2    1    0    0    0 -0.28330948891E+02 -0.44479987718E+01 -0.70899498054E+01  0.95548592681E+02  0.90867149272E+02 0.  0.
         13    1    3    3    0    0  0.77005567012E+00 -0.44534122062E+02 -0.10936301950E+02  0.45863873342E+02  0.10566000000E+00 0.  1.
         22    1    1    0    0    0  0.28330948891E+02  0.44479987718E+01  0.70899498054E+01  0.29541407319E+02  0.00000000000E+00 0. -1.
</event>
<event>
 5    1  0.1264731E-009  0.9118800E+02  0.7815553E-02  0.1125453E+00
         25   -1    0    0    0    0  0.00000000000E+00  0.00000000000E+00  0.99999998245E-14  0.12509000000E+03  0.12509000000E+03 0.  0.
        -13    1    3    3    0    0 -0.29633779022E+02 -0.26807484245E+02 -0.27330054430E+01  0.40053496146E+02  0.10566000000E+00 0. -1.
         23    2    1    0    0    0  0.23250025120E+02 -0.16811937764E+02  0.87675103158E+01  0.95088764082E+02  0.90231917291E+02 0.  0.
         13    1    3    3    0    0  0.52883804143E+02  0.99955464811E+01  0.11500515759E+02  0.55035267936E+02  0.10566000000E+00 0.  1.
         22    1    1    0    0    0 -0.23250025120E+02  0.16811937764E+02 -0.87675103158E+01  0.30001235918E+02  0.00000000000E+00 0.  1.
</event>
<event>
 5    1  0.1264731E-009  0.9118800E+02  0.7815553E-02  0.1125453E+00
         25   -1    0    0    0    0  0.00000000000E+00  0.00000000000E+00  0.99999998245E-14  0.12509000000E+03  0.12509000000E+03 0.  0.
        -13    1    3    3    0    0  0.33032404778E+02 -0.30708825901E+02 -0.42681531403E+02  0.62095861703E+02  0.10566000000E+00 0.  1.
         23    2    1    0    0    0  0.13930827866E+02 -0.12090763768E+02 -0.24689296847E+02  0.94270916427E+02  0.89090907345E+02 0.  0.
         13    1    3    3    0    0 -0.19101576912E+02  0.18618062133E+02  0.17992234557E+02  0.32175054724E+02  0.10566000000E+00 0. -1.
         22    1    1    0    0    0 -0.13930827866E+02  0.12090763768E+02  0.24689296847E+02  0.30819083573E+02  0.00000000000E+00 0.  1.
</event>
<event>
 5    1  0.1264731E-009  0.9118800E+02  0.7815553E-02  0.1125453E+00
         25   -1    0    0    0    0  0.00000000000E+00  0.00000000000E+00  0.99999998245E-14  0.12509000000E+03  0.12509000000E+03 0.  0.
        -13    1    3    3    0    0 -0.48702437626E+01  0.31856725223E+02  0.35151080209E+02  0.47688361475E+02  0.10566000000E+00 0.  1.
         23    2    1    0    0    0  0.42465256501E+01 -0.17255655865E+02  0.30654550990E+01  0.10705703978E+03  0.10552735243E+03 0.  0.
         13    1    3    3    0    0  0.91167694127E+01 -0.49112381088E+02 -0.32085625110E+02  0.59368678303E+02  0.10566000000E+00 0. -1.
         22    1    1    0    0    0 -0.42465256501E+01  0.17255655865E+02 -0.30654550990E+01  0.18032960223E+02  0.00000000000E+00 0. -1.
</event>
<event>
 5    1  0.1264731E-009  0.9118800E+02  0.7815553E-02  0.1125453E+00
         25   -1    0    0    0    0  0.00000000000E+00  0.00000000000E+00  0.99999998245E-14  0.12509000000E+03  0.12509000000E+03 0.  0.
        -13    1    3    3    0    0  0.76448745043E+01 -0.47455205143E+02 -0.14849424951E+01  0.48090090659E+02  0.10566000000E+00 0. -1.
         23    2    1    0    0    0  0.15705631794E+02 -0.61517396882E+01  0.22839540745E+02  0.96697124261E+02  0.92434725335E+02 0.  0.
         13    1    3    3    0    0  0.80607572899E+01  0.41303465455E+02  0.24324483241E+02  0.48607033602E+02  0.10566000000E+00 0.  1.
         22    1    1    0    0    0 -0.15705631794E+02  0.61517396882E+01 -0.22839540745E+02  0.28392875739E+02  0.00000000000E+00 0.  1.
</event>
<event>
 5    1  0.1264731E-009  0.9118800E+02  0.7815553E-02  0.1125453E+00
         25   -1    0    0    0    0  0.00000000000E+00  0.00000000000E+00  0.99999998245E-14  0.12509000000E+03  0.12509000000E+03 0.  0.
        -13    1    3    3    0    0 -0.16167040324E+02 -0.34451097550E+02  0.29027198448E+02  0.47862727973E+02  0.10566000000E+00 0. -1.
         23    2    1    0    0    0  0.11424817230E+02 -0.25853939656E+02 -0.88178148561E+01  0.95480769965E+02  0.90773734801E+02 0.  0.
         13    1    3    3    0    0  0.27591857553E+02  0.85971578940E+01 -0.37845013304E+02  0.47618041992E+02  0.10566000000E+00 0.  1.
         22    1    1    0    0    0 -0.11424817230E+02  0.25853939656E+02  0.88178148561E+01  0.29609230035E+02  0.00000000000E+00 0. -1.
</event>
<event>
 5    1  0.1264731E-009  0.9118800E+02  0.7815553E-02  0.1125453E+00
         25   -1    0    0    0    0  0.00000000000E+00  0.00000000000E+00  0.99999998245E-14  0.12509000000E+03  0.12509000000E+03 0.  0.
        -13    1    3    3    0    0 -0.30632823465E+02  0.30952293712E+02 -0.31618266175E+02  0.53815799533E+02  0.10566000000E+00 0.  1.
         23    2    1    0    0    0 -0.36819029114E+01  0.32456255845E+02 -0.44325945180E+01  0.92126188833E+02  0.86026866862E+02 0.  0.
         13    1    3    3    0    0  0.26950920554E+02  0.15039621331E+01  0.27185671657E+02  0.38310389299E+02  0.10566000000E+00 0. -1.
         22    1    1    0    0    0  0.36819029114E+01 -0.32456255845E+02  0.44325945180E+01  0.32963811167E+02  0.00000000000E+00 0.  1.
</event>
<event>
 5    1  0.1264731E-009  0.9118800E+02  0.7815553E-02  0.1125453E+00
         25   -1    0    0    0    0  0.00000000000E+00  0.00000000000E+00  0.99999998245E-14  0.12509000000E+03  0.12509000000E+03 0.  0.
        -13    1    3    3    0    0  0.19515221411E+02  0.32444677714E+02  0.12695329218E+02  0.39933488787E+02  0.10566000000E+00 0. -1.
         23    2    1    0    0    0  0.58438483944E+01 -0.22685163261E+02 -0.79243560186E+01  0.10036020796E+03  0.97265660571E+02 0.  0.
         13    1    3    3    0    0 -0.13671373017E+02 -0.55129840976E+02 -0.20619685237E+02  0.60426719169E+02  0.10566000000E+00 0.  1.
         22    1    1    0    0    0 -0.58438483944E+01  0.22685163261E+02  0.79243560186E+01  0.24729792044E+02  0.00000000000E+00 0.  1.
</event>
<event>
 5    1  0.1264731E-009  0.9118800E+02  0.7815553E-02  0.1125453E+00
         25   -1    0    0    0    0  0.00000000000E+00  0.00000000000E+00  0.99999998245E-14  0.12509000000E+03  0.12509000000E+03 0.  0.
        -13    1    3    3    0    0 -0.30939014224E+02 -0.40985064634E+02 -0.18075334021E+02  0.54440122963E+02  0.10566000000E+00 0.  1.
         23    2    1    0    0    0 -0.22504093283E+02 -0.29988634924E+01 -0.21908301220E+02  0.93540022836E+02  0.88058700950E+02 0.  0.
         13    1    3    3    0    0  0.84349209410E+01  0.37986201142E+02 -0.38329671987E+01  0.39099899873E+02  0.10566000000E+00 0. -1.
         22    1    1    0    0    0  0.22504093283E+02  0.29988634924E+01  0.21908301220E+02  0.31549977164E+02  0.00000000000E+00 0.  1.
</event>
<event>
 5    1  0.1264731E-009  0.9118800E+02  0.7815553E-02  0.1125453E+00
         25   -1    0    0    0    0  0.00000000000E+00  0.00000000000E+00  0.99999998245E-14  0.12509000000E+03  0.12509000000E+03 0.  0.
        -13    1    3    3    0    0  0.14791329127E+02  0.49957180965E+02  0.13974261964E+02  0.53942511146E+02  0.10566000000E+00 0. -1.
         23    2    1    0    0    0  0.14109680995E+02  0.96615175457E+01  0.24140327959E+02  0.95506500324E+02  0.90809185390E+02 0.  0.
         13    1    3    3    0    0 -0.68164813138E+00 -0.40295663419E+02  0.10166065995E+02  0.41563989178E+02  0.10566000000E+00 0.  1.
         22    1    1    0    0    0 -0.14109680995E+02 -0.96615175457E+01 -0.24140327959E+02  0.29583499676E+02  0.00000000000E+00 0. -1.
</event>
<event>
 5    1  0.1264731E-009  0.9118800E+02  0.7815553E-02  0.1125453E+00
         25   -1    0    0    0    0  0.00000000000E+00  0.00000000000E+00  0.99999998245E-14  0.12509000000E+03  0.12509000000E+03 0.  0.
        -13    1    3    3    0    0  0.25791281166E+02  0.19002180062E+02 -0.41535015447E+02  0.52454186711E+02  0.10566000000E+00 0. -1.
         23    2    1    0    0    0  0.16831893994E+02 -0.16114800005E+02 -0.14895176117E+02  0.97433794436E+02  0.93426327082E+02 0.  0.
         13    1    3    3    0    0 -0.89593871725E+01 -0.35116980067E+02  0.26639839330E+02  0.44979607725E+02  0.10566000000E+00 0.  1.
         22    1    1    0    0    0 -0.16831893994E+02  0.16114800005E+02  0.14895176117E+02  0.27656205564E+02  0.00000000000E+00 0. -1.
</event>
<event>
 5    1  0.1264731E-009  0.9118800E+02  0.7815553E-02  0.1125453E+00
         25   -1    0    0    0    0  0.00000000000E+00  0.00000000000E+00  0.99999998245E-14  0.12509000000E+03  0.12509000000E+03 0.  0.
        -13    1    3    3    0    0 -0.75202027616E+01 -0.22802975136E+02 -0.54544402679E+02  0.59595571583E+02  0.10566000000E+00 0. -1.
         23    2    1    0    0    0 -0.52719307221E+01  0.24094085677E+01 -0.28847950340E+02  0.95665473801E+02  0.91027908554E+02 0.  0.
         13    1    3    3    0    0  0.22482720395E+01  0.25212383704E+02  0.25696452339E+02  0.36069902218E+02  0.10566000000E+00 0.  1.
         22    1    1    0    0    0  0.52719307221E+01 -0.24094085677E+01  0.28847950340E+02  0.29424526199E+02  0.00000000000E+00 0. -1.
</event>
<event>
 5    1  0.1264731E-009  0.9118800E+02  0.7815553E-02  0.1125453E+00
         25   -1    0    0    0    0  0.00000000000E+00  0.00000000000E+00  0.99999998245E-14  0.12509000000E+03  0.12509000000E+03 0.  0.
        -13    1    3    3    0    0 -0.93838256121E+00 -0.10971680689E+02  0.34366080527E+02  0.36087352269E+02  0.10566000000E+00 0.  1.
         23    2    1    0    0    0  0.15597540097E+02  0.19647401585E+02 -0.14528137906E+02  0.96100856564E+02  0.91624255496E+02 0.  0.
         13    1    3    3    0    0  0.16535922659E+02  0.30619082274E+02 -0.48894218433E+02  0.60013504295E+02  0.10566000000E+00 0. -1.
         22    1    1    0    0    0 -0.15597540097E+02 -0.19647401585E+02  0.14528137906E+02  0.28989143436E+02  0.00000000000E+00 0. -1.
</event>
<event>
 5    1  0.1264731E-009  0.9118800E+02  0.7815553E-02  0.1125453E+00
         25   -1    0    0    0    0  0.00000000000E+00  0.00000000000E+00  0.99999998245E-14  0.12509000000E+03  0.12509000000E+03 0.  0.
        -13    1    3    3    0    0 -0.22373765976E+02 -0.26986815575E+02 -0.11346594158E+02  0.36846030747E+02  0.10566000000E+00 0. -1.
         23    2    1    0    0    0  0.28923642941E+02  0.89640351515E+00 -0.10459408446E+01  0.96133573209E+02  0.91668911008E+02 0.  0.
         13    1    3    3    0    0  0.51297408917E+02  0.27883219090E+02  0.10300653313E+02  0.59287542462E+02  0.10566000000E+00 0.  1.
         22    1    1    0    0    0 -0.28923642941E+02 -0.89640351515E+00  0.10459408446E+01  0.28956426791E+02  0.00000000000E+00 0.  1.
</event>
<event>
 5    1  0.1264731E-009  0.9118800E+02  0.7815553E-02  0.1125453E+00
         25   -1    0    0    0    0  0.00000000000E+00  0.00000000000E+00  0.99999998245E-14  0.12509000000E+03  0.12509000000E+03 0.  0.
        -13    1    3    3    0    0 -0.49893434450E+02  0.28200383220E+02 -0.80253238318E+01  0.57870833773E+02  0.10566000000E+00 0.  1.
         23    2    1    0    0    0 -0.14073170869E+02  0.25432776351E+02 -0.11204542225E+02  0.93938402646E+02  0.88622804480E+02 0.  0.
         13    1    3    3    0    0  0.35820263581E+02 -0.27676068687E+01 -0.31792183927E+01  0.36067568873E+02  0.10566000000E+00 0. -1.
         22    1    1    0    0    0  0.14073170869E+02 -0.25432776351E+02  0.11204542225E+02  0.31151597354E+02  0.00000000000E+00 0.  1.
</event>
<event>
 5    1  0.1264731E-009  0.9118800E+02  0.7815553E-02  0.1125453E+00
         25   -1    0    0    0    0  0.00000000000E+00  0.00000000000E+00  0.99999998245E-14  0.12509000000E+03  0.12509000000E+03 0.  0.
        -13    1    3    3    0    0  0.31143796776E+02 -0.16214862372E+01  0.13637415784E+02  0.34037561143E+02  0.10566000000E+00 0. -1.
         23    2    1    0    0    0 -0.28680440212E+02  0.60589856217E+01  0.47348011045E+00  0.95772716003E+02  0.91175161035E+02 0.  0.
         13    1    3    3    0    0 -0.59824236988E+02  0.76804718589E+01 -0.13163935673E+02  0.61735154861E+02  0.10566000000E+00 0.  1.
         22    1    1    0    0    0  0.28680440212E+02 -0.60589856217E+01 -0.47348011045E+00  0.29317283997E+02  0.00000000000E+00 0.  1.
</event>
<event>
 5    1  0.1264731E-009  0.9118800E+02  0.7815553E-02  0.1125453E+00
         25   -1    0    0    0    0  0.00000000000E+00  0.00000000000E+00  0.99999998245E-14  0.12509000000E+03  0.12509000000E+03 0.  0.
        -13    1    3    3    0    0 -0.42933918661E+01 -0.54350938841E+02 -0.59991824907E+01  0.54849422250E+02  0.10566000000E+00 0. -1.
         23    2    1    0    0    0  0.25618696235E+01 -0.17493995424E+02 -0.23054915337E+02  0.96036047204E+02  0.91535731764E+02 0.  0.
         13    1    3    3    0    0  0.68552614897E+01  0.36856943417E+02 -0.17055732846E+02  0.41186624954E+02  0.10566000000E+00 0.  1.
         22    1    1    0    0    0 -0.25618696235E+01  0.17493995424E+02  0.23054915337E+02  0.29053952796E+02  0.00000000000E+00 0. -1.
</event>
<event>
 5    1  0.1264731E-009  0.9118800E+02  0.7815553E-02  0.1125453E+00
         25   -1    0    0    0    0  0.00000000000E+00  0.00000000000E+00  0.99999998245E-14  0.12509000000E+03  0.12509000000E+03 0.  0.
        -13    1    3    3    0    0 -0.17072954028E+02  0.25996396397E+02  0.24212558873E+02  0.39415194482E+02  0.10566000000E+00 0. -1.
         23    2    1    0    0    0  0.99972050552E+01 -0.22404107890E+02  0.16778932606E+02  0.95367605435E+02  0.90617655166E+02 0.  0.
         13    1    3    3    0    0  0.27070159083E+02 -0.48400504287E+02 -0.74336262667E+01  0.55952410953E+02  0.10566000000E+00 0.  1.
         22    1    1    0    0    0 -0.99972050552E+01  0.22404107890E+02 -0.16778932606E+02  0.29722394565E+02  0.00000000000E+00 0.  1.
</event>
<event>
 5    1  0.1264731E-009  0.9118800E+02  0.7815553E-02  0.1125453E+00
         25   -1    0    0    0    0  0.00000000000E+00  0.00000000000E+00  0.99999998245E-14  0.12509000000E+03  0.12509000000E+03 0.  0.
        -13    1    3    3    0    0  0.26341032230E+02 -0.23824770418E+02 -0.11436791862E+00  0.35517515517E+02  0.10566000000E+00 0.  1.
         23    2    1    0    0    0 -0.26031612703E+02  0.25023225742E+00  0.14916804462E+02  0.95086358030E+02  0.90228581680E+02 0.  0.
         13    1    3    3    0    0 -0.52372644934E+02  0.24075002676E+02  0.15031172380E+02  0.59568842513E+02  0.10566000000E+00 0. -1.
         22    1    1    0    0    0  0.26031612703E+02 -0.25023225742E+00 -0.14916804462E+02  0.30003641970E+02  0.00000000000E+00 0. -1.
</event>
<event>
 5    1  0.1264731E-009  0.9118800E+02  0.7815553E-02  0.1125453E+00
         25   -1    0    0    0    0  0.00000000000E+00  0.00000000000E+00  0.99999998245E-14  0.12509000000E+03  0.12509000000E+03 0.  0.
        -13    1    3    3    0    0  0.14267710529E+02 -0.85510748751E+01 -0.33745666897E+02  0.37622727753E+02  0.10566000000E+00 0. -1.
         23    2    1    0    0    0 -0.28667251484E+02 -0.19250075579E+02 -0.54833366122E+01  0.90126537674E+02  0.83068339909E+02 0.  0.
         13    1    3    3    0    0 -0.42934962012E+02 -0.10699000704E+02  0.28262330284E+02  0.52503809921E+02  0.10566000000E+00 0.  1.
         22    1    1    0    0    0  0.28667251484E+02  0.19250075579E+02  0.54833366122E+01  0.34963462326E+02  0.00000000000E+00 0.  1.
</event>
<event>
 5    1  0.1264731E-009  0.9118800E+02  0.7815553E-02  0.1125453E+00
         25   -1    0    0    0    0  0.00000000000E+00  0.00000000000E+00  0.99999998245E-14  0.12509000000E+03  0.12509000000E+03 0.  0.
        -13    1    3    3    0    0  0.30998431560E+01 -0.23548072516E+02  0.28453650698E+02  0.37064027694E+02  0.10566000000E+00 0. -1.
         23    2    1    0    0    0 -0.15630428170E+02  0.24317925366E+02 -0.73282036765E+00  0.96172724807E+02  0.91722321123E+02 0.  0.
         13    1    3    3    0    0 -0.18730271326E+02  0.47865997882E+02 -0.29186471065E+02  0.59108697114E+02  0.10566000000E+00 0.  1.
         22    1    1    0    0    0  0.15630428170E+02 -0.24317925366E+02  0.73282036765E+00  0.28917275193E+02  0.00000000000E+00 0.  1.
</event>
<event>
 5    1  0.1264731E-009  0.9118800E+02  0.7815553E-02  0.1125453E+00
         25   -1    0    0    0    0  0.00000000000E+00  0.00000000000E+00  0.99999998245E-14  0.12509000000E+03  0.12509000000E+03 0.  0.
        -13    1    3    3    0    0  0.30429834443E+02  0.88415959203E+01 -0.10561116200E+02  0.33402050567E+02  0.10566000000E+00 0. -1.
         23    2    1    0    0    0 -0.24001943906E+02  0.83240566138E+01  0.17105206387E+02  0.94463682635E+02  0.89361154993E+02 0.  0.
         13    1    3    3    0    0 -0.54431778350E+02 -0.51753930657E+00  0.27666322588E+02  0.61061632068E+02  0.10566000000E+00 0.  1.
         22    1    1    0    0    0  0.24001943906E+02 -0.83240566138E+01 -0.17105206387E+02  0.30626317365E+02  0.00000000000E+00 0.  1.
</event>
<event>
 5    1  0.1264731E-009  0.9118800E+02  0.7815553E-02  0.1125453E+00
         25   -1    0    0    0    0  0.00000000000E+00  0.00000000000E+00  0.99999998245E-14  0.12509000000E+03  0.12509000000E+03 0.  0.
        -13    1    3    3    0    0  0.41812691758E+02 -0.23284951711E+02 -0.23402552768E+02  0.53274579382E+02  0.10566000000E+00 0.  1.
         23    2    1    0    0    0  0.26091347105E+02 -0.22565197331E+02  0.91236280225E+01  0.89408252388E+02  0.81979561370E+02 0.  0.
         13    1    3    3    0    0 -0.15721344652E+02  0.71975438012E+00  0.32526180791E+02  0.36133673006E+02  0.10566000000E+00 0. -1.
         22    1    1    0    0    0 -0.26091347105E+02  0.22565197331E+02 -0.91236280225E+01  0.35681747612E+02  0.00000000000E+00 0.  1.
</event>
<event>
 5    1  0.1264731E-009  0.9118800E+02  0.7815553E-02  0.1125453E+00
         25   -1    0    0    0    0  0.00000000000E+00  0.00000000000E+00  0.99999998245E-14  0.12509000000E+03  0.12509000000E+03 0.  0.
        -13    1    3    3    0    0 -0.54258483149E+02  0.67201783078E+01  0.94663351242E+01  0.55486633119E+02  0.10566000000E+00 0.  1.
         23    2    1    0    0    0 -0.15828731894E+02  0.20738743670E+02  0.11792112701E+02  0.96459628638E+02  0.92112766719E+02 0.  0.
         13    1    3    3    0    0  0.38429751256E+02  0.14018565362E+02  0.23257775772E+01  0.40972995518E+02  0.10566000000E+00 0. -1.
         22    1    1    0    0    0  0.15828731894E+02 -0.20738743670E+02 -0.11792112701E+02  0.28630371362E+02  0.00000000000E+00 0.  1.
</event>
<event>
 5    1  0.1264731E-009  0.9118800E+02  0.7815553E-02  0.1125453E+00
         25   -1    0    0    0    0  0.00000000000E+00  0.00000000000E+00  0.99999998245E-14  0.12509000000E+03  0.12509000000E+03 0.  0.
        -13    1    3    3    0    0  0.47220251068E+02  0.38935935289E+02 -0.11860951649E+02  0.62341418862E+02  0.10566000000E+00 0.  1.
         23    2    1    0    0    0  0.20838899344E+02  0.21295224593E+02 -0.40858633226E+01  0.95016081143E+02  0.90131099408E+02 0.  0.
         13    1    3    3    0    0 -0.26381351724E+02 -0.17640710696E+02  0.77750883262E+01  0.32674662281E+02  0.10566000000E+00 0. -1.
         22    1    1    0    0    0 -0.20838899344E+02 -0.21295224593E+02  0.40858633226E+01  0.30073918857E+02  0.00000000000E+00 0.  1.
</event>
<event>
 5    1  0.1264731E-009  0.9118800E+02  0.7815553E-02  0.1125453E+00
         25   -1    0    0    0    0  0.00000000000E+00  0.00000000000E+00  0.99999998245E-14  0.12509000000E+03  0.12509000000E+03 0.  0.
        -13    1    3    3    0    0  0.24275848057E+02  0.21553229520E+01  0.38115363994E+02  0.45241069310E+02  0.10566000000E+00 0. -1.
         23    2    1    0    0    0 -0.25332566266E+01 -0.26427497809E+02  0.21115541421E+01  0.98457525642E+02  0.94787107061E+02 0.  0.
         13    1    3    3    0    0 -0.26809104683E+02 -0.28582820761E+02 -0.36003809852E+02  0.53216456331E+02  0.10566000000E+00 0.  1.
         22    1    1    0    0    0  0.25332566266E+01  0.26427497809E+02 -0.21115541421E+01  0.26632474358E+02  0.00000000000E+00 0. -1.
</event>
<event>
 5    1  0.1264731E-009  0.9118800E+02  0.7815553E-02  0.1125453E+00
         25   -1    0    0    0    0  0.00000000000E+00  0.00000000000E+00  0.99999998245E-14  0.12509000000E+03  0.12509000000E+03 0.  0.
        -13    1    3    3    0    0 -0.13318125676E+02 -0.32221280576E+02 -0.42479046821E+02  0.54955108737E+02  0.10566000000E+00 0. -1.
         23    2    1    0    0    0 -0.22905396570E+02 -0.21669143846E+01 -0.25364216768E+02  0.90845347830E+02  0.84143811538E+02 0.  0.
         13    1    3    3    0    0 -0.95872708946E+01  0.30054366191E+02  0.17114830053E+02  0.35890239093E+02  0.10566000000E+00 0.  1.
         22    1    1    0    0    0  0.22905396570E+02  0.21669143846E+01  0.25364216768E+02  0.34244652170E+02  0.00000000000E+00 0. -1.
</event>
<event>
 5    1  0.1264731E-009  0.9118800E+02  0.7815553E-02  0.1125453E+00
         25   -1    0    0    0    0  0.00000000000E+00  0.00000000000E+00  0.99999998245E-14  0.12509000000E+03  0.12509000000E+03 0.  0.
        -13    1    3    3    0    0 -0.42091307769E+02 -0.13758055015E+01  0.25990066258E+02  0.49488036318E+02  0.10566000000E+00 0.  1.
         23    2    1    0    0    0 -0.27555987982E+02 -0.21199519946E+02 -0.59761197068E+01  0.89813008542E+02  0.82594856843E+02 0.  0.
         13    1    3    3    0    0  0.14535319787E+02 -0.19823714445E+02 -0.31966185965E+02  0.40324972224E+02  0.10566000000E+00 0. -1.
         22    1    1    0    0    0  0.27555987982E+02  0.21199519946E+02  0.59761197068E+01  0.35276991458E+02  0.00000000000E+00 0.  1.
</event>
<event>
 5    1  0.1264731E-009  0.9118800E+02  0.7815553E-02  0.1125453E+00
         25   -1    0    0    0    0  0.00000000000E+00  0.00000000000E+00  0.99999998245E-14  0.12509000000E+03  0.12509000000E+03 0.  0.
        -13    1    3    3    0    0  0.51960864943E+01  0.60910200611E+02 -0.83811568661E+01  0.61703377605E+02  0.10566000000E+00 0. -1.
         23    2    1    0    0    0  0.49042253760E+01  0.26971120482E+02 -0.10558319444E+02  0.95713634056E+02  0.91094066042E+02 0.  0.
         13    1    3    3    0    0 -0.29186111833E+00 -0.33939080129E+02 -0.21771625782E+01  0.34010256451E+02  0.10566000000E+00 0.  1.
         22    1    1    0    0    0 -0.49042253760E+01 -0.26971120482E+02  0.10558319444E+02  0.29376365944E+02  0.00000000000E+00 0. -1.
</event>
<event>
 5    1  0.1264731E-009  0.9118800E+02  0.7815553E-02  0.1125453E+00
         25   -1    0    0    0    0  0.00000000000E+00  0.00000000000E+00  0.99999998245E-14  0.12509000000E+03  0.12509000000E+03 0.  0.
        -13    1    3    3    0    0 -0.55115053775E+02  0.18217945519E+02 -0.17288190366E+02  0.60567775110E+02  0.10566000000E+00 0.  1.
         23    2    1    0    0    0 -0.28334505989E+02 -0.19981023201E+01 -0.53296950908E+01  0.96189441315E+02  0.91745116100E+02 0.  0.
         13    1    3    3    0    0  0.26780547786E+02 -0.20216047839E+02  0.11958495275E+02  0.35621666205E+02  0.10566000000E+00 0. -1.
         22    1    1    0    0    0  0.28334505989E+02  0.19981023201E+01  0.53296950908E+01  0.28900558685E+02  0.00000000000E+00 0.  1.
</event>
<event>
 5    1  0.1264731E-009  0.9118800E+02  0.7815553E-02  0.1125453E+00
         25   -1    0    0    0    0  0.00000000000E+00  0.00000000000E+00  0.99999998245E-14  0.12509000000E+03  0.12509000000E+03 0.  0.
        -13    1    3    3    0    0 -0.19576415262E+02 -0.45057729839E+02 -0.37357820114E+02  0.61717525391E+02  0.10566000000E+00 0.  1.
         23    2    1    0    0    0 -0.50159974344E+01 -0.25339338030E+02 -0.13412090265E+02  0.95984563268E+02  0.91465348293E+02 0.  0.
         13    1    3    3    0    0  0.14560417827E+02  0.19718391808E+02  0.23945729849E+02  0.34267037877E+02  0.10566000000E+00 0. -1.
         22    1    1    0    0    0  0.50159974344E+01  0.25339338030E+02  0.13412090265E+02  0.29105436732E+02  0.00000000000E+00 0.  1.
</event>
<event>
 5    1  0.1264731E-009  0.9118800E+02  0.7815553E-02  0.1125453E+00
         25   -1    0    0    0    0  0.00000000000E+00  0.00000000000E+00  0.99999998245E-14  0.12509000000E+03  0.12509000000E+03 0.  0.
        -13    1    3    3    0    0 -0.38109067204E+01  0.36535058733E+02  0.24829191427E+02  0.44337720257E+02  0.10566000000E+00 0. -1.
         23    2    1    0    0    0  0.17107599709E+02 -0.10975068684E+02  0.20165596537E+02  0.96458315032E+02  0.92110982812E+02 0.  0.
         13    1    3    3    0    0  0.20918506430E+02 -0.47510127416E+02 -0.46635948898E+01  0.52120594775E+02  0.10566000000E+00 0.  1.
         22    1    1    0    0    0 -0.17107599709E+02  0.10975068684E+02 -0.20165596537E+02  0.28631684968E+02  0.00000000000E+00 0. -1.
</event>
<event>
 5    1  0.1264731E-009  0.9118800E+02  0.7815553E-02  0.1125453E+00
         25   -1    0    0    0    0  0.00000000000E+00  0.00000000000E+00  0.99999998245E-14  0.12509000000E+03  0.12509000000E+03 0.  0.
        -13    1    3    3    0    0 -0.16672365943E+01  0.65444170377E+01 -0.30268113190E+02  0.31012560558E+02  0.10566000000E+00 0.  1.
         23    2    1    0    0    0  0.41711618129E+00 -0.23211704220E+01  0.31526820607E+02  0.93475094724E+02  0.87966420287E+02 0.  0.
         13    1    3    3    0    0  0.20843527756E+01 -0.88655874597E+01  0.61794933797E+02  0.62462534166E+02  0.10566000000E+00 0. -1.
         22    1    1    0    0    0 -0.41711618129E+00  0.23211704220E+01 -0.31526820607E+02  0.31614905276E+02  0.00000000000E+00 0. -1.
</event>
<event>
 5    1  0.1264731E-009  0.9118800E+02  0.7815553E-02  0.1125453E+00
         25   -1    0    0    0    0  0.00000000000E+00  0.00000000000E+00  0.99999998245E-14  0.12509000000E+03  0.12509000000E+03 0.  0.
        -13    1    3    3    0    0 -0.16915755959E+02  0.50043855513E+02  0.29540629569E+02  0.60524294573E+02  0.10566000000E+00 0.  1.
         23    2    1    0    0    0  0.29096700146E+01  0.20679534767E+02  0.17177056230E+02  0.98050018519E+02  0.94247787948E+02 0.  0.
         13    1    3    3    0    0  0.19825425973E+02 -0.29364320746E+02 -0.12363573340E+02  0.37525723945E+02  0.10566000000E+00 0. -1.
         22    1    1    0    0    0 -0.29096700146E+01 -0.20679534767E+02 -0.17177056230E+02  0.27039981481E+02  0.00000000000E+00 0.  1.
</event>
<event>
 5    1  0.1264731E-009  0.9118800E+02  0.7815553E-02  0.1125453E+00
         25   -1    0    0    0    0  0.00000000000E+00  0.00000000000E+00  0.99999998245E-14  0.12509000000E+03  0.12509000000E+03 0.  0.
        -13    1    3    3    0    0 -0.16979845504E+02  0.56468588693E+01 -0.39172922412E+02  0.43066590099E+02  0.10566000000E+00 0. -1.
         23    2    1    0    0    0  0.25683268016E+02  0.10478678705E+02 -0.76996180651E+01  0.96302553400E+02  0.91899209516E+02 0.  0.
         13    1    3    3    0    0  0.42663113520E+02  0.48318198358E+01  0.31473304346E+02  0.53235963302E+02  0.10566000000E+00 0.  1.
         22    1    1    0    0    0 -0.25683268016E+02 -0.10478678705E+02  0.76996180651E+01  0.28787446600E+02  0.00000000000E+00 0. -1.
</event>
<event>
 5    1  0.1264731E-009  0.9118800E+02  0.7815553E-02  0.1125453E+00
         25   -1    0    0    0    0  0.00000000000E+00  0.00000000000E+00  0.99999998245E-14  0.12509000000E+03  0.12509000000E+03 0.  0.
        -13    1    3    3    0    0  0.30822355935E+02 -0.21379627907E+02  0.50865123015E+01  0.37854852876E+02  0.10566000000E+00 0.  1.
         23    2    1    0    0    0 -0.26272686571E+02 -0.12285252641E+02  0.49353623419E+01  0.95669950823E+02  0.91034060641E+02 0.  0.
         13    1    3    3    0    0 -0.57095042506E+02  0.90943752658E+01 -0.15114995959E+00  0.57815097947E+02  0.10566000000E+00 0. -1.
         22    1    1    0    0    0  0.26272686571E+02  0.12285252641E+02 -0.49353623419E+01  0.29420049177E+02  0.00000000000E+00 0. -1.
</event>
<event>
 5    1  0.1264731E-009  0.9118800E+02  0.7815553E-02  0.1125453E+00
         25   -1    0    0    0    0  0.00000000000E+00  0.00000000000E+00  0.99999998245E-14  0.12509000000E+03  0.12509000000E+03 0.  0.
        -13    1    3    3    0    0  0.43709301102E+02  0.62294340661E+01 -0.66332586155E+01  0.44646613931E+02  0.10566000000E+00 0.  1.
         23    2    1    0    0    0  0.11677139630E+02  0.18947546926E+02  0.25133564334E+02  0.91518268133E+02  0.85138312301E+02 0.  0.
         13    1    3    3    0    0 -0.32032161472E+02  0.12718112860E+02  0.31766822949E+02  0.46871654202E+02  0.10566000000E+00 0. -1.
         22    1    1    0    0    0 -0.11677139630E+02 -0.18947546926E+02 -0.25133564334E+02  0.33571731867E+02  0.00000000000E+00 0.  1.
</event>
<event>
 5    1  0.1264731E-009  0.9118800E+02  0.7815553E-02  0.1125453E+00
         25   -1    0    0    0    0  0.00000000000E+00  0.00000000000E+00  0.99999998245E-14  0.12509000000E+03  0.12509000000E+03 0.  0.
        -13    1    3    3    0    0  0.10137520784E+02  0.59307555998E+02  0.12289948988E+02  0.61410174534E+02  0.10566000000E+00 0. -1.
         23    2    1    0    0    0  0.12811808249E+02  0.25236288310E+02  0.59359528804E+01  0.96172043384E+02  0.91721391800E+02 0.  0.
         13    1    3    3    0    0  0.26742874646E+01 -0.34071267689E+02 -0.63539961075E+01  0.34761868850E+02  0.10566000000E+00 0.  1.
         22    1    1    0    0    0 -0.12811808249E+02 -0.25236288310E+02 -0.59359528804E+01  0.28917956616E+02  0.00000000000E+00 0. -1.
</event>
<event>
 5    1  0.1264731E-009  0.9118800E+02  0.7815553E-02  0.1125453E+00
         25   -1    0    0    0    0  0.00000000000E+00  0.00000000000E+00  0.99999998245E-14  0.12509000000E+03  0.12509000000E+03 0.  0.
        -13    1    3    3    0    0  0.11526566961E+02  0.17629792635E+02 -0.29047985495E+02  0.35881303761E+02  0.10566000000E+00 0. -1.
         23    2    1    0    0    0  0.31393978591E+01  0.12137138251E+02  0.28320206752E+02  0.94119044989E+02  0.88877413190E+02 0.  0.
         13    1    3    3    0    0 -0.83871691020E+01 -0.54926543834E+01  0.57368192246E+02  0.58237741228E+02  0.10566000000E+00 0.  1.
         22    1    1    0    0    0 -0.31393978591E+01 -0.12137138251E+02 -0.28320206752E+02  0.30970955011E+02  0.00000000000E+00 0.  1.
</event>
<event>
 5    1  0.1264731E-009  0.9118800E+02  0.7815553E-02  0.1125453E+00
         25   -1    0    0    0    0  0.00000000000E+00  0.00000000000E+00  0.99999998245E-14  0.12509000000E+03  0.12509000000E+03 0.  0.
        -13    1    3    3    0    0  0.45549110574E+02  0.15951251692E+02 -0.16988760777E+02  0.51164372969E+02  0.10566000000E+00 0.  1.
         23    2    1    0    0    0  0.20058315182E+02  0.87333540922E+01  0.19178298276E+02  0.95996794497E+02  0.91482074459E+02 0.  0.
         13    1    3    3    0    0 -0.25490795391E+02 -0.72178976001E+01  0.36167059053E+02  0.44832421528E+02  0.10566000000E+00 0. -1.
         22    1    1    0    0    0 -0.20058315182E+02 -0.87333540922E+01 -0.19178298276E+02  0.29093205503E+02  0.00000000000E+00 0.  1.
</event>
<event>
 5    1  0.1264731E-009  0.9118800E+02  0.7815553E-02  0.1125453E+00
         25   -1    0    0    0    0  0.00000000000E+00  0.00000000000E+00  0.99999998245E-14  0.12509000000E+03  0.12509000000E+03 0.  0.
        -13    1    3    3    0    0  0.17235371836E+02 -0.38930504280E+02 -0.17135900583E+02  0.45894361948E+02  0.10566000000E+00 0.  1.
         23    2    1    0    0    0 -0.26849900418E+01 -0.76550024014E+01  0.23097572094E+02  0.10060927146E+03  0.97585446833E+02 0.  0.
         13    1    3    3    0    0 -0.19920361877E+02  0.31275501878E+02  0.40233472677E+02  0.54714909511E+02  0.10566000000E+00 0. -1.
         22    1    1    0    0    0  0.26849900418E+01  0.76550024014E+01 -0.23097572094E+02  0.24480728541E+02  0.00000000000E+00 0. -1.
</event>
<event>
 5    1  0.1264731E-009  0.9118800E+02  0.7815553E-02  0.1125453E+00
         25   -1    0    0    0    0  0.00000000000E+00  0.00000000000E+00  0.99999998245E-14  0.12509000000E+03  0.12509000000E+03 0.  0.
        -13    1    3    3    0    0 -0.55016134507E+00 -0.12059240441E+02 -0.21329751323E+02  0.24509129178E+02  0.10566000000E+00 0. -1.
         23    2    1    0    0    0 -0.11568286432E+02  0.12530444317E+01  0.37500925644E+02  0.85825323820E+02  0.76316914333E+02 0.  0.
         13    1    3    3    0    0 -0.11018125087E+02  0.13312284873E+02  0.58830676967E+02  0.61316194642E+02  0.10566000000E+00 0.  1.
         22    1    1    0    0    0  0.11568286432E+02 -0.12530444317E+01 -0.37500925644E+02  0.39264676180E+02  0.00000000000E+00 0.  1.
</event>
<event>
 5    1  0.1264731E-009  0.9118800E+02  0.7815553E-02  0.1125453E+00
         25   -1    0    0    0    0  0.00000000000E+00  0.00000000000E+00  0.99999998245E-14  0.12509000000E+03  0.12509000000E+03 0.  0.
        -13    1    3    3    0    0 -0.20130795447E+02 -0.23072925912E+02 -0.13727850330E+02  0.33557024215E+02  0.10566000000E+00 0. -1.
         23    2    1    0    0    0  0.56426164709E+01  0.28547203937E+02  0.75076079063E+01  0.95037609916E+02  0.90160973535E+02 0.  0.
         13    1    3    3    0    0  0.25773411918E+02  0.51620129849E+02  0.21235458236E+02  0.61480585701E+02  0.10566000000E+00 0.  1.
         22    1    1    0    0    0 -0.56426164709E+01 -0.28547203937E+02 -0.75076079063E+01  0.30052390084E+02  0.00000000000E+00 0.  1.
</event>
<event>
 5    1  0.1264731E-009  0.9118800E+02  0.7815553E-02  0.1125453E+00
         25   -1    0    0    0    0  0.00000000000E+00  0.00000000000E+00  0.99999998245E-14  0.12509000000E+03  0.12509000000E+03 0.  0.
        -13    1    3    3    0    0 -0.38545561217E+02  0.69299792946E+01 -0.27975348053E+01  0.39263497903E+02  0.10566000000E+00 0.  1.
         23    2    1    0    0    0  0.51840917127E+01 -0.25639263184E+02 -0.14715968479E+02  0.95076563813E+02  0.90215002270E+02 0.  0.
         13    1    3    3    0    0  0.43729652930E+02 -0.32569242479E+02 -0.11918433674E+02  0.55813065910E+02  0.10566000000E+00 0. -1.
         22    1    1    0    0    0 -0.51840917127E+01  0.25639263184E+02  0.14715968479E+02  0.30013436187E+02  0.00000000000E+00 0. -1.
</event>
<event>
 5    1  0.1264731E-009  0.9118800E+02  0.7815553E-02  0.1125453E+00
         25   -1    0    0    0    0  0.00000000000E+00  0.00000000000E+00  0.99999998245E-14  0.12509000000E+03  0.12509000000E+03 0.  0.
        -13    1    3    3    0    0 -0.46478608040E+02  0.18732788051E+02  0.88619295065E+01  0.50889324147E+02  0.10566000000E+00 0.  1.
         23    2    1    0    0    0 -0.44998172202E+01  0.21201327926E+02  0.21259595491E+02  0.94730239440E+02  0.89733512152E+02 0.  0.
         13    1    3    3    0    0  0.41978790820E+02  0.24685398742E+01  0.12397665984E+02  0.43840915293E+02  0.10566000000E+00 0. -1.
         22    1    1    0    0    0  0.44998172202E+01 -0.21201327926E+02 -0.21259595491E+02  0.30359760560E+02  0.00000000000E+00 0. -1.
</event>
<event>
 5    1  0.1264731E-009  0.9118800E+02  0.7815553E-02  0.1125453E+00
         25   -1    0    0    0    0  0.00000000000E+00  0.00000000000E+00  0.99999998245E-14  0.12509000000E+03  0.12509000000E+03 0.  0.
        -13    1    3    3    0    0 -0.30513972190E+02  0.15771413479E+02  0.21718628676E+01  0.34417555611E+02  0.10566000000E+00 0. -1.
         23    2    1    0    0    0  0.22128085558E+02 -0.17589022869E+02 -0.80769804519E+00  0.96811416724E+02  0.92589265771E+02 0.  0.
         13    1    3    3    0    0  0.52642057748E+02 -0.33360436348E+02 -0.29795609127E+01  0.62393861113E+02  0.10566000000E+00 0.  1.
         22    1    1    0    0    0 -0.22128085558E+02  0.17589022869E+02  0.80769804519E+00  0.28278583276E+02  0.00000000000E+00 0.  1.
</event>
<event>
 5    1  0.1264731E-009  0.9118800E+02  0.7815553E-02  0.1125453E+00
         25   -1    0    0    0    0  0.00000000000E+00  0.00000000000E+00  0.99999998245E-14  0.12509000000E+03  0.12509000000E+03 0.  0.
        -13    1    3    3    0    0 -0.24931407906E+02  0.24950230575E+02 -0.29839659383E+01  0.35397801100E+02  0.10566000000E+00 0. -1.
         23    2    1    0    0    0  0.82456062750E+01 -0.22453286328E+02 -0.17975955394E+02  0.95168852594E+02  0.90342877096E+02 0.  0.
         13    1    3    3    0    0  0.33177014181E+02 -0.47403516903E+02 -0.14991989456E+02  0.59771051494E+02  0.10566000000E+00 0.  1.
         22    1    1    0    0    0 -0.82456062750E+01  0.22453286328E+02  0.17975955394E+02  0.29921147406E+02  0.00000000000E+00 0.  1.
</event>
<event>
 5    1  0.1264731E-009  0.9118800E+02  0.7815553E-02  0.1125453E+00
         25   -1    0    0    0    0  0.00000000000E+00  0.00000000000E+00  0.99999998245E-14  0.12509000000E+03  0.12509000000E+03 0.  0.
        -13    1    3    3    0    0  0.38379973165E+02 -0.18324808440E+02 -0.40734092712E+02  0.58890563061E+02  0.10566000000E+00 0. -1.
         23    2    1    0    0    0  0.15260291320E+02  0.48278412117E+01 -0.25500217701E+02  0.94982764246E+02  0.90084848110E+02 0.  0.
         13    1    3    3    0    0 -0.23119681846E+02  0.23152649652E+02  0.15233875010E+02  0.36092201185E+02  0.10566000000E+00 0.  1.
         22    1    1    0    0    0 -0.15260291320E+02 -0.48278412117E+01  0.25500217701E+02  0.30107235754E+02  0.00000000000E+00 0. -1.
</event>
<event>
 5    1  0.1264731E-009  0.9118800E+02  0.7815553E-02  0.1125453E+00
         25   -1    0    0    0    0  0.00000000000E+00  0.00000000000E+00  0.99999998245E-14  0.12509000000E+03  0.12509000000E+03 0.  0.
        -13    1    3    3    0    0  0.33772401495E+01  0.44151675292E+02 -0.12883854276E+02  0.46117036409E+02  0.10566000000E+00 0. -1.
         23    2    1    0    0    0 -0.54796143438E+01 -0.77730152633E+01  0.16212721303E+02  0.10629376975E+03  0.10461867527E+03 0.  0.
         13    1    3    3    0    0 -0.88568544932E+01 -0.51924690556E+02  0.29096575579E+02  0.60176733338E+02  0.10566000000E+00 0.  1.
         22    1    1    0    0    0  0.54796143438E+01  0.77730152633E+01 -0.16212721303E+02  0.18796230252E+02  0.00000000000E+00 0.  1.
</event>
<event>
 5    1  0.1264731E-009  0.9118800E+02  0.7815553E-02  0.1125453E+00
         25   -1    0    0    0    0  0.00000000000E+00  0.00000000000E+00  0.99999998245E-14  0.12509000000E+03  0.12509000000E+03 0.  0.
        -13    1    3    3    0    0  0.32959397629E+02 -0.18292050068E+02 -0.59057427535E+01  0.38155077634E+02  0.10566000000E+00 0.  1.
         23    2    1    0    0    0 -0.89907580885E+01  0.44766162905E+01  0.27101635837E+02  0.96187188900E+02  0.91742044991E+02 0.  0.
         13    1    3    3    0    0 -0.41950155718E+02  0.22768666359E+02  0.33007378591E+02  0.58032111266E+02  0.10566000000E+00 0. -1.
         22    1    1    0    0    0  0.89907580885E+01 -0.44766162905E+01 -0.27101635837E+02  0.28902811100E+02  0.00000000000E+00 0. -1.
</event>
<event>
 5    1  0.1264731E-009  0.9118800E+02  0.7815553E-02  0.1125453E+00
         25   -1    0    0    0    0  0.00000000000E+00  0.00000000000E+00  0.99999998245E-14  0.12509000000E+03  0.12509000000E+03 0.  0.
        -13    1    3    3    0    0 -0.28254474740E+02 -0.27331257164E+02 -0.12689052051E+02  0.41307822104E+02  0.10566000000E+00 0.  1.
         23    2    1    0    0    0 -0.37848871201E+01  0.19498141314E+02 -0.22531453877E+02  0.95053866776E+02  0.90183525602E+02 0.  0.
         13    1    3    3    0    0  0.24469587619E+02  0.46829398479E+02 -0.98424018264E+01  0.53746044672E+02  0.10566000000E+00 0. -1.
         22    1    1    0    0    0  0.37848871201E+01 -0.19498141314E+02  0.22531453877E+02  0.30036133224E+02  0.00000000000E+00 0. -1.
</event>
<event>
 5    1  0.1264731E-009  0.9118800E+02  0.7815553E-02  0.1125453E+00
         25   -1    0    0    0    0  0.00000000000E+00  0.00000000000E+00  0.99999998245E-14  0.12509000000E+03  0.12509000000E+03 0.  0.
        -13    1    3    3    0    0  0.11574832117E+02 -0.58561962637E+02  0.17179590034E+02  0.62117869282E+02  0.10566000000E+00 0.  1.
         23    2    1    0    0    0  0.20017496945E+01 -0.24154653271E+02  0.11431927941E+02  0.98291805043E+02  0.94568153655E+02 0.  0.
         13    1    3    3    0    0 -0.95730824223E+01  0.34407309366E+02 -0.57476620927E+01  0.36173935761E+02  0.10566000000E+00 0. -1.
         22    1    1    0    0    0 -0.20017496945E+01  0.24154653271E+02 -0.11431927941E+02  0.26798194957E+02  0.00000000000E+00 0.  1.
</event>
<event>
 5    1  0.1264731E-009  0.9118800E+02  0.7815553E-02  0.1125453E+00
         25   -1    0    0    0    0  0.00000000000E+00  0.00000000000E+00  0.99999998245E-14  0.12509000000E+03  0.12509000000E+03 0.  0.
        -13    1    3    3    0    0 -0.22186394990E+02 -0.12153757994E+02  0.22303230826E+02  0.33725290589E+02  0.10566000000E+00 0. -1.
         23    2    1    0    0    0  0.46947791778E+01  0.68667765152E+01 -0.29129166819E+02  0.94796404458E+02  0.89825699927E+02 0.  0.
         13    1    3    3    0    0  0.26881174168E+02  0.19020534509E+02 -0.51432397645E+02  0.61071113869E+02  0.10566000000E+00 0.  1.
         22    1    1    0    0    0 -0.46947791778E+01 -0.68667765152E+01  0.29129166819E+02  0.30293595542E+02  0.00000000000E+00 0.  1.
</event>
<event>
 5    1  0.1264731E-009  0.9118800E+02  0.7815553E-02  0.1125453E+00
         25   -1    0    0    0    0  0.00000000000E+00  0.00000000000E+00  0.99999998245E-14  0.12509000000E+03  0.12509000000E+03 0.  0.
        -13    1    3    3    0    0 -0.29590540154E+02  0.32861759380E+02 -0.19985972317E+02  0.48527781215E+02  0.10566000000E+00 0. -1.
         23    2    1    0    0    0  0.13076312703E+02  0.25321495592E+02  0.79214076735E+00  0.96580430030E+02  0.92276670317E+02 0.  0.
         13    1    3    3    0    0  0.42666852857E+02 -0.75402637887E+01  0.20778113085E+02  0.48052648815E+02  0.10566000000E+00 0.  1.
         22    1    1    0    0    0 -0.13076312703E+02 -0.25321495592E+02 -0.79214076735E+00  0.28509569970E+02  0.00000000000E+00 0. -1.
</event>
<event>
 5    1  0.1264731E-009  0.9118800E+02  0.7815553E-02  0.1125453E+00
         25   -1    0    0    0    0  0.00000000000E+00  0.00000000000E+00  0.99999998245E-14  0.12509000000E+03  0.12509000000E+03 0.  0.
        -13    1    3    3    0    0  0.17514759777E+02  0.22129475425E+02 -0.21047302748E+02  0.35206258103E+02  0.10566000000E+00 0.  1.
         23    2    1    0    0    0 -0.16690149319E+02 -0.24139761978E+02 -0.26163056128E+01  0.95625882031E+02  0.90973485513E+02 0.  0.
         13    1    3    3    0    0 -0.34204909096E+02 -0.46269237403E+02  0.18430997135E+02  0.60419623928E+02  0.10566000000E+00 0. -1.
         22    1    1    0    0    0  0.16690149319E+02  0.24139761978E+02  0.26163056128E+01  0.29464117969E+02  0.00000000000E+00 0. -1.
</event>
<event>
 5    1  0.1264731E-009  0.9118800E+02  0.7815553E-02  0.1125453E+00
         25   -1    0    0    0    0  0.00000000000E+00  0.00000000000E+00  0.99999998245E-14  0.12509000000E+03  0.12509000000E+03 0.  0.
        -13    1    3    3    0    0  0.32417627155E+02 -0.85624734181E+01  0.16649822167E+02  0.37435895122E+02  0.10566000000E+00 0. -1.
         23    2    1    0    0    0 -0.24339317231E+02 -0.15069991534E+02  0.21140370663E+01  0.96385015053E+02  0.92011384980E+02 0.  0.
         13    1    3    3    0    0 -0.56756944386E+02 -0.65075181160E+01 -0.14535785101E+02  0.58949119930E+02  0.10566000000E+00 0.  1.
         22    1    1    0    0    0  0.24339317231E+02  0.15069991534E+02 -0.21140370663E+01  0.28704984947E+02  0.00000000000E+00 0.  1.
</event>
<event>
 5    1  0.1264731E-009  0.9118800E+02  0.7815553E-02  0.1125453E+00
         25   -1    0    0    0    0  0.00000000000E+00  0.00000000000E+00  0.99999998245E-14  0.12509000000E+03  0.12509000000E+03 0.  0.
        -13    1    3    3    0    0  0.52657008285E+02  0.19813135940E+02  0.35894731494E+01  0.56375671694E+02  0.10566000000E+00 0.  1.
         23    2    1    0    0    0  0.15278643378E+02  0.16224085456E+02  0.17843976500E+02  0.96540649925E+02  0.92222728751E+02 0.  0.
         13    1    3    3    0    0 -0.37378364907E+02 -0.35890504844E+01  0.14254503351E+02  0.40164978231E+02  0.10566000000E+00 0. -1.
         22    1    1    0    0    0 -0.15278643378E+02 -0.16224085456E+02 -0.17843976500E+02  0.28549350075E+02  0.00000000000E+00 0.  1.
</event>
<event>
 5    1  0.1264731E-009  0.9118800E+02  0.7815553E-02  0.1125453E+00
         25   -1    0    0    0    0  0.00000000000E+00  0.00000000000E+00  0.99999998245E-14  0.12509000000E+03  0.12509000000E+03 0.  0.
        -13    1    3    3    0    0  0.15634735784E+02 -0.36029157553E+02  0.37505512341E+02  0.54306719446E+02  0.10566000000E+00 0.  1.
         23    2    1    0    0    0  0.13516766407E+02 -0.25356293456E+02 -0.29545243524E+01  0.96204470645E+02  0.91765605572E+02 0.  0.
         13    1    3    3    0    0 -0.21179693767E+01  0.10672864097E+02 -0.40460036693E+02  0.41897751199E+02  0.10566000000E+00 0. -1.
         22    1    1    0    0    0 -0.13516766407E+02  0.25356293456E+02  0.29545243524E+01  0.28885529355E+02  0.00000000000E+00 0.  1.
</event>
<event>
 5    1  0.1264731E-009  0.9118800E+02  0.7815553E-02  0.1125453E+00
         25   -1    0    0    0    0  0.00000000000E+00  0.00000000000E+00  0.99999998245E-14  0.12509000000E+03  0.12509000000E+03 0.  0.
        -13    1    3    3    0    0  0.19687119583E+02 -0.23656099280E+02 -0.18310488811E+02  0.35811714217E+02  0.10566000000E+00 0. -1.
         23    2    1    0    0    0  0.21343738192E+01  0.13710382098E+02  0.25531277152E+02  0.96031847239E+02  0.91529992037E+02 0.  0.
         13    1    3    3    0    0 -0.17552745764E+02  0.37366481378E+02  0.43841765963E+02  0.60220133022E+02  0.10566000000E+00 0.  1.
         22    1    1    0    0    0 -0.21343738192E+01 -0.13710382098E+02 -0.25531277152E+02  0.29058152761E+02  0.00000000000E+00 0.  1.
</event>
<event>
 5    1  0.1264731E-009  0.9118800E+02  0.7815553E-02  0.1125453E+00
         25   -1    0    0    0    0  0.00000000000E+00  0.00000000000E+00  0.99999998245E-14  0.12509000000E+03  0.12509000000E+03 0.  0.
        -13    1    3    3    0    0 -0.31828235853E+02 -0.49694832564E+02 -0.68300791106E+01  0.59407694163E+02  0.10566000000E+00 0.  1.
         23    2    1    0    0    0 -0.23522738759E+02 -0.13916422299E+02 -0.92985813728E+01  0.96220471707E+02  0.91787414778E+02 0.  0.
         13    1    3    3    0    0  0.83054970939E+01  0.35778410265E+02 -0.24685022622E+01  0.36812777544E+02  0.10566000000E+00 0. -1.
         22    1    1    0    0    0  0.23522738759E+02  0.13916422299E+02  0.92985813728E+01  0.28869528293E+02  0.00000000000E+00 0.  1.
</event>
<event>
 5    1  0.1264731E-009  0.9118800E+02  0.7815553E-02  0.1125453E+00
         25   -1    0    0    0    0  0.00000000000E+00  0.00000000000E+00  0.99999998245E-14  0.12509000000E+03  0.12509000000E+03 0.  0.
        -13    1    3    3    0    0  0.35784479835E+02  0.37784113401E+02 -0.37398595108E+01  0.52174380071E+02  0.10566000000E+00 0.  1.
         23    2    1    0    0    0  0.17242831999E+02  0.79846191145E+01  0.22237749837E+02  0.95839582643E+02  0.91266854255E+02 0.  0.
         13    1    3    3    0    0 -0.18541647836E+02 -0.29799494286E+02  0.25977609348E+02  0.43665202572E+02  0.10566000000E+00 0. -1.
         22    1    1    0    0    0 -0.17242831999E+02 -0.79846191145E+01 -0.22237749837E+02  0.29250417357E+02  0.00000000000E+00 0.  1.
</event>
<event>
 5    1  0.1264731E-009  0.9118800E+02  0.7815553E-02  0.1125453E+00
         25   -1    0    0    0    0  0.00000000000E+00  0.00000000000E+00  0.99999998245E-14  0.12509000000E+03  0.12509000000E+03 0.  0.
        -13    1    3    3    0    0 -0.12248728419E+02 -0.54211963321E+02 -0.19447876594E+02  0.58882929470E+02  0.10566000000E+00 0. -1.
         23    2    1    0    0    0 -0.19807419757E+02 -0.19814568200E+02 -0.72973865615E+01  0.96138267047E+02  0.91675315924E+02 0.  0.
         13    1    3    3    0    0 -0.75586913381E+01  0.34397395121E+02  0.12150490032E+02  0.37255337576E+02  0.10566000000E+00 0.  1.
         22    1    1    0    0    0  0.19807419757E+02  0.19814568200E+02  0.72973865615E+01  0.28951732953E+02  0.00000000000E+00 0. -1.
</event>
<event>
 5    1  0.1264731E-009  0.9118800E+02  0.7815553E-02  0.1125453E+00
         25   -1    0    0    0    0  0.00000000000E+00  0.00000000000E+00  0.99999998245E-14  0.12509000000E+03  0.12509000000E+03 0.  0.
        -13    1    3    3    0    0  0.31227133490E+02 -0.21865175658E+02 -0.16590369849E+02  0.41574887953E+02  0.10566000000E+00 0. -1.
         23    2    1    0    0    0 -0.15906591311E+02 -0.19698595432E+01 -0.26912139523E+02  0.93766474537E+02  0.88379796898E+02 0.  0.
         13    1    3    3    0    0 -0.47133724801E+02  0.19895316115E+02 -0.10321769674E+02  0.52191586584E+02  0.10566000000E+00 0.  1.
         22    1    1    0    0    0  0.15906591311E+02  0.19698595432E+01  0.26912139523E+02  0.31323525463E+02  0.00000000000E+00 0.  1.
</event>
<event>
 5    1  0.1264731E-009  0.9118800E+02  0.7815553E-02  0.1125453E+00
         25   -1    0    0    0    0  0.00000000000E+00  0.00000000000E+00  0.99999998245E-14  0.12509000000E+03  0.12509000000E+03 0.  0.
        -13    1    3    3    0    0  0.69783535732E+00 -0.58421026302E+01 -0.28557002105E+02  0.29157000370E+02  0.10566000000E+00 0.  1.
         23    2    1    0    0    0 -0.21190116487E+02  0.24146024503E+01  0.27727225626E+02  0.90109285561E+02  0.83042356432E+02 0.  0.
         13    1    3    3    0    0 -0.21887951844E+02  0.82567050806E+01  0.56284227731E+02  0.60952285191E+02  0.10566000000E+00 0. -1.
         22    1    1    0    0    0  0.21190116487E+02 -0.24146024503E+01 -0.27727225626E+02  0.34980714439E+02  0.00000000000E+00 0. -1.
</event>
<event>
 5    1  0.1264731E-009  0.9118800E+02  0.7815553E-02  0.1125453E+00
         25   -1    0    0    0    0  0.00000000000E+00  0.00000000000E+00  0.99999998245E-14  0.12509000000E+03  0.12509000000E+03 0.  0.
        -13    1    3    3    0    0  0.11471909821E+02  0.20357169467E+02  0.48503751828E+02  0.53839058026E+02  0.10566000000E+00 0.  1.
         23    2    1    0    0    0 -0.13623669900E+02  0.21082675321E+02  0.14518191782E+02  0.96092388498E+02  0.91612693740E+02 0.  0.
         13    1    3    3    0    0 -0.25095579721E+02  0.72550585406E+00 -0.33985560046E+02  0.42253330472E+02  0.10566000000E+00 0. -1.
         22    1    1    0    0    0  0.13623669900E+02 -0.21082675321E+02 -0.14518191782E+02  0.28997611502E+02  0.00000000000E+00 0.  1.
</event>
<event>
 5    1  0.1264731E-009  0.9118800E+02  0.7815553E-02  0.1125453E+00
         25   -1    0    0    0    0  0.00000000000E+00  0.00000000000E+00  0.99999998245E-14  0.12509000000E+03  0.12509000000E+03 0.  0.
        -13    1    3    3    0    0 -0.21236624833E+02 -0.34165551980E+02  0.83495533443E+01  0.41085342660E+02  0.10566000000E+00 0. -1.
         23    2    1    0    0    0  0.26789829492E+02 -0.45874406134E+01  0.31401460480E+01  0.97729442754E+02  0.93821340260E+02 0.  0.
         13    1    3    3    0    0  0.48026454325E+02  0.29578111366E+02 -0.52094072963E+01  0.56644100094E+02  0.10566000000E+00 0.  1.
         22    1    1    0    0    0 -0.26789829492E+02  0.45874406134E+01 -0.31401460480E+01  0.27360557246E+02  0.00000000000E+00 0.  1.
</event>
<event>
 4    1  0.1264731E-009  0.9118800E+02  0.7815553E-02  0.1125453E+00
         25   -1    0    0    0    0  0.00000000000E+00  0.00000000000E+00  0.99999998245E-14  0.12509000000E+03  0.12509000000E+03 0.  0.
        -13    1    1    0    0    0  0.42231664650E+02  0.12667415978E+02 -0.73893953089E+01  0.44705606513E+02  0.10566000000E+00 0. -1.
         13    1    1    0    0    0  0.96463534723E+01  0.12368580398E+02  0.15690164866E+02  0.22186174837E+02  0.10566000000E+00 0.  1.
         22    1    1    0    0    0 -0.51878018122E+02 -0.25035996375E+02 -0.83007695569E+01  0.58198218650E+02  0.00000000000E+00 0. -1.
</event>
<event>
 5    1  0.1264731E-009  0.9118800E+02  0.7815553E-02  0.1125453E+00
         25   -1    0    0    0    0  0.00000000000E+00  0.00000000000E+00  0.99999998245E-14  0.12509000000E+03  0.12509000000E+03 0.  0.
        -13    1    3    3    0    0 -0.15602564587E+02 -0.11971092459E+02  0.23821084451E+02  0.30890165179E+02  0.10566000000E+00 0.  1.
         23    2    1    0    0    0  0.22483570871E+02 -0.22919362086E+01 -0.23557346243E+02  0.92444747777E+02  0.86488836846E+02 0.  0.
         13    1    3    3    0    0  0.38086135457E+02  0.96791562501E+01 -0.47378430694E+02  0.61554582598E+02  0.10566000000E+00 0. -1.
         22    1    1    0    0    0 -0.22483570871E+02  0.22919362086E+01  0.23557346243E+02  0.32645252223E+02  0.00000000000E+00 0. -1.
</event>
<event>
 5    1  0.1264731E-009  0.9118800E+02  0.7815553E-02  0.1125453E+00
         25   -1    0    0    0    0  0.00000000000E+00  0.00000000000E+00  0.99999998245E-14  0.12509000000E+03  0.12509000000E+03 0.  0.
        -13    1    3    3    0    0  0.36094232548E+02  0.20515358349E+02 -0.13449926773E+02  0.43641554116E+02  0.10566000000E+00 0.  1.
         23    2    1    0    0    0  0.52250071057E+01 -0.17832799394E+02 -0.24739839238E+02  0.94148618664E+02  0.88919026745E+02 0.  0.
         13    1    3    3    0    0 -0.30869225442E+02 -0.38348157744E+02 -0.11289912465E+02  0.50507064548E+02  0.10566000000E+00 0. -1.
         22    1    1    0    0    0 -0.52250071057E+01  0.17832799394E+02  0.24739839238E+02  0.30941381336E+02  0.00000000000E+00 0.  1.
</event>
<event>
 5    1  0.1264731E-009  0.9118800E+02  0.7815553E-02  0.1125453E+00
         25   -1    0    0    0    0  0.00000000000E+00  0.00000000000E+00  0.99999998245E-14  0.12509000000E+03  0.12509000000E+03 0.  0.
        -13    1    3    3    0    0 -0.24150833501E+02  0.91350146140E+01 -0.27351770933E+02  0.37614382728E+02  0.10566000000E+00 0.  1.
         23    2    1    0    0    0  0.26239287229E+02  0.12331833349E+02  0.20191684480E+01  0.96027113886E+02  0.91523522944E+02 0.  0.
         13    1    3    3    0    0  0.50390120730E+02  0.31968187351E+01  0.29370939381E+02  0.58412731158E+02  0.10566000000E+00 0. -1.
         22    1    1    0    0    0 -0.26239287229E+02 -0.12331833349E+02 -0.20191684480E+01  0.29062886114E+02  0.00000000000E+00 0. -1.
</event>
<event>
 5    1  0.1264731E-009  0.9118800E+02  0.7815553E-02  0.1125453E+00
         25   -1    0    0    0    0  0.00000000000E+00  0.00000000000E+00  0.99999998245E-14  0.12509000000E+03  0.12509000000E+03 0.  0.
        -13    1    3    3    0    0  0.29109664818E+00 -0.32187943240E+02 -0.45820026556E+02  0.55996735842E+02  0.10566000000E+00 0. -1.
         23    2    1    0    0    0  0.19853779869E+02 -0.17989311073E+02 -0.18196550944E+02  0.92703237979E+02  0.86861890249E+02 0.  0.
         13    1    3    3    0    0  0.19562683221E+02  0.14198632167E+02  0.27623475613E+02  0.36706502137E+02  0.10566000000E+00 0.  1.
         22    1    1    0    0    0 -0.19853779869E+02  0.17989311073E+02  0.18196550944E+02  0.32386762021E+02  0.00000000000E+00 0. -1.
</event>
<event>
 4    1  0.1264731E-009  0.9118800E+02  0.7815553E-02  0.1125453E+00
         25   -1    0    0    0    0  0.00000000000E+00  0.00000000000E+00  0.99999998245E-14  0.12509000000E+03  0.12509000000E+03 0.  0.
        -13    1    1    0    0    0  0.17219384356E+02  0.58726324397E+02 -0.11110611839E+02  0.62199238213E+02  0.10566000000E+00 0.  1.
         13    1    1    0    0    0 -0.33246757747E+01 -0.95646204991E+01 -0.15838975713E+01  0.10249650231E+02  0.10566000000E+00 0. -1.
         22    1    1    0    0    0 -0.13894708582E+02 -0.49161703898E+02  0.12694509411E+02  0.52641111556E+02  0.00000000000E+00 0.  1.
</event>
<event>
 5    1  0.1264731E-009  0.9118800E+02  0.7815553E-02  0.1125453E+00
         25   -1    0    0    0    0  0.00000000000E+00  0.00000000000E+00  0.99999998245E-14  0.12509000000E+03  0.12509000000E+03 0.  0.
        -13    1    3    3    0    0 -0.34163332063E+02 -0.49846796180E+01 -0.27499931756E+02  0.44138845694E+02  0.10566000000E+00 0.  1.
         23    2    1    0    0    0 -0.24464015587E+01 -0.26439441131E+02  0.90136900515E+01  0.97049394867E+02  0.92910222838E+02 0.  0.
         13    1    3    3    0    0  0.31716930505E+02 -0.21454761513E+02  0.36513621808E+02  0.52910549173E+02  0.10566000000E+00 0. -1.
         22    1    1    0    0    0  0.24464015587E+01  0.26439441131E+02 -0.90136900515E+01  0.28040605133E+02  0.00000000000E+00 0. -1.
</event>
<event>
 5    1  0.1264731E-009  0.9118800E+02  0.7815553E-02  0.1125453E+00
         25   -1    0    0    0    0  0.00000000000E+00  0.00000000000E+00  0.99999998245E-14  0.12509000000E+03  0.12509000000E+03 0.  0.
        -13    1    3    3    0    0 -0.14286097417E+01  0.37109458965E+02  0.20380065970E+02  0.42361670452E+02  0.10566000000E+00 0.  1.
         23    2    1    0    0    0 -0.11393991760E+02  0.10816115339E+02 -0.24891735145E+02  0.95655158778E+02  0.91013732607E+02 0.  0.
         13    1    3    3    0    0 -0.99653820181E+01 -0.26293343626E+02 -0.45271801115E+02  0.53293488327E+02  0.10566000000E+00 0. -1.
         22    1    1    0    0    0  0.11393991760E+02 -0.10816115339E+02  0.24891735145E+02  0.29434841222E+02  0.00000000000E+00 0. -1.
</event>
<event>
 5    1  0.1264731E-009  0.9118800E+02  0.7815553E-02  0.1125453E+00
         25   -1    0    0    0    0  0.00000000000E+00  0.00000000000E+00  0.99999998245E-14  0.12509000000E+03  0.12509000000E+03 0.  0.
        -13    1    3    3    0    0  0.29199112001E+02 -0.27530115619E+02 -0.43212164471E+01  0.40363095561E+02  0.10566000000E+00 0. -1.
         23    2    1    0    0    0  0.47924851985E+01  0.88169001984E+01 -0.31591567950E+02  0.91942861224E+02  0.85759879436E+02 0.  0.
         13    1    3    3    0    0 -0.24406626802E+02  0.36347015817E+02 -0.27270351503E+02  0.51579765663E+02  0.10566000000E+00 0.  1.
         22    1    1    0    0    0 -0.47924851985E+01 -0.88169001984E+01  0.31591567950E+02  0.33147138776E+02  0.00000000000E+00 0. -1.
</event>
<event>
 5    1  0.1264731E-009  0.9118800E+02  0.7815553E-02  0.1125453E+00
         25   -1    0    0    0    0  0.00000000000E+00  0.00000000000E+00  0.99999998245E-14  0.12509000000E+03  0.12509000000E+03 0.  0.
        -13    1    3    3    0    0  0.89183477384E+01 -0.48671885302E+01 -0.33559261485E+02  0.35063679870E+02  0.10566000000E+00 0.  1.
         23    2    1    0    0    0 -0.10459044888E+01 -0.11978379651E+02  0.26305188433E+02  0.96167025848E+02  0.91714548610E+02 0.  0.
         13    1    3    3    0    0 -0.99642522272E+01 -0.71111911210E+01  0.59864449919E+02  0.61103345978E+02  0.10566000000E+00 0. -1.
         22    1    1    0    0    0  0.10459044888E+01  0.11978379651E+02 -0.26305188433E+02  0.28922974152E+02  0.00000000000E+00 0. -1.
</event>
<event>
 5    1  0.1264731E-009  0.9118800E+02  0.7815553E-02  0.1125453E+00
         25   -1    0    0    0    0  0.00000000000E+00  0.00000000000E+00  0.99999998245E-14  0.12509000000E+03  0.12509000000E+03 0.  0.
        -13    1    3    3    0    0  0.23321152489E+02 -0.45270608903E+02 -0.21701090735E+02  0.55355692453E+02  0.10566000000E+00 0.  1.
         23    2    1    0    0    0  0.64158195315E+01 -0.25820901110E+02  0.10402340696E+02  0.96522704602E+02  0.92198384678E+02 0.  0.
         13    1    3    3    0    0 -0.16905332958E+02  0.19449707792E+02  0.32103431431E+02  0.41167012149E+02  0.10566000000E+00 0. -1.
         22    1    1    0    0    0 -0.64158195315E+01  0.25820901110E+02 -0.10402340696E+02  0.28567295398E+02  0.00000000000E+00 0. -1.
</event>
<event>
 5    1  0.1264731E-009  0.9118800E+02  0.7815553E-02  0.1125453E+00
         25   -1    0    0    0    0  0.00000000000E+00  0.00000000000E+00  0.99999998245E-14  0.12509000000E+03  0.12509000000E+03 0.  0.
        -13    1    3    3    0    0 -0.66582724195E+01 -0.34007208904E+02  0.39722349641E+02  0.52713367129E+02  0.10566000000E+00 0. -1.
         23    2    1    0    0    0 -0.57235199279E+00 -0.28932339862E+02 -0.28453250908E+01  0.96012452793E+02  0.91503482665E+02 0.  0.
         13    1    3    3    0    0  0.60859204267E+01  0.50748690419E+01 -0.42567674732E+02  0.43299085664E+02  0.10566000000E+00 0.  1.
         22    1    1    0    0    0  0.57235199279E+00  0.28932339862E+02  0.28453250908E+01  0.29077547207E+02  0.00000000000E+00 0. -1.
</event>
<event>
 5    1  0.1264731E-009  0.9118800E+02  0.7815553E-02  0.1125453E+00
         25   -1    0    0    0    0  0.00000000000E+00  0.00000000000E+00  0.99999998245E-14  0.12509000000E+03  0.12509000000E+03 0.  0.
        -13    1    3    3    0    0  0.68976560386E+01  0.44688041121E+02  0.33408222195E+02  0.56220273500E+02  0.10566000000E+00 0.  1.
         23    2    1    0    0    0  0.71694610907E+01  0.26418713615E+02 -0.35871010302E+01  0.97481724154E+02  0.93490478921E+02 0.  0.
         13    1    3    3    0    0  0.27180505208E+00 -0.18269327507E+02 -0.36995323225E+02  0.41261450655E+02  0.10566000000E+00 0. -1.
         22    1    1    0    0    0 -0.71694610907E+01 -0.26418713615E+02  0.35871010302E+01  0.27608275846E+02  0.00000000000E+00 0.  1.
</event>
<event>
 5    1  0.1264731E-009  0.9118800E+02  0.7815553E-02  0.1125453E+00
         25   -1    0    0    0    0  0.00000000000E+00  0.00000000000E+00  0.99999998245E-14  0.12509000000E+03  0.12509000000E+03 0.  0.
        -13    1    3    3    0    0  0.55701911907E+01 -0.18431678503E+02 -0.40660992186E+02  0.44989790530E+02  0.10566000000E+00 0. -1.
         23    2    1    0    0    0 -0.27239006089E+02 -0.38111059226E+01 -0.23818418329E+01  0.97482733717E+02  0.93491829704E+02 0.  0.
         13    1    3    3    0    0 -0.32809197280E+02  0.14620572580E+02  0.38279150353E+02  0.52492943188E+02  0.10566000000E+00 0.  1.
         22    1    1    0    0    0  0.27239006089E+02  0.38111059226E+01  0.23818418329E+01  0.27607266283E+02  0.00000000000E+00 0.  1.
</event>
<event>
 5    1  0.1264731E-009  0.9118800E+02  0.7815553E-02  0.1125453E+00
         25   -1    0    0    0    0  0.00000000000E+00  0.00000000000E+00  0.99999998245E-14  0.12509000000E+03  0.12509000000E+03 0.  0.
        -13    1    3    3    0    0  0.11449090605E+02  0.27043827605E+02  0.38357777441E+02  0.48309217976E+02  0.10566000000E+00 0. -1.
         23    2    1    0    0    0 -0.24427312815E+02  0.12399482077E+02  0.11946393247E+02  0.95204266301E+02  0.90391898105E+02 0.  0.
         13    1    3    3    0    0 -0.35876403420E+02 -0.14644345527E+02 -0.26411384194E+02  0.46895048325E+02  0.10566000000E+00 0.  1.
         22    1    1    0    0    0  0.24427312815E+02 -0.12399482077E+02 -0.11946393247E+02  0.29885733699E+02  0.00000000000E+00 0.  1.
</event>
<event>
 5    1  0.1264731E-009  0.9118800E+02  0.7815553E-02  0.1125453E+00
         25   -1    0    0    0    0  0.00000000000E+00  0.00000000000E+00  0.99999998245E-14  0.12509000000E+03  0.12509000000E+03 0.  0.
        -13    1    3    3    0    0  0.27831774290E+02  0.10485316551E+02 -0.23937799660E+02  0.38178252185E+02  0.10566000000E+00 0. -1.
         23    2    1    0    0    0 -0.23687120160E+02  0.17733261477E+02  0.12566496133E+00  0.95500069014E+02  0.90800325803E+02 0.  0.
         13    1    3    3    0    0 -0.51518894450E+02  0.72479449262E+01  0.24063464621E+02  0.57321816829E+02  0.10566000000E+00 0.  1.
         22    1    1    0    0    0  0.23687120160E+02 -0.17733261477E+02 -0.12566496133E+00  0.29589930986E+02  0.00000000000E+00 0.  1.
</event>
<event>
 5    1  0.1264731E-009  0.9118800E+02  0.7815553E-02  0.1125453E+00
         25   -1    0    0    0    0  0.00000000000E+00  0.00000000000E+00  0.99999998245E-14  0.12509000000E+03  0.12509000000E+03 0.  0.
        -13    1    3    3    0    0 -0.27435929230E+02 -0.75212785125E+01 -0.32930278094E+02  0.43516826890E+02  0.10566000000E+00 0. -1.
         23    2    1    0    0    0 -0.24214651392E+01  0.28347728625E+02 -0.30598027897E+01  0.96474975892E+02  0.92133606076E+02 0.  0.
         13    1    3    3    0    0  0.25014464091E+02  0.35869007137E+02  0.29870475304E+02  0.52958149002E+02  0.10566000000E+00 0.  1.
         22    1    1    0    0    0  0.24214651392E+01 -0.28347728625E+02  0.30598027897E+01  0.28615024108E+02  0.00000000000E+00 0.  1.
</event>
<event>
 5    1  0.1264731E-009  0.9118800E+02  0.7815553E-02  0.1125453E+00
         25   -1    0    0    0    0  0.00000000000E+00  0.00000000000E+00  0.99999998245E-14  0.12509000000E+03  0.12509000000E+03 0.  0.
        -13    1    3    3    0    0 -0.79359207815E+01 -0.33321326663E+02 -0.17166266245E+02  0.38314246829E+02  0.10566000000E+00 0.  1.
         23    2    1    0    0    0 -0.25742197780E+02 -0.24009047964E+02  0.22871277879E+02  0.83111547402E+02  0.71731017204E+02 0.  0.
         13    1    3    3    0    0 -0.17806276999E+02  0.93122786991E+01  0.40037544124E+02  0.44797300573E+02  0.10566000000E+00 0. -1.
         22    1    1    0    0    0  0.25742197780E+02  0.24009047964E+02 -0.22871277879E+02  0.41978452598E+02  0.00000000000E+00 0. -1.
</event>
<event>
 5    1  0.1264731E-009  0.9118800E+02  0.7815553E-02  0.1125453E+00
         25   -1    0    0    0    0  0.00000000000E+00  0.00000000000E+00  0.99999998245E-14  0.12509000000E+03  0.12509000000E+03 0.  0.
        -13    1    3    3    0    0  0.26697102469E+02 -0.32522340779E+02 -0.24116316157E+02  0.48497894789E+02  0.10566000000E+00 0. -1.
         23    2    1    0    0    0  0.29083533784E+02  0.87996288225E+01 -0.42532754307E+01  0.94408152653E+02  0.89283388884E+02 0.  0.
         13    1    3    3    0    0  0.23864313148E+01  0.41321969601E+02  0.19863040727E+02  0.45910257863E+02  0.10566000000E+00 0.  1.
         22    1    1    0    0    0 -0.29083533784E+02 -0.87996288225E+01  0.42532754307E+01  0.30681847347E+02  0.00000000000E+00 0. -1.
</event>
<event>
 5    1  0.1264731E-009  0.9118800E+02  0.7815553E-02  0.1125453E+00
         25   -1    0    0    0    0  0.00000000000E+00  0.00000000000E+00  0.99999998245E-14  0.12509000000E+03  0.12509000000E+03 0.  0.
        -13    1    3    3    0    0 -0.12869927725E+02  0.29928523316E+02  0.25458848619E+02  0.41346289853E+02  0.10566000000E+00 0.  1.
         23    2    1    0    0    0 -0.20107146154E+02  0.51305983425E+01 -0.21667425988E+02  0.95088371465E+02  0.90231372998E+02 0.  0.
         13    1    3    3    0    0 -0.72372184290E+01 -0.24797924974E+02 -0.47126274607E+02  0.53742081612E+02  0.10566000000E+00 0. -1.
         22    1    1    0    0    0  0.20107146154E+02 -0.51305983425E+01  0.21667425988E+02  0.30001628535E+02  0.00000000000E+00 0. -1.
</event>
<event>
 5    1  0.1264731E-009  0.9118800E+02  0.7815553E-02  0.1125453E+00
         25   -1    0    0    0    0  0.00000000000E+00  0.00000000000E+00  0.99999998245E-14  0.12509000000E+03  0.12509000000E+03 0.  0.
        -13    1    3    3    0    0  0.27818192823E+02 -0.41165442853E+02 -0.31466305760E+02  0.58809736433E+02  0.10566000000E+00 0. -1.
         23    2    1    0    0    0  0.97575333237E+01 -0.10047786590E+02 -0.26481598054E+02  0.95132655201E+02  0.90292743773E+02 0.  0.
         13    1    3    3    0    0 -0.18060659499E+02  0.31117656263E+02  0.49847077055E+01  0.36322918767E+02  0.10566000000E+00 0.  1.
         22    1    1    0    0    0 -0.97575333237E+01  0.10047786590E+02  0.26481598054E+02  0.29957344799E+02  0.00000000000E+00 0. -1.
</event>
<event>
 5    1  0.1264731E-009  0.9118800E+02  0.7815553E-02  0.1125453E+00
         25   -1    0    0    0    0  0.00000000000E+00  0.00000000000E+00  0.99999998245E-14  0.12509000000E+03  0.12509000000E+03 0.  0.
        -13    1    3    3    0    0 -0.17990550455E+02 -0.39953876973E+02 -0.36438549722E+02  0.56989045094E+02  0.10566000000E+00 0.  1.
         23    2    1    0    0    0  0.70625067567E+01 -0.29142534178E+02 -0.15841742914E+02  0.91176475875E+02  0.84634642047E+02 0.  0.
         13    1    3    3    0    0  0.25053057211E+02  0.10811342795E+02  0.20596806808E+02  0.34187430781E+02  0.10566000000E+00 0. -1.
         22    1    1    0    0    0 -0.70625067567E+01  0.29142534178E+02  0.15841742914E+02  0.33913524125E+02  0.00000000000E+00 0.  1.
</event>
<event>
 5    1  0.1264731E-009  0.9118800E+02  0.7815553E-02  0.1125453E+00
         25   -1    0    0    0    0  0.00000000000E+00  0.00000000000E+00  0.99999998245E-14  0.12509000000E+03  0.12509000000E+03 0.  0.
        -13    1    3    3    0    0 -0.18239876775E+02 -0.14186111394E+02 -0.24135697906E+02  0.33413798627E+02  0.10566000000E+00 0.  1.
         23    2    1    0    0    0  0.75786257408E+01  0.50415165322E+01  0.28532377834E+02  0.95140892468E+02  0.90304154820E+02 0.  0.
         13    1    3    3    0    0  0.25818502516E+02  0.19227627926E+02  0.52668075741E+02  0.61727093841E+02  0.10566000000E+00 0. -1.
         22    1    1    0    0    0 -0.75786257408E+01 -0.50415165322E+01 -0.28532377834E+02  0.29949107532E+02  0.00000000000E+00 0. -1.
</event>
<event>
 5    1  0.1264731E-009  0.9118800E+02  0.7815553E-02  0.1125453E+00
         25   -1    0    0    0    0  0.00000000000E+00  0.00000000000E+00  0.99999998245E-14  0.12509000000E+03  0.12509000000E+03 0.  0.
        -13    1    3    3    0    0 -0.71690202470E+01  0.29513184928E+02 -0.29549388803E+02  0.42374526293E+02  0.10566000000E+00 0.  1.
         23    2    1    0    0    0 -0.76786958244E+01 -0.22690042802E+02 -0.15913224780E+02  0.96331850984E+02  0.91939079717E+02 0.  0.
         13    1    3    3    0    0 -0.50967557743E+00 -0.52203227730E+02  0.13636164022E+02  0.53957324691E+02  0.10566000000E+00 0. -1.
         22    1    1    0    0    0  0.76786958244E+01  0.22690042802E+02  0.15913224780E+02  0.28758149016E+02  0.00000000000E+00 0. -1.
</event>
<event>
 5    1  0.1264731E-009  0.9118800E+02  0.7815553E-02  0.1125453E+00
         25   -1    0    0    0    0  0.00000000000E+00  0.00000000000E+00  0.99999998245E-14  0.12509000000E+03  0.12509000000E+03 0.  0.
        -13    1    3    3    0    0  0.30101303445E+02 -0.32852925456E+02  0.24450799416E+02  0.50825740882E+02  0.10566000000E+00 0.  1.
         23    2    1    0    0    0  0.26791017349E+02  0.89042851401E+01  0.10203564374E+02  0.95070712361E+02  0.90206888420E+02 0.  0.
         13    1    3    3    0    0 -0.33102860958E+01  0.41757210596E+02 -0.14247235043E+02  0.44244971479E+02  0.10566000000E+00 0. -1.
         22    1    1    0    0    0 -0.26791017349E+02 -0.89042851401E+01 -0.10203564374E+02  0.30019287639E+02  0.00000000000E+00 0.  1.
</event>
<event>
 5    1  0.1264731E-009  0.9118800E+02  0.7815553E-02  0.1125453E+00
         25   -1    0    0    0    0  0.00000000000E+00  0.00000000000E+00  0.99999998245E-14  0.12509000000E+03  0.12509000000E+03 0.  0.
        -13    1    3    3    0    0  0.39698254944E+02 -0.28613899533E+02  0.83164051465E+01  0.49637490374E+02  0.10566000000E+00 0.  1.
         23    2    1    0    0    0  0.23663168265E+02  0.14985755151E+02  0.74765074227E+01  0.96100061176E+02  0.91623169587E+02 0.  0.
         13    1    3    3    0    0 -0.16035086679E+02  0.43599654684E+02 -0.83989772374E+00  0.46462570802E+02  0.10566000000E+00 0. -1.
         22    1    1    0    0    0 -0.23663168265E+02 -0.14985755151E+02 -0.74765074227E+01  0.28989938824E+02  0.00000000000E+00 0.  1.
</event>
<event>
 5    1  0.1264731E-009  0.9118800E+02  0.7815553E-02  0.1125453E+00
         25   -1    0    0    0    0  0.00000000000E+00  0.00000000000E+00  0.99999998245E-14  0.12509000000E+03  0.12509000000E+03 0.  0.
        -13    1    3    3    0    0 -0.30976886601E+02 -0.20489997408E+02  0.61714349262E+01  0.37649771186E+02  0.10566000000E+00 0. -1.
         23    2    1    0    0    0  0.21066414911E+02  0.13404912521E+02 -0.50335769325E+00  0.10011523502E+03  0.96950097458E+02 0.  0.
         13    1    3    3    0    0  0.52043301512E+02  0.33894909928E+02 -0.66747926194E+01  0.62465463833E+02  0.10566000000E+00 0.  1.
         22    1    1    0    0    0 -0.21066414911E+02 -0.13404912521E+02  0.50335769325E+00  0.24974764981E+02  0.00000000000E+00 0.  1.
</event>
<event>
 5    1  0.1264731E-009  0.9118800E+02  0.7815553E-02  0.1125453E+00
         25   -1    0    0    0    0  0.00000000000E+00  0.00000000000E+00  0.99999998245E-14  0.12509000000E+03  0.12509000000E+03 0.  0.
        -13    1    3    3    0    0 -0.25038919009E+02  0.28420815201E+02 -0.41500690671E+02  0.56187264501E+02  0.10566000000E+00 0.  1.
         23    2    1    0    0    0  0.66384355223E+01  0.11419010118E+02 -0.27150370602E+02  0.94897198837E+02  0.89965955255E+02 0.  0.
         13    1    3    3    0    0  0.31677354531E+02 -0.17001805083E+02  0.14350320069E+02  0.38709934336E+02  0.10566000000E+00 0. -1.
         22    1    1    0    0    0 -0.66384355223E+01 -0.11419010118E+02  0.27150370602E+02  0.30192801163E+02  0.00000000000E+00 0.  1.
</event>
<event>
 5    1  0.1264731E-009  0.9118800E+02  0.7815553E-02  0.1125453E+00
         25   -1    0    0    0    0  0.00000000000E+00  0.00000000000E+00  0.99999998245E-14  0.12509000000E+03  0.12509000000E+03 0.  0.
        -13    1    3    3    0    0 -0.37239169506E+02 -0.58658480531E+01 -0.11401885129E+02  0.39384997999E+02  0.10566000000E+00 0. -1.
         23    2    1    0    0    0  0.72945580091E+01 -0.40671842220E+01  0.26133061063E+02  0.97654813750E+02  0.93721786176E+02 0.  0.
         13    1    3    3    0    0  0.44533727515E+02  0.17986638311E+01  0.37534946192E+02  0.58269815751E+02  0.10566000000E+00 0.  1.
         22    1    1    0    0    0 -0.72945580091E+01  0.40671842220E+01 -0.26133061063E+02  0.27435186250E+02  0.00000000000E+00 0.  1.
</event>
<event>
 5    1  0.1264731E-009  0.9118800E+02  0.7815553E-02  0.1125453E+00
         25   -1    0    0    0    0  0.00000000000E+00  0.00000000000E+00  0.99999998245E-14  0.12509000000E+03  0.12509000000E+03 0.  0.
        -13    1    3    3    0    0  0.34573313930E+02 -0.37851605661E+02  0.12853938850E+02  0.52851612986E+02  0.10566000000E+00 0.  1.
         23    2    1    0    0    0  0.25318127056E+02  0.13295003208E+01  0.18772023799E+02  0.93543779843E+02  0.88064037729E+02 0.  0.
         13    1    3    3    0    0 -0.92551868743E+01  0.39181105982E+02  0.59180849484E+01  0.40692166857E+02  0.10566000000E+00 0. -1.
         22    1    1    0    0    0 -0.25318127056E+02 -0.13295003208E+01 -0.18772023799E+02  0.31546220157E+02  0.00000000000E+00 0. -1.
</event>
<event>
 5    1  0.1264731E-009  0.9118800E+02  0.7815553E-02  0.1125453E+00
         25   -1    0    0    0    0  0.00000000000E+00  0.00000000000E+00  0.99999998245E-14  0.12509000000E+03  0.12509000000E+03 0.  0.
        -13    1    3    3    0    0 -0.54939004231E+02  0.34856567637E+01 -0.14796543396E+02  0.57003445943E+02  0.10566000000E+00 0.  1.
         23    2    1    0    0    0 -0.27012292572E+02 -0.67122058330E+01  0.97914379500E+01  0.95584239304E+02  0.90916208065E+02 0.  0.
         13    1    3    3    0    0  0.27926711659E+02 -0.10197862597E+02  0.24587981346E+02  0.38580793360E+02  0.10566000000E+00 0. -1.
         22    1    1    0    0    0  0.27012292572E+02  0.67122058330E+01 -0.97914379500E+01  0.29505760696E+02  0.00000000000E+00 0.  1.
</event>
<event>
 5    1  0.1264731E-009  0.9118800E+02  0.7815553E-02  0.1125453E+00
         25   -1    0    0    0    0  0.00000000000E+00  0.00000000000E+00  0.99999998245E-14  0.12509000000E+03  0.12509000000E+03 0.  0.
        -13    1    3    3    0    0  0.25313480400E+02 -0.20288894734E+02 -0.71512942090E+01  0.33219929446E+02  0.10566000000E+00 0. -1.
         23    2    1    0    0    0 -0.14420833426E+02  0.25351741611E+02  0.63942713378E+01  0.95231032413E+02  0.90428931151E+02 0.  0.
         13    1    3    3    0    0 -0.39734313826E+02  0.45640636345E+02  0.13545565547E+02  0.62011102967E+02  0.10566000000E+00 0.  1.
         22    1    1    0    0    0  0.14420833426E+02 -0.25351741611E+02 -0.63942713378E+01  0.29858967587E+02  0.00000000000E+00 0.  1.
</event>
<event>
 5    1  0.1264731E-009  0.9118800E+02  0.7815553E-02  0.1125453E+00
         25   -1    0    0    0    0  0.00000000000E+00  0.00000000000E+00  0.99999998245E-14  0.12509000000E+03  0.12509000000E+03 0.  0.
        -13    1    3    3    0    0  0.28106512982E+02 -0.38290659599E+01 -0.16599192780E+02  0.32866125161E+02  0.10566000000E+00 0.  1.
         23    2    1    0    0    0 -0.28220228335E+02  0.20365034649E+01  0.95296135895E+01  0.95234645894E+02  0.90433929527E+02 0.  0.
         13    1    3    3    0    0 -0.56326741317E+02  0.58655694248E+01  0.26128806369E+02  0.62368520733E+02  0.10566000000E+00 0. -1.
         22    1    1    0    0    0  0.28220228335E+02 -0.20365034649E+01 -0.95296135895E+01  0.29855354106E+02  0.00000000000E+00 0. -1.
</event>
<event>
 5    1  0.1264731E-009  0.9118800E+02  0.7815553E-02  0.1125453E+00
         25   -1    0    0    0    0  0.00000000000E+00  0.00000000000E+00  0.99999998245E-14  0.12509000000E+03  0.12509000000E+03 0.  0.
        -13    1    3    3    0    0  0.34471811824E+01 -0.47086084325E+02 -0.10600572892E+02  0.48387660668E+02  0.10566000000E+00 0. -1.
         23    2    1    0    0    0  0.27485606028E+02 -0.66281142727E+01  0.78351767917E+00  0.96805652076E+02  0.92581477285E+02 0.  0.
         13    1    3    3    0    0  0.24038424846E+02  0.40457970053E+02  0.11384090571E+02  0.48417991408E+02  0.10566000000E+00 0.  1.
         22    1    1    0    0    0 -0.27485606028E+02  0.66281142727E+01 -0.78351767917E+00  0.28284347924E+02  0.00000000000E+00 0.  1.
</event>
<event>
 5    1  0.1264731E-009  0.9118800E+02  0.7815553E-02  0.1125453E+00
         25   -1    0    0    0    0  0.00000000000E+00  0.00000000000E+00  0.99999998245E-14  0.12509000000E+03  0.12509000000E+03 0.  0.
        -13    1    3    3    0    0  0.31846238549E+02  0.11729238153E+02 -0.20312434053E+02  0.39552042660E+02  0.10566000000E+00 0. -1.
         23    2    1    0    0    0 -0.10573763895E+02 -0.24603909737E+02 -0.10824660539E+02  0.96205226623E+02  0.91766636076E+02 0.  0.
         13    1    3    3    0    0 -0.42420002444E+02 -0.36333147890E+02  0.94877735144E+01  0.56653183964E+02  0.10566000000E+00 0.  1.
         22    1    1    0    0    0  0.10573763895E+02  0.24603909737E+02  0.10824660539E+02  0.28884773377E+02  0.00000000000E+00 0.  1.
</event>
<event>
 5    1  0.1264731E-009  0.9118800E+02  0.7815553E-02  0.1125453E+00
         25   -1    0    0    0    0  0.00000000000E+00  0.00000000000E+00  0.99999998245E-14  0.12509000000E+03  0.12509000000E+03 0.  0.
        -13    1    3    3    0    0  0.42455201498E+01 -0.57154794356E+02 -0.42738583775E+01  0.57471488485E+02  0.10566000000E+00 0.  1.
         23    2    1    0    0    0  0.55277259022E+01 -0.24624935154E+02  0.15414479793E+02  0.95517219064E+02  0.90823949295E+02 0.  0.
         13    1    3    3    0    0  0.12822057524E+01  0.32529859203E+02  0.19688338171E+02  0.38045730579E+02  0.10566000000E+00 0. -1.
         22    1    1    0    0    0 -0.55277259022E+01  0.24624935154E+02 -0.15414479793E+02  0.29572780936E+02  0.00000000000E+00 0.  1.
</event>
<event>
 5    1  0.1264731E-009  0.9118800E+02  0.7815553E-02  0.1125453E+00
         25   -1    0    0    0    0  0.00000000000E+00  0.00000000000E+00  0.99999998245E-14  0.12509000000E+03  0.12509000000E+03 0.  0.
        -13    1    3    3    0    0 -0.23136264565E+02  0.39879470303E+02  0.37143210282E+02  0.59205473765E+02  0.10566000000E+00 0. -1.
         23    2    1    0    0    0  0.34816489266E+01  0.15069520655E+02  0.20989588592E+02  0.99017501821E+02  0.95523245892E+02 0.  0.
         13    1    3    3    0    0  0.26617913492E+02 -0.24809949648E+02 -0.16153621690E+02  0.39812028056E+02  0.10566000000E+00 0.  1.
         22    1    1    0    0    0 -0.34816489266E+01 -0.15069520655E+02 -0.20989588592E+02  0.26072498179E+02  0.00000000000E+00 0. -1.
</event>
<event>
 5    1  0.1264731E-009  0.9118800E+02  0.7815553E-02  0.1125453E+00
         25   -1    0    0    0    0  0.00000000000E+00  0.00000000000E+00  0.99999998245E-14  0.12509000000E+03  0.12509000000E+03 0.  0.
        -13    1    3    3    0    0  0.28929042291E+02  0.43606814634E+02  0.34165564725E+02  0.62495925847E+02  0.10566000000E+00 0.  1.
         23    2    1    0    0    0  0.13514871348E+02  0.18820681350E+02  0.16932534850E+02  0.96391907197E+02  0.92020754413E+02 0.  0.
         13    1    3    3    0    0 -0.15414170943E+02 -0.24786133284E+02 -0.17233029875E+02  0.33895981351E+02  0.10566000000E+00 0. -1.
         22    1    1    0    0    0 -0.13514871348E+02 -0.18820681350E+02 -0.16932534850E+02  0.28698092803E+02  0.00000000000E+00 0.  1.
</event>
<event>
 5    1  0.1264731E-009  0.9118800E+02  0.7815553E-02  0.1125453E+00
         25   -1    0    0    0    0  0.00000000000E+00  0.00000000000E+00  0.99999998245E-14  0.12509000000E+03  0.12509000000E+03 0.  0.
        -13    1    3    3    0    0  0.45182807037E+02  0.33139347498E+02 -0.83554932189E+01  0.56652694864E+02  0.10566000000E+00 0. -1.
         23    2    1    0    0    0  0.83097971671E+01  0.29755824792E+02 -0.41148982802E+01  0.93922802085E+02  0.88600781744E+02 0.  0.
         13    1    3    3    0    0 -0.36873009870E+02 -0.33835227056E+01  0.42405949387E+01  0.37270107221E+02  0.10566000000E+00 0.  1.
         22    1    1    0    0    0 -0.83097971671E+01 -0.29755824792E+02  0.41148982802E+01  0.31167197915E+02  0.00000000000E+00 0. -1.
</event>
<event>
 5    1  0.1264731E-009  0.9118800E+02  0.7815553E-02  0.1125453E+00
         25   -1    0    0    0    0  0.00000000000E+00  0.00000000000E+00  0.99999998245E-14  0.12509000000E+03  0.12509000000E+03 0.  0.
        -13    1    3    3    0    0  0.12912820433E+02 -0.53103190338E+02  0.12585694904E+02  0.56081196812E+02  0.10566000000E+00 0. -1.
         23    2    1    0    0    0  0.22527491660E+02 -0.18857355265E+02 -0.41999194035E+01  0.95412954139E+02  0.90680233604E+02 0.  0.
         13    1    3    3    0    0  0.96146712263E+01  0.34245835074E+02 -0.16785614307E+02  0.39331757326E+02  0.10566000000E+00 0.  1.
         22    1    1    0    0    0 -0.22527491660E+02  0.18857355265E+02  0.41999194035E+01  0.29677045861E+02  0.00000000000E+00 0.  1.
</event>
<event>
 5    1  0.1264731E-009  0.9118800E+02  0.7815553E-02  0.1125453E+00
         25   -1    0    0    0    0  0.00000000000E+00  0.00000000000E+00  0.99999998245E-14  0.12509000000E+03  0.12509000000E+03 0.  0.
        -13    1    3    3    0    0  0.32980496454E+01  0.45618438259E+02  0.41149408938E+01  0.45922357771E+02  0.10566000000E+00 0.  1.
         23    2    1    0    0    0 -0.16013859771E+02  0.52131273135E+01 -0.21706414562E+02  0.97616579494E+02  0.93670741205E+02 0.  0.
         13    1    3    3    0    0 -0.19311909416E+02 -0.40405310946E+02 -0.25821355456E+02  0.51694221723E+02  0.10566000000E+00 0. -1.
         22    1    1    0    0    0  0.16013859771E+02 -0.52131273135E+01  0.21706414562E+02  0.27473420506E+02  0.00000000000E+00 0.  1.
</event>
<event>
 5    1  0.1264731E-009  0.9118800E+02  0.7815553E-02  0.1125453E+00
         25   -1    0    0    0    0  0.00000000000E+00  0.00000000000E+00  0.99999998245E-14  0.12509000000E+03  0.12509000000E+03 0.  0.
        -13    1    3    3    0    0  0.37777690237E+02 -0.12240658284E+02 -0.12666769593E+01  0.39731640155E+02  0.10566000000E+00 0. -1.
         23    2    1    0    0    0 -0.23578341425E+01  0.18108338206E+02 -0.23988030643E+02  0.94942082849E+02  0.90028341022E+02 0.  0.
         13    1    3    3    0    0 -0.40135524380E+02  0.30348996490E+02 -0.22721353684E+02  0.55210442694E+02  0.10566000000E+00 0.  1.
         22    1    1    0    0    0  0.23578341425E+01 -0.18108338206E+02  0.23988030643E+02  0.30147917151E+02  0.00000000000E+00 0.  1.
</event>
<event>
 5    1  0.1264731E-009  0.9118800E+02  0.7815553E-02  0.1125453E+00
         25   -1    0    0    0    0  0.00000000000E+00  0.00000000000E+00  0.99999998245E-14  0.12509000000E+03  0.12509000000E+03 0.  0.
        -13    1    3    3    0    0  0.10739341639E+02 -0.59002462963E+01  0.22519761789E+02  0.25637808024E+02  0.10566000000E+00 0.  1.
         23    2    1    0    0    0 -0.33267941086E+02  0.14195286397E+02 -0.14054333929E+02  0.86285536826E+02  0.77067551558E+02 0.  0.
         13    1    3    3    0    0 -0.44007282726E+02  0.20095532693E+02 -0.36574095719E+02  0.60647728802E+02  0.10566000000E+00 0. -1.
         22    1    1    0    0    0  0.33267941086E+02 -0.14195286397E+02  0.14054333929E+02  0.38804463174E+02  0.00000000000E+00 0. -1.
</event>
<event>
 5    1  0.1264731E-009  0.9118800E+02  0.7815553E-02  0.1125453E+00
         25   -1    0    0    0    0  0.00000000000E+00  0.00000000000E+00  0.99999998245E-14  0.12509000000E+03  0.12509000000E+03 0.  0.
        -13    1    3    3    0    0 -0.50247088724E+02 -0.34950565519E+00 -0.23363032232E+02  0.55414208634E+02  0.10566000000E+00 0. -1.
         23    2    1    0    0    0 -0.26107835728E+02 -0.91571439127E+01  0.83118075330E+01  0.96201273557E+02  0.91761247368E+02 0.  0.
         13    1    3    3    0    0  0.24139252996E+02 -0.88076382575E+01  0.31674839765E+02  0.40787064923E+02  0.10566000000E+00 0.  1.
         22    1    1    0    0    0  0.26107835728E+02  0.91571439127E+01 -0.83118075330E+01  0.28888726443E+02  0.00000000000E+00 0. -1.
</event>
<event>
 5    1  0.1264731E-009  0.9118800E+02  0.7815553E-02  0.1125453E+00
         25   -1    0    0    0    0  0.00000000000E+00  0.00000000000E+00  0.99999998245E-14  0.12509000000E+03  0.12509000000E+03 0.  0.
        -13    1    3    3    0    0  0.21316571344E+02  0.21612453636E+02  0.53858286682E+02  0.61824109976E+02  0.10566000000E+00 0.  1.
         23    2    1    0    0    0  0.16765154931E+02  0.82622592808E+01  0.25763720764E+02  0.93260695014E+02  0.87661009454E+02 0.  0.
         13    1    3    3    0    0 -0.45514164127E+01 -0.13350194355E+02 -0.28094565917E+02  0.31436585037E+02  0.10566000000E+00 0. -1.
         22    1    1    0    0    0 -0.16765154931E+02 -0.82622592808E+01 -0.25763720764E+02  0.31829304986E+02  0.00000000000E+00 0.  1.
</event>
<event>
 5    1  0.1264731E-009  0.9118800E+02  0.7815553E-02  0.1125453E+00
         25   -1    0    0    0    0  0.00000000000E+00  0.00000000000E+00  0.99999998245E-14  0.12509000000E+03  0.12509000000E+03 0.  0.
        -13    1    3    3    0    0  0.72111037998E+01 -0.50607681085E+02 -0.98975128772E+01  0.52068314050E+02  0.10566000000E+00 0. -1.
         23    2    1    0    0    0  0.26010182476E+02 -0.10893125863E+02 -0.65845668402E+01  0.96132336006E+02  0.91667222725E+02 0.  0.
         13    1    3    3    0    0  0.18799078676E+02  0.39714555221E+02  0.33129460371E+01  0.44064021956E+02  0.10566000000E+00 0.  1.
         22    1    1    0    0    0 -0.26010182476E+02  0.10893125863E+02  0.65845668402E+01  0.28957663994E+02  0.00000000000E+00 0. -1.
</event>
<event>
 5    1  0.1264731E-009  0.9118800E+02  0.7815553E-02  0.1125453E+00
         25   -1    0    0    0    0  0.00000000000E+00  0.00000000000E+00  0.99999998245E-14  0.12509000000E+03  0.12509000000E+03 0.  0.
        -13    1    3    3    0    0 -0.49833381318E+02  0.27472754355E+02  0.89847219001E+00  0.56911655588E+02  0.10566000000E+00 0. -1.
         23    2    1    0    0    0 -0.15300183100E+02  0.18303134608E+02 -0.15927965902E+02  0.96405501797E+02  0.92039232611E+02 0.  0.
         13    1    3    3    0    0  0.34533198218E+02 -0.91696197471E+01 -0.16826438092E+02  0.39493846209E+02  0.10566000000E+00 0.  1.
         22    1    1    0    0    0  0.15300183100E+02 -0.18303134608E+02  0.15927965902E+02  0.28684498203E+02  0.00000000000E+00 0. -1.
</event>
<event>
 5    1  0.1264731E-009  0.9118800E+02  0.7815553E-02  0.1125453E+00
         25   -1    0    0    0    0  0.00000000000E+00  0.00000000000E+00  0.99999998245E-14  0.12509000000E+03  0.12509000000E+03 0.  0.
        -13    1    3    3    0    0  0.34107775953E+02 -0.29367448586E+02 -0.14570807182E+02  0.47308635605E+02  0.10566000000E+00 0. -1.
         23    2    1    0    0    0  0.14506942738E+02 -0.81272399290E+01  0.24237373509E+02  0.95696910828E+02  0.91071098878E+02 0.  0.
         13    1    3    3    0    0 -0.19600833215E+02  0.21240208656E+02  0.38808180691E+02  0.48388275223E+02  0.10566000000E+00 0.  1.
         22    1    1    0    0    0 -0.14506942738E+02  0.81272399290E+01 -0.24237373509E+02  0.29393089172E+02  0.00000000000E+00 0. -1.
</event>
<event>
 5    1  0.1264731E-009  0.9118800E+02  0.7815553E-02  0.1125453E+00
         25   -1    0    0    0    0  0.00000000000E+00  0.00000000000E+00  0.99999998245E-14  0.12509000000E+03  0.12509000000E+03 0.  0.
        -13    1    3    3    0    0  0.15689613921E+01  0.21655332306E+02  0.47338006025E+02  0.52079871693E+02  0.10566000000E+00 0. -1.
         23    2    1    0    0    0  0.17619107909E+02 -0.95170101872E+01  0.22012936798E+02  0.95331373807E+02  0.90567626661E+02 0.  0.
         13    1    3    3    0    0  0.16050146517E+02 -0.31172342493E+02 -0.25325069227E+02  0.43251502114E+02  0.10566000000E+00 0.  1.
         22    1    1    0    0    0 -0.17619107909E+02  0.95170101872E+01 -0.22012936798E+02  0.29758626193E+02  0.00000000000E+00 0. -1.
</event>
<event>
 5    1  0.1264731E-009  0.9118800E+02  0.7815553E-02  0.1125453E+00
         25   -1    0    0    0    0  0.00000000000E+00  0.00000000000E+00  0.99999998245E-14  0.12509000000E+03  0.12509000000E+03 0.  0.
        -13    1    3    3    0    0 -0.73830678536E+00 -0.40576210129E+02  0.18865614705E+02  0.44753731773E+02  0.10566000000E+00 0.  1.
         23    2    1    0    0    0  0.12099555894E+02  0.72508835256E+01  0.26702935706E+02  0.94890308941E+02  0.89956374932E+02 0.  0.
         13    1    3    3    0    0  0.12837862679E+02  0.47827093655E+02  0.78373210005E+01  0.50136577168E+02  0.10566000000E+00 0. -1.
         22    1    1    0    0    0 -0.12099555894E+02 -0.72508835256E+01 -0.26702935706E+02  0.30199691059E+02  0.00000000000E+00 0. -1.
</event>
<event>
 5    1  0.1264731E-009  0.9118800E+02  0.7815553E-02  0.1125453E+00
         25   -1    0    0    0    0  0.00000000000E+00  0.00000000000E+00  0.99999998245E-14  0.12509000000E+03  0.12509000000E+03 0.  0.
        -13    1    3    3    0    0  0.24904922844E+02  0.23301061513E+02 -0.21979250551E+02  0.40574539656E+02  0.10566000000E+00 0. -1.
         23    2    1    0    0    0 -0.20125280411E+02 -0.94901218965E+01 -0.18088075175E+02  0.96414787904E+02  0.92051852441E+02 0.  0.
         13    1    3    3    0    0 -0.45030203255E+02 -0.32791183409E+02  0.38911753760E+01  0.55840248248E+02  0.10566000000E+00 0.  1.
         22    1    1    0    0    0  0.20125280411E+02  0.94901218965E+01  0.18088075175E+02  0.28675212096E+02  0.00000000000E+00 0.  1.
</event>
<event>
 5    1  0.1264731E-009  0.9118800E+02  0.7815553E-02  0.1125453E+00
         25   -1    0    0    0    0  0.00000000000E+00  0.00000000000E+00  0.99999998245E-14  0.12509000000E+03  0.12509000000E+03 0.  0.
        -13    1    3    3    0    0  0.18463227897E+02 -0.20801556853E+02 -0.20194012625E+02  0.34371570546E+02  0.10566000000E+00 0. -1.
         23    2    1    0    0    0 -0.16432746647E+02  0.24025639895E+02  0.31964833567E+01  0.95807171575E+02  0.91222420954E+02 0.  0.
         13    1    3    3    0    0 -0.34895974543E+02  0.44827196747E+02  0.23390495981E+02  0.61435601029E+02  0.10566000000E+00 0.  1.
         22    1    1    0    0    0  0.16432746647E+02 -0.24025639895E+02 -0.31964833567E+01  0.29282828425E+02  0.00000000000E+00 0.  1.
</event>
<event>
 5    1  0.1264731E-009  0.9118800E+02  0.7815553E-02  0.1125453E+00
         25   -1    0    0    0    0  0.00000000000E+00  0.00000000000E+00  0.99999998245E-14  0.12509000000E+03  0.12509000000E+03 0.  0.
        -13    1    3    3    0    0  0.46682247095E+02  0.32867432815E+02 -0.22629217113E+02  0.61413296320E+02  0.10566000000E+00 0. -1.
         23    2    1    0    0    0  0.15725644043E+02  0.20428516466E+02 -0.13433261620E+02  0.96019866128E+02  0.91513616517E+02 0.  0.
         13    1    3    3    0    0 -0.30956603052E+02 -0.12438916349E+02  0.91959554925E+01  0.34606569809E+02  0.10566000000E+00 0.  1.
         22    1    1    0    0    0 -0.15725644043E+02 -0.20428516466E+02  0.13433261620E+02  0.29070133872E+02  0.00000000000E+00 0. -1.
</event>
<event>
 5    1  0.1264731E-009  0.9118800E+02  0.7815553E-02  0.1125453E+00
         25   -1    0    0    0    0  0.00000000000E+00  0.00000000000E+00  0.99999998245E-14  0.12509000000E+03  0.12509000000E+03 0.  0.
        -13    1    3    3    0    0  0.32598945930E+02 -0.15222567344E+02  0.18669274593E+02  0.40533576331E+02  0.10566000000E+00 0.  1.
         23    2    1    0    0    0 -0.84707663011E+01  0.23864665427E+02  0.98786266101E+01  0.97907958109E+02  0.94059049855E+02 0.  0.
         13    1    3    3    0    0 -0.41069712231E+02  0.39087232771E+02 -0.87906479832E+01  0.57374381778E+02  0.10566000000E+00 0. -1.
         22    1    1    0    0    0  0.84707663011E+01 -0.23864665427E+02 -0.98786266101E+01  0.27182041891E+02  0.00000000000E+00 0. -1.
</event>
<event>
 5    1  0.1264731E-009  0.9118800E+02  0.7815553E-02  0.1125453E+00
         25   -1    0    0    0    0  0.00000000000E+00  0.00000000000E+00  0.99999998245E-14  0.12509000000E+03  0.12509000000E+03 0.  0.
        -13    1    3    3    0    0 -0.13787753029E+02  0.25166929300E+02 -0.55254276837E+02  0.62261727705E+02  0.10566000000E+00 0.  1.
         23    2    1    0    0    0 -0.34846801400E+01  0.14324615299E+02 -0.23747967640E+02  0.97138192077E+02  0.93029698451E+02 0.  0.
         13    1    3    3    0    0  0.10303072889E+02 -0.10842314001E+02  0.31506309197E+02  0.34876464372E+02  0.10566000000E+00 0. -1.
         22    1    1    0    0    0  0.34846801400E+01 -0.14324615299E+02  0.23747967640E+02  0.27951807923E+02  0.00000000000E+00 0.  1.
</event>
<event>
 5    1  0.1264731E-009  0.9118800E+02  0.7815553E-02  0.1125453E+00
         25   -1    0    0    0    0  0.00000000000E+00  0.00000000000E+00  0.99999998245E-14  0.12509000000E+03  0.12509000000E+03 0.  0.
        -13    1    3    3    0    0  0.10643177280E+02 -0.39722574955E+02 -0.18956311962E+02  0.45282591698E+02  0.10566000000E+00 0. -1.
         23    2    1    0    0    0 -0.12279348028E+02 -0.13436218461E+02  0.20320247011E+02  0.97809479604E+02  0.93927991074E+02 0.  0.
         13    1    3    3    0    0 -0.22922525308E+02  0.26286356494E+02  0.39276558973E+02  0.52526887905E+02  0.10566000000E+00 0.  1.
         22    1    1    0    0    0  0.12279348028E+02  0.13436218461E+02 -0.20320247011E+02  0.27280520396E+02  0.00000000000E+00 0. -1.
</event>
<event>
 5    1  0.1264731E-009  0.9118800E+02  0.7815553E-02  0.1125453E+00
         25   -1    0    0    0    0  0.00000000000E+00  0.00000000000E+00  0.99999998245E-14  0.12509000000E+03  0.12509000000E+03 0.  0.
        -13    1    3    3    0    0  0.48619888419E+02  0.23029185348E+02  0.24032670721E+02  0.58922129575E+02  0.10566000000E+00 0. -1.
         23    2    1    0    0    0  0.20566207806E+02  0.20975480261E+02  0.32006399492E+00  0.95712421532E+02  0.91092400994E+02 0.  0.
         13    1    3    3    0    0 -0.28053680612E+02 -0.20537050868E+01 -0.23712606726E+02  0.36790291957E+02  0.10566000000E+00 0.  1.
         22    1    1    0    0    0 -0.20566207806E+02 -0.20975480261E+02 -0.32006399492E+00  0.29377578468E+02  0.00000000000E+00 0. -1.
</event>
<event>
 5    1  0.1264731E-009  0.9118800E+02  0.7815553E-02  0.1125453E+00
         25   -1    0    0    0    0  0.00000000000E+00  0.00000000000E+00  0.99999998245E-14  0.12509000000E+03  0.12509000000E+03 0.  0.
        -13    1    3    3    0    0 -0.57099309340E+01 -0.47130425506E+02 -0.23678409517E+02  0.53052413338E+02  0.10566000000E+00 0.  1.
         23    2    1    0    0    0  0.76900564771E+01 -0.12367036086E+02 -0.30833844940E+02  0.90990050675E+02  0.84358655620E+02 0.  0.
         13    1    3    3    0    0  0.13399987411E+02  0.34763389421E+02 -0.71554354231E+01  0.37937637338E+02  0.10566000000E+00 0. -1.
         22    1    1    0    0    0 -0.76900564771E+01  0.12367036086E+02  0.30833844940E+02  0.34099949325E+02  0.00000000000E+00 0.  1.
</event>
<event>
 5    1  0.1264731E-009  0.9118800E+02  0.7815553E-02  0.1125453E+00
         25   -1    0    0    0    0  0.00000000000E+00  0.00000000000E+00  0.99999998245E-14  0.12509000000E+03  0.12509000000E+03 0.  0.
        -13    1    3    3    0    0 -0.83893333476E+00  0.34533082254E+02  0.43908429548E+02  0.55867691276E+02  0.10566000000E+00 0. -1.
         23    2    1    0    0    0 -0.64201940171E+01 -0.32903980948E+01  0.26037887695E+02  0.98071169410E+02  0.94275856204E+02 0.  0.
         13    1    3    3    0    0 -0.55812606824E+01 -0.37823480348E+02 -0.17870541853E+02  0.42203478134E+02  0.10566000000E+00 0.  1.
         22    1    1    0    0    0  0.64201940171E+01  0.32903980948E+01 -0.26037887695E+02  0.27018830590E+02  0.00000000000E+00 0. -1.
</event>
<event>
 5    1  0.1264731E-009  0.9118800E+02  0.7815553E-02  0.1125453E+00
         25   -1    0    0    0    0  0.00000000000E+00  0.00000000000E+00  0.99999998245E-14  0.12509000000E+03  0.12509000000E+03 0.  0.
        -13    1    3    3    0    0 -0.36894307112E+02 -0.48707073657E+01  0.36122700604E+02  0.51863034528E+02  0.10566000000E+00 0. -1.
         23    2    1    0    0    0 -0.24117779692E+02  0.74233271802E+01 -0.73452910298E+01  0.98808326081E+02  0.95248931327E+02 0.  0.
         13    1    3    3    0    0  0.12776527420E+02  0.12294034546E+02 -0.43467991633E+02  0.46945291553E+02  0.10566000000E+00 0.  1.
         22    1    1    0    0    0  0.24117779692E+02 -0.74233271802E+01  0.73452910298E+01  0.26281673919E+02  0.00000000000E+00 0.  1.
</event>
<event>
 5    1  0.1264731E-009  0.9118800E+02  0.7815553E-02  0.1125453E+00
         25   -1    0    0    0    0  0.00000000000E+00  0.00000000000E+00  0.99999998245E-14  0.12509000000E+03  0.12509000000E+03 0.  0.
        -13    1    3    3    0    0  0.28860302802E+01  0.30885645430E+02  0.21683900496E+02  0.37847786846E+02  0.10566000000E+00 0. -1.
         23    2    1    0    0    0 -0.12565010085E+02  0.22103233780E+02 -0.25993058297E+02  0.88729698824E+02  0.80937555880E+02 0.  0.
         13    1    3    3    0    0 -0.15451040365E+02 -0.87824116502E+01 -0.47676958793E+02  0.50881911978E+02  0.10566000000E+00 0.  1.
         22    1    1    0    0    0  0.12565010085E+02 -0.22103233780E+02  0.25993058297E+02  0.36360301176E+02  0.00000000000E+00 0.  1.
</event>
<event>
 5    1  0.1264731E-009  0.9118800E+02  0.7815553E-02  0.1125453E+00
         25   -1    0    0    0    0  0.00000000000E+00  0.00000000000E+00  0.99999998245E-14  0.12509000000E+03  0.12509000000E+03 0.  0.
        -13    1    3    3    0    0 -0.74713839671E+01  0.30243490439E+02 -0.12229746972E+02  0.33467419491E+02  0.10566000000E+00 0.  1.
         23    2    1    0    0    0  0.17862329827E+02 -0.21351293531E+02  0.10583694781E+02  0.95308207617E+02  0.90535624379E+02 0.  0.
         13    1    3    3    0    0  0.25333713795E+02 -0.51594783970E+02  0.22813441752E+02  0.61840788127E+02  0.10566000000E+00 0. -1.
         22    1    1    0    0    0 -0.17862329827E+02  0.21351293531E+02 -0.10583694781E+02  0.29781792383E+02  0.00000000000E+00 0. -1.
</event>
<event>
 5    1  0.1264731E-009  0.9118800E+02  0.7815553E-02  0.1125453E+00
         25   -1    0    0    0    0  0.00000000000E+00  0.00000000000E+00  0.99999998245E-14  0.12509000000E+03  0.12509000000E+03 0.  0.
        -13    1    3    3    0    0  0.18818332268E+02  0.35952211318E+02  0.15850432453E+02  0.43565336002E+02  0.10566000000E+00 0. -1.
         23    2    1    0    0    0  0.20487520531E+01 -0.11801403766E+02  0.27142268173E+02  0.95422286280E+02  0.90693106030E+02 0.  0.
         13    1    3    3    0    0 -0.16769580214E+02 -0.47753615084E+02  0.11291835720E+02  0.51856950278E+02  0.10566000000E+00 0.  1.
         22    1    1    0    0    0 -0.20487520531E+01  0.11801403766E+02 -0.27142268173E+02  0.29667713720E+02  0.00000000000E+00 0.  1.
</event>
<event>
 5    1  0.1264731E-009  0.9118800E+02  0.7815553E-02  0.1125453E+00
         25   -1    0    0    0    0  0.00000000000E+00  0.00000000000E+00  0.99999998245E-14  0.12509000000E+03  0.12509000000E+03 0.  0.
        -13    1    3    3    0    0 -0.57150742317E+01 -0.65292127922E+01  0.43402710622E+02  0.44261711971E+02  0.10566000000E+00 0.  1.
         23    2    1    0    0    0 -0.15034577456E+02 -0.28404160745E+02  0.92817445365E+00  0.92938851113E+02  0.87200537105E+02 0.  0.
         13    1    3    3    0    0 -0.93195032246E+01 -0.21874947953E+02 -0.42474536169E+02  0.48677139142E+02  0.10566000000E+00 0. -1.
         22    1    1    0    0    0  0.15034577456E+02  0.28404160745E+02 -0.92817445365E+00  0.32151148887E+02  0.00000000000E+00 0.  1.
</event>
<event>
 5    1  0.1264731E-009  0.9118800E+02  0.7815553E-02  0.1125453E+00
         25   -1    0    0    0    0  0.00000000000E+00  0.00000000000E+00  0.99999998245E-14  0.12509000000E+03  0.12509000000E+03 0.  0.
        -13    1    3    3    0    0 -0.16260512798E+01  0.34135819500E+02 -0.30624188964E+02  0.45888455296E+02  0.10566000000E+00 0.  1.
         23    2    1    0    0    0  0.20506584057E+02  0.18907816602E+02  0.10731026698E+02  0.95203875254E+02  0.90391356949E+02 0.  0.
         13    1    3    3    0    0  0.22132635336E+02 -0.15228002898E+02  0.41355215662E+02  0.49315419959E+02  0.10566000000E+00 0. -1.
         22    1    1    0    0    0 -0.20506584057E+02 -0.18907816602E+02 -0.10731026698E+02  0.29886124746E+02  0.00000000000E+00 0. -1.
</event>
<event>
 5    1  0.1264731E-009  0.9118800E+02  0.7815553E-02  0.1125453E+00
         25   -1    0    0    0    0  0.00000000000E+00  0.00000000000E+00  0.99999998245E-14  0.12509000000E+03  0.12509000000E+03 0.  0.
        -13    1    3    3    0    0  0.13358748911E+02  0.21898008610E+02 -0.51374653413E+02  0.57422514147E+02  0.10566000000E+00 0.  1.
         23    2    1    0    0    0 -0.73165369675E+01 -0.22744514562E+01 -0.25615397540E+02  0.98353256859E+02  0.94649404124E+02 0.  0.
         13    1    3    3    0    0 -0.20675285879E+02 -0.24172460066E+02  0.25759255873E+02  0.40930742713E+02  0.10566000000E+00 0. -1.
         22    1    1    0    0    0  0.73165369675E+01  0.22744514562E+01  0.25615397540E+02  0.26736743141E+02  0.00000000000E+00 0.  1.
</event>
<event>
 5    1  0.1264731E-009  0.9118800E+02  0.7815553E-02  0.1125453E+00
         25   -1    0    0    0    0  0.00000000000E+00  0.00000000000E+00  0.99999998245E-14  0.12509000000E+03  0.12509000000E+03 0.  0.
        -13    1    3    3    0    0 -0.24358525311E+01  0.17576752051E+02  0.28497288586E+02  0.33570555715E+02  0.10566000000E+00 0. -1.
         23    2    1    0    0    0 -0.25156605087E+00  0.83730130415E+01 -0.30571272863E+02  0.93391839844E+02  0.87847950415E+02 0.  0.
         13    1    3    3    0    0  0.21842864803E+01 -0.92037390090E+01 -0.59068561449E+02  0.59821284129E+02  0.10566000000E+00 0.  1.
         22    1    1    0    0    0  0.25156605087E+00 -0.83730130415E+01  0.30571272863E+02  0.31698160156E+02  0.00000000000E+00 0. -1.
</event>
<event>
 5    1  0.1264731E-009  0.9118800E+02  0.7815553E-02  0.1125453E+00
         25   -1    0    0    0    0  0.00000000000E+00  0.00000000000E+00  0.99999998245E-14  0.12509000000E+03  0.12509000000E+03 0.  0.
        -13    1    3    3    0    0  0.14388293027E+02 -0.22748186712E+02  0.30872966141E+02  0.40959176961E+02  0.10566000000E+00 0.  1.
         23    2    1    0    0    0 -0.18887506984E+02 -0.17527775060E+02 -0.12966293451E+02  0.96244106280E+02  0.91819618869E+02 0.  0.
         13    1    3    3    0    0 -0.33275800011E+02  0.52204116517E+01 -0.43839259593E+02  0.55284929319E+02  0.10566000000E+00 0. -1.
         22    1    1    0    0    0  0.18887506984E+02  0.17527775060E+02  0.12966293451E+02  0.28845893720E+02  0.00000000000E+00 0. -1.
</event>
<event>
 5    1  0.1264731E-009  0.9118800E+02  0.7815553E-02  0.1125453E+00
         25   -1    0    0    0    0  0.00000000000E+00  0.00000000000E+00  0.99999998245E-14  0.12509000000E+03  0.12509000000E+03 0.  0.
        -13    1    3    3    0    0 -0.43033672395E+02  0.33183601611E+02 -0.26963056725E+02  0.60663547273E+02  0.10566000000E+00 0.  1.
         23    2    1    0    0    0 -0.13765231972E+02  0.24265367387E+02 -0.12064137007E+02  0.94695377656E+02  0.89684901082E+02 0.  0.
         13    1    3    3    0    0  0.29268440423E+02 -0.89182342240E+01  0.14898919718E+02  0.34031830383E+02  0.10566000000E+00 0. -1.
         22    1    1    0    0    0  0.13765231972E+02 -0.24265367387E+02  0.12064137007E+02  0.30394622344E+02  0.00000000000E+00 0.  1.
</event>
<event>
 5    1  0.1264731E-009  0.9118800E+02  0.7815553E-02  0.1125453E+00
         25   -1    0    0    0    0  0.00000000000E+00  0.00000000000E+00  0.99999998245E-14  0.12509000000E+03  0.12509000000E+03 0.  0.
        -13    1    3    3    0    0 -0.37402796282E+02  0.10041177753E+02  0.16095416321E+02  0.41938860391E+02  0.10566000000E+00 0.  1.
         23    2    1    0    0    0  0.13835254682E+02  0.23273921059E+02  0.13279798251E+02  0.94933032063E+02  0.90015764516E+02 0.  0.
         13    1    3    3    0    0  0.51238050964E+02  0.13232743306E+02 -0.28156180697E+01  0.52994171671E+02  0.10566000000E+00 0. -1.
         22    1    1    0    0    0 -0.13835254682E+02 -0.23273921059E+02 -0.13279798251E+02  0.30156967937E+02  0.00000000000E+00 0. -1.
</event>
<event>
 5    1  0.1264731E-009  0.9118800E+02  0.7815553E-02  0.1125453E+00
         25   -1    0    0    0    0  0.00000000000E+00  0.00000000000E+00  0.99999998245E-14  0.12509000000E+03  0.12509000000E+03 0.  0.
        -13    1    3    3    0    0 -0.40336946306E+01 -0.12362326336E+02 -0.34512412926E+02  0.36881101052E+02  0.10566000000E+00 0. -1.
         23    2    1    0    0    0  0.44186692667E+01 -0.17535100725E+02  0.23333374705E+02  0.95569654970E+02  0.90896139525E+02 0.  0.
         13    1    3    3    0    0  0.84523638972E+01 -0.51727743892E+01  0.57845787631E+02  0.58688553919E+02  0.10566000000E+00 0.  1.
         22    1    1    0    0    0 -0.44186692667E+01  0.17535100725E+02 -0.23333374705E+02  0.29520345030E+02  0.00000000000E+00 0.  1.
</event>
<event>
 5    1  0.1264731E-009  0.9118800E+02  0.7815553E-02  0.1125453E+00
         25   -1    0    0    0    0  0.00000000000E+00  0.00000000000E+00  0.99999998245E-14  0.12509000000E+03  0.12509000000E+03 0.  0.
        -13    1    3    3    0    0  0.89694235810E+01  0.38936757794E+02 -0.12751269603E+02  0.41941956409E+02  0.10566000000E+00 0. -1.
         23    2    1    0    0    0 -0.16289969954E+02  0.64087153758E+01  0.22797949379E+02  0.96346631204E+02  0.91959187114E+02 0.  0.
         13    1    3    3    0    0 -0.25259393535E+02 -0.32528042418E+02  0.35549218982E+02  0.54404674795E+02  0.10566000000E+00 0.  1.
         22    1    1    0    0    0  0.16289969954E+02 -0.64087153758E+01 -0.22797949379E+02  0.28743368796E+02  0.00000000000E+00 0. -1.
</event>
<event>
 5    1  0.1264731E-009  0.9118800E+02  0.7815553E-02  0.1125453E+00
         25   -1    0    0    0    0  0.00000000000E+00  0.00000000000E+00  0.99999998245E-14  0.12509000000E+03  0.12509000000E+03 0.  0.
        -13    1    3    3    0    0  0.32707877542E+02  0.23877790523E+02 -0.69919149502E+01  0.41095646634E+02  0.10566000000E+00 0.  1.
         23    2    1    0    0    0 -0.17440430686E+02 -0.61550000292E+01  0.12561236281E+02  0.10273295850E+03  0.10027075075E+03 0.  0.
         13    1    3    3    0    0 -0.50148308228E+02 -0.30032790553E+02  0.19553151231E+02  0.61637311862E+02  0.10566000000E+00 0. -1.
         22    1    1    0    0    0  0.17440430686E+02  0.61550000292E+01 -0.12561236281E+02  0.22357041503E+02  0.00000000000E+00 0. -1.
</event>
<event>
 5    1  0.1264731E-009  0.9118800E+02  0.7815553E-02  0.1125453E+00
         25   -1    0    0    0    0  0.00000000000E+00  0.00000000000E+00  0.99999998245E-14  0.12509000000E+03  0.12509000000E+03 0.  0.
        -13    1    3    3    0    0  0.53190860075E+01 -0.55121431683E+02  0.26010816760E+02  0.61182012547E+02  0.10566000000E+00 0.  1.
         23    2    1    0    0    0  0.64014368642E+01 -0.21208283581E+02  0.19166998902E+02  0.95795912998E+02  0.91206981168E+02 0.  0.
         13    1    3    3    0    0  0.10823508567E+01  0.33913148102E+02 -0.68438178580E+01  0.34613900451E+02  0.10566000000E+00 0. -1.
         22    1    1    0    0    0 -0.64014368642E+01  0.21208283581E+02 -0.19166998902E+02  0.29294087002E+02  0.00000000000E+00 0.  1.
</event>
<event>
 5    1  0.1264731E-009  0.9118800E+02  0.7815553E-02  0.1125453E+00
         25   -1    0    0    0    0  0.00000000000E+00  0.00000000000E+00  0.99999998245E-14  0.12509000000E+03  0.12509000000E+03 0.  0.
        -13    1    3    3    0    0 -0.47391050875E+02 -0.95640509416E+01  0.11745421819E+02  0.49752878019E+02  0.10566000000E+00 0.  1.
         23    2    1    0    0    0 -0.17917789153E+02 -0.68582239568E+01 -0.22831821258E+02  0.95267618038E+02  0.90479525754E+02 0.  0.
         13    1    3    3    0    0  0.29473261722E+02  0.27058269848E+01 -0.34577243076E+02  0.45514740019E+02  0.10566000000E+00 0. -1.
         22    1    1    0    0    0  0.17917789153E+02  0.68582239568E+01  0.22831821258E+02  0.29822381962E+02  0.00000000000E+00 0. -1.
</event>
<event>
 5    1  0.1264731E-009  0.9118800E+02  0.7815553E-02  0.1125453E+00
         25   -1    0    0    0    0  0.00000000000E+00  0.00000000000E+00  0.99999998245E-14  0.12509000000E+03  0.12509000000E+03 0.  0.
        -13    1    3    3    0    0  0.25190593939E+02  0.33687610511E+02 -0.23807683566E+02  0.48334646846E+02  0.10566000000E+00 0. -1.
         23    2    1    0    0    0  0.12749137378E+02  0.18551913270E+02  0.19141287955E+02  0.95541685421E+02  0.90857640068E+02 0.  0.
         13    1    3    3    0    0 -0.12441456562E+02 -0.15135697240E+02  0.42948971521E+02  0.47207038575E+02  0.10566000000E+00 0.  1.
         22    1    1    0    0    0 -0.12749137378E+02 -0.18551913270E+02 -0.19141287955E+02  0.29548314579E+02  0.00000000000E+00 0.  1.
</event>
<event>
 5    1  0.1264731E-009  0.9118800E+02  0.7815553E-02  0.1125453E+00
         25   -1    0    0    0    0  0.00000000000E+00  0.00000000000E+00  0.99999998245E-14  0.12509000000E+03  0.12509000000E+03 0.  0.
        -13    1    3    3    0    0  0.29058406802E+02 -0.15753606557E+02  0.20829536756E+02  0.39069782325E+02  0.10566000000E+00 0. -1.
         23    2    1    0    0    0 -0.23351617143E+02 -0.81173206453E+01 -0.76583583991E+01  0.99208744794E+02  0.95773355755E+02 0.  0.
         13    1    3    3    0    0 -0.52410023945E+02  0.76362859118E+01 -0.28487895155E+02  0.60138962469E+02  0.10566000000E+00 0.  1.
         22    1    1    0    0    0  0.23351617143E+02  0.81173206453E+01  0.76583583991E+01  0.25881255206E+02  0.00000000000E+00 0.  1.
</event>
<event>
 5    1  0.1264731E-009  0.9118800E+02  0.7815553E-02  0.1125453E+00
         25   -1    0    0    0    0  0.00000000000E+00  0.00000000000E+00  0.99999998245E-14  0.12509000000E+03  0.12509000000E+03 0.  0.
        -13    1    3    3    0    0 -0.13083517978E+02  0.11434054945E+02 -0.55200292928E+02  0.57870541370E+02  0.10566000000E+00 0. -1.
         23    2    1    0    0    0  0.85462321466E+01  0.14170245838E+02 -0.24512785710E+02  0.95514493001E+02  0.90820194665E+02 0.  0.
         13    1    3    3    0    0  0.21629750124E+02  0.27361908931E+01  0.30687507218E+02  0.37643951630E+02  0.10566000000E+00 0.  1.
         22    1    1    0    0    0 -0.85462321466E+01 -0.14170245838E+02  0.24512785710E+02  0.29575506999E+02  0.00000000000E+00 0. -1.
</event>
<event>
 5    1  0.1264731E-009  0.9118800E+02  0.7815553E-02  0.1125453E+00
         25   -1    0    0    0    0  0.00000000000E+00  0.00000000000E+00  0.99999998245E-14  0.12509000000E+03  0.12509000000E+03 0.  0.
        -13    1    3    3    0    0  0.12004785802E+02  0.23273093131E+02  0.26604784107E+02  0.37330650242E+02  0.10566000000E+00 0. -1.
         23    2    1    0    0    0  0.41208933326E+01  0.50687243229E+01 -0.28475562292E+02  0.95874740700E+02  0.91315029039E+02 0.  0.
         13    1    3    3    0    0 -0.78838924697E+01 -0.18204368808E+02 -0.55080346399E+02  0.58544090459E+02  0.10566000000E+00 0.  1.
         22    1    1    0    0    0 -0.41208933326E+01 -0.50687243229E+01  0.28475562292E+02  0.29215259300E+02  0.00000000000E+00 0.  1.
</event>
<event>
 5    1  0.1264731E-009  0.9118800E+02  0.7815553E-02  0.1125453E+00
         25   -1    0    0    0    0  0.00000000000E+00  0.00000000000E+00  0.99999998245E-14  0.12509000000E+03  0.12509000000E+03 0.  0.
        -13    1    3    3    0    0 -0.51094887825E+02  0.17561209268E+02 -0.31082026597E+02  0.62331269634E+02  0.10566000000E+00 0.  1.
         23    2    1    0    0    0 -0.23105735911E+02  0.43064678295E+01 -0.12105403841E+02  0.98652119992E+02  0.95043565166E+02 0.  0.
         13    1    3    3    0    0  0.27989151914E+02 -0.13254741439E+02  0.18976622755E+02  0.36320850358E+02  0.10566000000E+00 0. -1.
         22    1    1    0    0    0  0.23105735911E+02 -0.43064678295E+01  0.12105403841E+02  0.26437880008E+02  0.00000000000E+00 0.  1.
</event>
<event>
 5    1  0.1264731E-009  0.9118800E+02  0.7815553E-02  0.1125453E+00
         25   -1    0    0    0    0  0.00000000000E+00  0.00000000000E+00  0.99999998245E-14  0.12509000000E+03  0.12509000000E+03 0.  0.
        -13    1    3    3    0    0 -0.20992581377E+02  0.23535618004E+02  0.30360041855E+02  0.43776216067E+02  0.10566000000E+00 0. -1.
         23    2    1    0    0    0 -0.93650932594E+01  0.21348576575E+02 -0.19299322581E+02  0.94825655539E+02  0.89866425336E+02 0.  0.
         13    1    3    3    0    0  0.11627488117E+02 -0.21870414289E+01 -0.49659364436E+02  0.51049439472E+02  0.10566000000E+00 0.  1.
         22    1    1    0    0    0  0.93650932594E+01 -0.21348576575E+02  0.19299322581E+02  0.30264344461E+02  0.00000000000E+00 0. -1.
</event>
<event>
 5    1  0.1264731E-009  0.9118800E+02  0.7815553E-02  0.1125453E+00
         25   -1    0    0    0    0  0.00000000000E+00  0.00000000000E+00  0.99999998245E-14  0.12509000000E+03  0.12509000000E+03 0.  0.
        -13    1    3    3    0    0 -0.30629108866E+02 -0.10733772532E+02  0.39662217160E+02  0.51248988447E+02  0.10566000000E+00 0. -1.
         23    2    1    0    0    0  0.86060584384E+01 -0.19260001786E+02  0.20257069844E+02  0.95843448249E+02  0.91272152287E+02 0.  0.
         13    1    3    3    0    0  0.39235167305E+02 -0.85262292540E+01 -0.19405147316E+02  0.44594459803E+02  0.10566000000E+00 0.  1.
         22    1    1    0    0    0 -0.86060584384E+01  0.19260001786E+02 -0.20257069844E+02  0.29246551751E+02  0.00000000000E+00 0. -1.
</event>
<event>
 5    1  0.1264731E-009  0.9118800E+02  0.7815553E-02  0.1125453E+00
         25   -1    0    0    0    0  0.00000000000E+00  0.00000000000E+00  0.99999998245E-14  0.12509000000E+03  0.12509000000E+03 0.  0.
        -13    1    3    3    0    0 -0.12365855874E+01 -0.86069352938E+01  0.51973808197E+02  0.52696265348E+02  0.10566000000E+00 0. -1.
         23    2    1    0    0    0 -0.10380110370E+02  0.18642634874E+02  0.18203396712E+02  0.97042572699E+02  0.92901037335E+02 0.  0.
         13    1    3    3    0    0 -0.91435247826E+01  0.27249570168E+02 -0.33770411485E+02  0.44346307352E+02  0.10566000000E+00 0.  1.
         22    1    1    0    0    0  0.10380110370E+02 -0.18642634874E+02 -0.18203396712E+02  0.28047427301E+02  0.00000000000E+00 0. -1.
</event>
<event>
 5    1  0.1264731E-009  0.9118800E+02  0.7815553E-02  0.1125453E+00
         25   -1    0    0    0    0  0.00000000000E+00  0.00000000000E+00  0.99999998245E-14  0.12509000000E+03  0.12509000000E+03 0.  0.
        -13    1    3    3    0    0 -0.95061814665E+01  0.10260572609E+02 -0.59912957495E+02  0.61524145473E+02  0.10566000000E+00 0.  1.
         23    2    1    0    0    0 -0.72825380036E+01  0.12094955111E+02 -0.26478871333E+02  0.95082435521E+02  0.90223143476E+02 0.  0.
         13    1    3    3    0    0  0.22236434629E+01  0.18343825015E+01  0.33434086162E+02  0.33558290048E+02  0.10566000000E+00 0. -1.
         22    1    1    0    0    0  0.72825380036E+01 -0.12094955111E+02  0.26478871333E+02  0.30007564479E+02  0.00000000000E+00 0.  1.
</event>
<event>
 5    1  0.1264731E-009  0.9118800E+02  0.7815553E-02  0.1125453E+00
         25   -1    0    0    0    0  0.00000000000E+00  0.00000000000E+00  0.99999998245E-14  0.12509000000E+03  0.12509000000E+03 0.  0.
        -13    1    3    3    0    0  0.14850489943E+02  0.30298664011E+02 -0.45457732684E+02  0.56612390138E+02  0.10566000000E+00 0.  1.
         23    2    1    0    0    0 -0.57123001936E+01  0.28302718625E+02 -0.17669615385E+02  0.91239009425E+02  0.84727016222E+02 0.  0.
         13    1    3    3    0    0 -0.20562790136E+02 -0.19959453866E+01  0.27788117299E+02  0.34626619286E+02  0.10566000000E+00 0. -1.
         22    1    1    0    0    0  0.57123001936E+01 -0.28302718625E+02  0.17669615385E+02  0.33850990575E+02  0.00000000000E+00 0. -1.
</event>
<event>
 5    1  0.1264731E-009  0.9118800E+02  0.7815553E-02  0.1125453E+00
         25   -1    0    0    0    0  0.00000000000E+00  0.00000000000E+00  0.99999998245E-14  0.12509000000E+03  0.12509000000E+03 0.  0.
        -13    1    3    3    0    0  0.20753334595E+02 -0.98904375438E+01 -0.32856800320E+02  0.40101148898E+02  0.10566000000E+00 0.  1.
         23    2    1    0    0    0 -0.18102253764E+02  0.21619962503E+02 -0.92867903689E+01  0.95402311553E+02  0.90665551365E+02 0.  0.
         13    1    3    3    0    0 -0.38855588359E+02  0.31510400047E+02  0.23570009951E+02  0.55301162655E+02  0.10566000000E+00 0. -1.
         22    1    1    0    0    0  0.18102253764E+02 -0.21619962503E+02  0.92867903689E+01  0.29687688447E+02  0.00000000000E+00 0. -1.
</event>
<event>
 5    1  0.1264731E-009  0.9118800E+02  0.7815553E-02  0.1125453E+00
         25   -1    0    0    0    0  0.00000000000E+00  0.00000000000E+00  0.99999998245E-14  0.12509000000E+03  0.12509000000E+03 0.  0.
        -13    1    3    3    0    0  0.14534614439E+01 -0.51831348128E+02 -0.23002589183E+02  0.56725051539E+02  0.10566000000E+00 0. -1.
         23    2    1    0    0    0 -0.13325648686E+02 -0.36737231704E+02 -0.28726360879E+01  0.85905192431E+02  0.76447713781E+02 0.  0.
         13    1    3    3    0    0 -0.14779110129E+02  0.15094116424E+02  0.20129953095E+02  0.29180140892E+02  0.10566000000E+00 0.  1.
         22    1    1    0    0    0  0.13325648686E+02  0.36737231704E+02  0.28726360879E+01  0.39184807569E+02  0.00000000000E+00 0. -1.
</event>
<event>
 5    1  0.1264731E-009  0.9118800E+02  0.7815553E-02  0.1125453E+00
         25   -1    0    0    0    0  0.00000000000E+00  0.00000000000E+00  0.99999998245E-14  0.12509000000E+03  0.12509000000E+03 0.  0.
        -13    1    3    3    0    0 -0.21228795664E+01  0.15112578364E+02 -0.30067104531E+02  0.33718519858E+02  0.10566000000E+00 0. -1.
         23    2    1    0    0    0 -0.23075311465E+02 -0.11032428335E+02  0.19066331703E+02  0.93188440809E+02  0.87557843861E+02 0.  0.
         13    1    3    3    0    0 -0.20952431899E+02 -0.26145006699E+02  0.49133436234E+02  0.59469920952E+02  0.10566000000E+00 0.  1.
         22    1    1    0    0    0  0.23075311465E+02  0.11032428335E+02 -0.19066331703E+02  0.31901559191E+02  0.00000000000E+00 0.  1.
</event>
<event>
 5    1  0.1264731E-009  0.9118800E+02  0.7815553E-02  0.1125453E+00
         25   -1    0    0    0    0  0.00000000000E+00  0.00000000000E+00  0.99999998245E-14  0.12509000000E+03  0.12509000000E+03 0.  0.
        -13    1    3    3    0    0 -0.50299722507E+02  0.12851109789E+02 -0.20255800678E+02  0.55727208186E+02  0.10566000000E+00 0.  1.
         23    2    1    0    0    0 -0.13516546568E+02  0.21392049131E+02 -0.18887400402E+02  0.93513890501E+02  0.88021571365E+02 0.  0.
         13    1    3    3    0    0  0.36783175939E+02  0.85409393420E+01  0.13684002761E+01  0.37786682315E+02  0.10566000000E+00 0. -1.
         22    1    1    0    0    0  0.13516546568E+02 -0.21392049131E+02  0.18887400402E+02  0.31576109499E+02  0.00000000000E+00 0.  1.
</event>
<event>
 5    1  0.1264731E-009  0.9118800E+02  0.7815553E-02  0.1125453E+00
         25   -1    0    0    0    0  0.00000000000E+00  0.00000000000E+00  0.99999998245E-14  0.12509000000E+03  0.12509000000E+03 0.  0.
        -13    1    3    3    0    0 -0.27065713441E+02  0.27027362158E+02 -0.47508508470E+02  0.60992628164E+02  0.10566000000E+00 0. -1.
         23    2    1    0    0    0 -0.17266872214E+02  0.17925685925E+02 -0.15283355491E+02  0.95882876776E+02  0.91326173750E+02 0.  0.
         13    1    3    3    0    0  0.97988412271E+01 -0.91016762331E+01  0.32225152979E+02  0.34890248612E+02  0.10566000000E+00 0.  1.
         22    1    1    0    0    0  0.17266872214E+02 -0.17925685925E+02  0.15283355491E+02  0.29207123224E+02  0.00000000000E+00 0. -1.
</event>
<event>
 5    1  0.1264731E-009  0.9118800E+02  0.7815553E-02  0.1125453E+00
         25   -1    0    0    0    0  0.00000000000E+00  0.00000000000E+00  0.99999998245E-14  0.12509000000E+03  0.12509000000E+03 0.  0.
        -13    1    3    3    0    0  0.35216761707E+02 -0.23628686660E+02 -0.16434153750E+02  0.45482169165E+02  0.10566000000E+00 0.  1.
         23    2    1    0    0    0  0.39204989072E+01 -0.20679739408E+02  0.21670748139E+02  0.94880013926E+02  0.89942057927E+02 0.  0.
         13    1    3    3    0    0 -0.31296262800E+02  0.29489472523E+01  0.38104901889E+02  0.49397844762E+02  0.10566000000E+00 0. -1.
         22    1    1    0    0    0 -0.39204989072E+01  0.20679739408E+02 -0.21670748139E+02  0.30209986074E+02  0.00000000000E+00 0.  1.
</event>
<event>
 5    1  0.1264731E-009  0.9118800E+02  0.7815553E-02  0.1125453E+00
         25   -1    0    0    0    0  0.00000000000E+00  0.00000000000E+00  0.99999998245E-14  0.12509000000E+03  0.12509000000E+03 0.  0.
        -13    1    3    3    0    0 -0.93778776472E+01  0.92198574335E+01 -0.41856790927E+02  0.43874280290E+02  0.10566000000E+00 0.  1.
         23    2    1    0    0    0  0.21185342420E+02 -0.17463985447E+02 -0.86488907030E+01  0.96304364146E+02  0.91901674206E+02 0.  0.
         13    1    3    3    0    0  0.30563220067E+02 -0.26683842881E+02  0.33207900224E+02  0.52430083855E+02  0.10566000000E+00 0. -1.
         22    1    1    0    0    0 -0.21185342420E+02  0.17463985447E+02  0.86488907030E+01  0.28785635854E+02  0.00000000000E+00 0. -1.
</event>
<event>
 5    1  0.1264731E-009  0.9118800E+02  0.7815553E-02  0.1125453E+00
         25   -1    0    0    0    0  0.00000000000E+00  0.00000000000E+00  0.99999998245E-14  0.12509000000E+03  0.12509000000E+03 0.  0.
        -13    1    3    3    0    0 -0.41940281848E+02  0.44623074823E+02 -0.11034157087E+02  0.62225154357E+02  0.10566000000E+00 0.  1.
         23    2    1    0    0    0 -0.25133335513E+02  0.21171389208E+02 -0.82265556324E+01  0.91213924481E+02  0.84689972999E+02 0.  0.
         13    1    3    3    0    0  0.16806946335E+02 -0.23451685616E+02  0.28076014543E+01  0.28988770123E+02  0.10566000000E+00 0. -1.
         22    1    1    0    0    0  0.25133335513E+02 -0.21171389208E+02  0.82265556324E+01  0.33876075519E+02  0.00000000000E+00 0.  1.
</event>
<event>
 5    1  0.1264731E-009  0.9118800E+02  0.7815553E-02  0.1125453E+00
         25   -1    0    0    0    0  0.00000000000E+00  0.00000000000E+00  0.99999998245E-14  0.12509000000E+03  0.12509000000E+03 0.  0.
        -13    1    3    3    0    0  0.50661875960E+01  0.44696219240E+02 -0.25498148388E+02  0.51706721094E+02  0.10566000000E+00 0.  1.
         23    2    1    0    0    0  0.88467354502E+01  0.10090823693E+01 -0.28078887340E+02  0.95633135102E+02  0.90983458056E+02 0.  0.
         13    1    3    3    0    0  0.37805478541E+01 -0.43687136870E+02 -0.25807389520E+01  0.43926414008E+02  0.10566000000E+00 0. -1.
         22    1    1    0    0    0 -0.88467354502E+01 -0.10090823693E+01  0.28078887340E+02  0.29456864898E+02  0.00000000000E+00 0.  1.
</event>
<event>
 5    1  0.1264731E-009  0.9118800E+02  0.7815553E-02  0.1125453E+00
         25   -1    0    0    0    0  0.00000000000E+00  0.00000000000E+00  0.99999998245E-14  0.12509000000E+03  0.12509000000E+03 0.  0.
        -13    1    3    3    0    0  0.37560062554E+02  0.30202953687E+02 -0.53738564745E+01  0.48496043219E+02  0.10566000000E+00 0. -1.
         23    2    1    0    0    0 -0.44487683258E+01  0.23436336965E+02  0.16250428433E+02  0.96226011117E+02  0.91794963703E+02 0.  0.
         13    1    3    3    0    0 -0.42008830879E+02 -0.67666167223E+01  0.21624284908E+02  0.47729967898E+02  0.10566000000E+00 0.  1.
         22    1    1    0    0    0  0.44487683258E+01 -0.23436336965E+02 -0.16250428433E+02  0.28863988883E+02  0.00000000000E+00 0. -1.
</event>
<event>
 5    1  0.1264731E-009  0.9118800E+02  0.7815553E-02  0.1125453E+00
         25   -1    0    0    0    0  0.00000000000E+00  0.00000000000E+00  0.99999998245E-14  0.12509000000E+03  0.12509000000E+03 0.  0.
        -13    1    3    3    0    0  0.19033124961E+02  0.12344560565E+02 -0.53309218936E+02  0.57935584997E+02  0.10566000000E+00 0. -1.
         23    2    1    0    0    0  0.30786778635E+00 -0.86207245195E+01 -0.28106248336E+02  0.95689781134E+02  0.91061305417E+02 0.  0.
         13    1    3    3    0    0 -0.18725257175E+02 -0.20965285084E+02  0.25202970599E+02  0.37754196138E+02  0.10566000000E+00 0.  1.
         22    1    1    0    0    0 -0.30786778635E+00  0.86207245195E+01  0.28106248336E+02  0.29400218866E+02  0.00000000000E+00 0. -1.
</event>
<event>
 5    1  0.1264731E-009  0.9118800E+02  0.7815553E-02  0.1125453E+00
         25   -1    0    0    0    0  0.00000000000E+00  0.00000000000E+00  0.99999998245E-14  0.12509000000E+03  0.12509000000E+03 0.  0.
        -13    1    3    3    0    0  0.23853302710E+02  0.43736323157E+02 -0.31128103644E+01  0.49915396080E+02  0.10566000000E+00 0.  1.
         23    2    1    0    0    0  0.21324567600E+02  0.19919944544E+02  0.24870252295E+02  0.86748497380E+02  0.77815364643E+02 0.  0.
         13    1    3    3    0    0 -0.25287351102E+01 -0.23816378613E+02  0.27983062659E+02  0.36833101299E+02  0.10566000000E+00 0. -1.
         22    1    1    0    0    0 -0.21324567600E+02 -0.19919944544E+02 -0.24870252295E+02  0.38341502620E+02  0.00000000000E+00 0. -1.
</event>
<event>
 5    1  0.1264731E-009  0.9118800E+02  0.7815553E-02  0.1125453E+00
         25   -1    0    0    0    0  0.00000000000E+00  0.00000000000E+00  0.99999998245E-14  0.12509000000E+03  0.12509000000E+03 0.  0.
        -13    1    3    3    0    0 -0.75559490039E+01  0.55062391879E+02 -0.73171181771E+01  0.56058101531E+02  0.10566000000E+00 0.  1.
         23    2    1    0    0    0  0.15282954664E+02  0.23478615579E+02 -0.10518733380E+02  0.95165798344E+02  0.90338648040E+02 0.  0.
         13    1    3    3    0    0  0.22838903668E+02 -0.31583776299E+02 -0.32016152034E+01  0.39107696813E+02  0.10566000000E+00 0. -1.
         22    1    1    0    0    0 -0.15282954664E+02 -0.23478615579E+02  0.10518733380E+02  0.29924201656E+02  0.00000000000E+00 0.  1.
</event>
<event>
 5    1  0.1264731E-009  0.9118800E+02  0.7815553E-02  0.1125453E+00
         25   -1    0    0    0    0  0.00000000000E+00  0.00000000000E+00  0.99999998245E-14  0.12509000000E+03  0.12509000000E+03 0.  0.
        -13    1    3    3    0    0  0.40491727607E+02 -0.51999613166E+00 -0.13773183655E+02  0.42773381355E+02  0.10566000000E+00 0.  1.
         23    2    1    0    0    0  0.91342927058E+01  0.23162229083E+02  0.18862062163E+02  0.93853778263E+02  0.88503277600E+02 0.  0.
         13    1    3    3    0    0 -0.31357434901E+02  0.23682225215E+02  0.32635245818E+02  0.51080396908E+02  0.10566000000E+00 0. -1.
         22    1    1    0    0    0 -0.91342927058E+01 -0.23162229083E+02 -0.18862062163E+02  0.31236221737E+02  0.00000000000E+00 0. -1.
</event>
<event>
 5    1  0.1264731E-009  0.9118800E+02  0.7815553E-02  0.1125453E+00
         25   -1    0    0    0    0  0.00000000000E+00  0.00000000000E+00  0.99999998245E-14  0.12509000000E+03  0.12509000000E+03 0.  0.
        -13    1    3    3    0    0 -0.14790676986E+02  0.32629738976E+02 -0.39368592606E+02  0.53229326871E+02  0.10566000000E+00 0.  1.
         23    2    1    0    0    0  0.10410920760E+02  0.27195383118E+02 -0.60661464241E+01  0.95344844656E+02  0.90586230389E+02 0.  0.
         13    1    3    3    0    0  0.25201597746E+02 -0.54343558583E+01  0.33302446182E+02  0.42115517785E+02  0.10566000000E+00 0. -1.
         22    1    1    0    0    0 -0.10410920760E+02 -0.27195383118E+02  0.60661464241E+01  0.29745155344E+02  0.00000000000E+00 0.  1.
</event>
<event>
 5    1  0.1264731E-009  0.9118800E+02  0.7815553E-02  0.1125453E+00
         25   -1    0    0    0    0  0.00000000000E+00  0.00000000000E+00  0.99999998245E-14  0.12509000000E+03  0.12509000000E+03 0.  0.
        -13    1    3    3    0    0  0.45801979623E+02 -0.14817410262E+02 -0.17744532663E+02  0.51305522000E+02  0.10566000000E+00 0.  1.
         23    2    1    0    0    0  0.23733991006E+02  0.10761063197E+02  0.12077329119E+02  0.96367801462E+02  0.91987980028E+02 0.  0.
         13    1    3    3    0    0 -0.22067988617E+02  0.25578473458E+02  0.29821861783E+02  0.45062279461E+02  0.10566000000E+00 0. -1.
         22    1    1    0    0    0 -0.23733991006E+02 -0.10761063197E+02 -0.12077329119E+02  0.28722198538E+02  0.00000000000E+00 0.  1.
</event>
<event>
 5    1  0.1264731E-009  0.9118800E+02  0.7815553E-02  0.1125453E+00
         25   -1    0    0    0    0  0.00000000000E+00  0.00000000000E+00  0.99999998245E-14  0.12509000000E+03  0.12509000000E+03 0.  0.
        -13    1    3    3    0    0  0.37236255366E+02  0.49103307133E+01 -0.79031020702E+00  0.37567084205E+02  0.10566000000E+00 0.  1.
         23    2    1    0    0    0 -0.66619847155E+01 -0.30384639192E+02  0.15684771587E+01  0.93944077959E+02  0.88630814753E+02 0.  0.
         13    1    3    3    0    0 -0.43898240081E+02 -0.35294969906E+02  0.23587873657E+01  0.56376993754E+02  0.10566000000E+00 0. -1.
         22    1    1    0    0    0  0.66619847155E+01  0.30384639192E+02 -0.15684771587E+01  0.31145922041E+02  0.00000000000E+00 0. -1.
</event>
<event>
 5    1  0.1264731E-009  0.9118800E+02  0.7815553E-02  0.1125453E+00
         25   -1    0    0    0    0  0.00000000000E+00  0.00000000000E+00  0.99999998245E-14  0.12509000000E+03  0.12509000000E+03 0.  0.
        -13    1    3    3    0    0  0.30531323835E+02 -0.33281554221E+01 -0.16063373841E+02  0.34659508029E+02  0.10566000000E+00 0.  1.
         23    2    1    0    0    0 -0.10231842893E+02 -0.38295845673E+01  0.28207344436E+02  0.94840857746E+02  0.89887583630E+02 0.  0.
         13    1    3    3    0    0 -0.40763166728E+02 -0.50142914515E+00  0.44270718277E+02  0.60181349717E+02  0.10566000000E+00 0. -1.
         22    1    1    0    0    0  0.10231842893E+02  0.38295845673E+01 -0.28207344436E+02  0.30249142254E+02  0.00000000000E+00 0. -1.
</event>
<event>
 5    1  0.1264731E-009  0.9118800E+02  0.7815553E-02  0.1125453E+00
         25   -1    0    0    0    0  0.00000000000E+00  0.00000000000E+00  0.99999998245E-14  0.12509000000E+03  0.12509000000E+03 0.  0.
        -13    1    3    3    0    0 -0.23036459323E+02  0.11427007711E+02  0.29822203442E+02  0.39378038873E+02  0.10566000000E+00 0.  1.
         23    2    1    0    0    0  0.25567048690E+02 -0.90958230437E+01  0.58399087283E+01  0.97331892905E+02  0.93289789725E+02 0.  0.
         13    1    3    3    0    0  0.48603508013E+02 -0.20522830755E+02 -0.23982294713E+02  0.57953854031E+02  0.10566000000E+00 0. -1.
         22    1    1    0    0    0 -0.25567048690E+02  0.90958230437E+01 -0.58399087283E+01  0.27758107095E+02  0.00000000000E+00 0. -1.
</event>
<event>
 5    1  0.1264731E-009  0.9118800E+02  0.7815553E-02  0.1125453E+00
         25   -1    0    0    0    0  0.00000000000E+00  0.00000000000E+00  0.99999998245E-14  0.12509000000E+03  0.12509000000E+03 0.  0.
        -13    1    3    3    0    0  0.24370327911E+02  0.38127127617E+02  0.20600073471E+02  0.49718858936E+02  0.10566000000E+00 0.  1.
         23    2    1    0    0    0  0.29158976614E+02 -0.22334531599E+01 -0.11628976190E+01  0.95822499918E+02  0.91243437733E+02 0.  0.
         13    1    3    3    0    0  0.47886487033E+01 -0.40360580777E+02 -0.21762971090E+02  0.46103640982E+02  0.10566000000E+00 0. -1.
         22    1    1    0    0    0 -0.29158976614E+02  0.22334531599E+01  0.11628976190E+01  0.29267500082E+02  0.00000000000E+00 0. -1.
</event>
<event>
 5    1  0.1264731E-009  0.9118800E+02  0.7815553E-02  0.1125453E+00
         25   -1    0    0    0    0  0.00000000000E+00  0.00000000000E+00  0.99999998245E-14  0.12509000000E+03  0.12509000000E+03 0.  0.
        -13    1    3    3    0    0 -0.54557631813E+02  0.21572698328E+02  0.10152997107E+02  0.59539995100E+02  0.10566000000E+00 0.  1.
         23    2    1    0    0    0 -0.28562461832E+02 -0.31302741280E+01  0.21976611035E+01  0.96272599764E+02  0.91858428622E+02 0.  0.
         13    1    3    3    0    0  0.25995169980E+02 -0.24702972456E+02 -0.79553360034E+01  0.36732604664E+02  0.10566000000E+00 0. -1.
         22    1    1    0    0    0  0.28562461832E+02  0.31302741280E+01 -0.21976611035E+01  0.28817400236E+02  0.00000000000E+00 0.  1.
</event>
<event>
 5    1  0.1264731E-009  0.9118800E+02  0.7815553E-02  0.1125453E+00
         25   -1    0    0    0    0  0.00000000000E+00  0.00000000000E+00  0.99999998245E-14  0.12509000000E+03  0.12509000000E+03 0.  0.
        -13    1    3    3    0    0  0.12899832181E+02 -0.13486601866E+01  0.39971691845E+02  0.42023468058E+02  0.10566000000E+00 0.  1.
         23    2    1    0    0    0  0.20734085396E+02 -0.15322091256E+02 -0.12177269822E+02  0.96577639909E+02  0.92272887959E+02 0.  0.
         13    1    3    3    0    0  0.78342532150E+01 -0.13973431070E+02 -0.52148961667E+02  0.54554171851E+02  0.10566000000E+00 0. -1.
         22    1    1    0    0    0 -0.20734085396E+02  0.15322091256E+02  0.12177269822E+02  0.28512360091E+02  0.00000000000E+00 0.  1.
</event>
<event>
 5    1  0.1264731E-009  0.9118800E+02  0.7815553E-02  0.1125453E+00
         25   -1    0    0    0    0  0.00000000000E+00  0.00000000000E+00  0.99999998245E-14  0.12509000000E+03  0.12509000000E+03 0.  0.
        -13    1    3    3    0    0 -0.15812025108E+02 -0.30144463847E+02  0.71897355650E+01  0.34790980155E+02  0.10566000000E+00 0. -1.
         23    2    1    0    0    0  0.90380888824E+01  0.18303425488E+02 -0.20742993768E+02  0.95987178390E+02  0.91468924721E+02 0.  0.
         13    1    3    3    0    0  0.24850113990E+02  0.48447889335E+02 -0.27932729333E+02  0.61196198234E+02  0.10566000000E+00 0.  1.
         22    1    1    0    0    0 -0.90380888824E+01 -0.18303425488E+02  0.20742993768E+02  0.29102821610E+02  0.00000000000E+00 0.  1.
</event>
<event>
 5    1  0.1264731E-009  0.9118800E+02  0.7815553E-02  0.1125453E+00
         25   -1    0    0    0    0  0.00000000000E+00  0.00000000000E+00  0.99999998245E-14  0.12509000000E+03  0.12509000000E+03 0.  0.
        -13    1    3    3    0    0  0.66710235899E+01 -0.10928720876E+02  0.32951314688E+02  0.35351659076E+02  0.10566000000E+00 0.  1.
         23    2    1    0    0    0 -0.36328045149E+01  0.23045075126E+02 -0.16706742123E+02  0.96395262006E+02  0.92025314716E+02 0.  0.
         13    1    3    3    0    0 -0.10303828105E+02  0.33973796001E+02 -0.49658056811E+02  0.61043602930E+02  0.10566000000E+00 0. -1.
         22    1    1    0    0    0  0.36328045149E+01 -0.23045075126E+02  0.16706742123E+02  0.28694737994E+02  0.00000000000E+00 0. -1.
</event>
<event>
 5    1  0.1264731E-009  0.9118800E+02  0.7815553E-02  0.1125453E+00
         25   -1    0    0    0    0  0.00000000000E+00  0.00000000000E+00  0.99999998245E-14  0.12509000000E+03  0.12509000000E+03 0.  0.
        -13    1    3    3    0    0 -0.12610890577E+02 -0.59235096862E+02  0.76867828528E+00  0.60567592752E+02  0.10566000000E+00 0.  1.
         23    2    1    0    0    0 -0.86047278047E+01 -0.25606793058E+02  0.10965127005E+02  0.95935528619E+02  0.91398262838E+02 0.  0.
         13    1    3    3    0    0  0.40061627726E+01  0.33628303805E+02  0.10196448719E+02  0.35367935867E+02  0.10566000000E+00 0. -1.
         22    1    1    0    0    0  0.86047278047E+01  0.25606793058E+02 -0.10965127005E+02  0.29154471381E+02  0.00000000000E+00 0.  1.
</event>
<event>
 5    1  0.1264731E-009  0.9118800E+02  0.7815553E-02  0.1125453E+00
         25   -1    0    0    0    0  0.00000000000E+00  0.00000000000E+00  0.99999998245E-14  0.12509000000E+03  0.12509000000E+03 0.  0.
        -13    1    3    3    0    0 -0.60166298561E+02 -0.91809584363E+00 -0.35502471540E+01  0.60278037471E+02  0.10566000000E+00 0.  1.
         23    2    1    0    0    0 -0.28222353434E+02  0.97607900143E+01 -0.77964067628E+01  0.94226458183E+02  0.89028462911E+02 0.  0.
         13    1    3    3    0    0  0.31943945126E+02  0.10678885858E+02 -0.42461596088E+01  0.33948420712E+02  0.10566000000E+00 0. -1.
         22    1    1    0    0    0  0.28222353434E+02 -0.97607900143E+01  0.77964067628E+01  0.30863541817E+02  0.00000000000E+00 0.  1.
</event>
<event>
 5    1  0.1264731E-009  0.9118800E+02  0.7815553E-02  0.1125453E+00
         25   -1    0    0    0    0  0.00000000000E+00  0.00000000000E+00  0.99999998245E-14  0.12509000000E+03  0.12509000000E+03 0.  0.
        -13    1    3    3    0    0  0.33714102641E+02  0.20439996408E+02 -0.16286881782E+02  0.42658033853E+02  0.10566000000E+00 0.  1.
         23    2    1    0    0    0 -0.14646448317E+01  0.34861251405E+02  0.98962747940E+01  0.88821717868E+02  0.81079647731E+02 0.  0.
         13    1    3    3    0    0 -0.35178747473E+02  0.14421254998E+02  0.26183156576E+02  0.46163684014E+02  0.10566000000E+00 0. -1.
         22    1    1    0    0    0  0.14646448317E+01 -0.34861251405E+02 -0.98962747940E+01  0.36268282132E+02  0.00000000000E+00 0. -1.
</event>
<event>
 5    1  0.1264731E-009  0.9118800E+02  0.7815553E-02  0.1125453E+00
         25   -1    0    0    0    0  0.00000000000E+00  0.00000000000E+00  0.99999998245E-14  0.12509000000E+03  0.12509000000E+03 0.  0.
        -13    1    3    3    0    0 -0.25788020196E+01 -0.31712045253E+02 -0.11862839028E+02  0.33956474314E+02  0.10566000000E+00 0.  1.
         23    2    1    0    0    0  0.65023817956E+01  0.15099816463E+02  0.25646866644E+02  0.94626132962E+02  0.89588268454E+02 0.  0.
         13    1    3    3    0    0  0.90811838152E+01  0.46811861716E+02  0.37509705673E+02  0.60669658648E+02  0.10566000000E+00 0. -1.
         22    1    1    0    0    0 -0.65023817956E+01 -0.15099816463E+02 -0.25646866644E+02  0.30463867038E+02  0.00000000000E+00 0. -1.
</event>
<event>
 5    1  0.1264731E-009  0.9118800E+02  0.7815553E-02  0.1125453E+00
         25   -1    0    0    0    0  0.00000000000E+00  0.00000000000E+00  0.99999998245E-14  0.12509000000E+03  0.12509000000E+03 0.  0.
        -13    1    3    3    0    0  0.22802399294E+02  0.31303602170E+02  0.56079625369E+01  0.39132152129E+02  0.10566000000E+00 0.  1.
         23    2    1    0    0    0  0.86333846277E+01 -0.25657770080E+02  0.22474907939E+01  0.97925543251E+02  0.94082433591E+02 0.  0.
         13    1    3    3    0    0 -0.14169014666E+02 -0.56961372250E+02 -0.33604717430E+01  0.58793391122E+02  0.10566000000E+00 0. -1.
         22    1    1    0    0    0 -0.86333846277E+01  0.25657770080E+02 -0.22474907939E+01  0.27164456749E+02  0.00000000000E+00 0. -1.
</event>
<event>
 5    1  0.1264731E-009  0.9118800E+02  0.7815553E-02  0.1125453E+00
         25   -1    0    0    0    0  0.00000000000E+00  0.00000000000E+00  0.99999998245E-14  0.12509000000E+03  0.12509000000E+03 0.  0.
        -13    1    3    3    0    0 -0.21226398646E+02 -0.51905331848E+02  0.11430929875E+02  0.57231117372E+02  0.10566000000E+00 0.  1.
         23    2    1    0    0    0 -0.39423564389E+01 -0.32638545794E+02 -0.98830168604E+01  0.90760845218E+02  0.84018094221E+02 0.  0.
         13    1    3    3    0    0  0.17284042208E+02  0.19266786055E+02 -0.21313946736E+02  0.33529727846E+02  0.10566000000E+00 0. -1.
         22    1    1    0    0    0  0.39423564389E+01  0.32638545794E+02  0.98830168604E+01  0.34329154782E+02  0.00000000000E+00 0.  1.
</event>
<event>
 5    1  0.1264731E-009  0.9118800E+02  0.7815553E-02  0.1125453E+00
         25   -1    0    0    0    0  0.00000000000E+00  0.00000000000E+00  0.99999998245E-14  0.12509000000E+03  0.12509000000E+03 0.  0.
        -13    1    3    3    0    0  0.38316073702E+02  0.16015458769E+02 -0.24286574922E+02  0.48108890125E+02  0.10566000000E+00 0. -1.
         23    2    1    0    0    0  0.61637427239E+01 -0.19517280770E+02 -0.20409172702E+02  0.96185842800E+02  0.91740209569E+02 0.  0.
         13    1    3    3    0    0 -0.32152330978E+02 -0.35532739540E+02  0.38774022201E+01  0.48076952675E+02  0.10566000000E+00 0.  1.
         22    1    1    0    0    0 -0.61637427239E+01  0.19517280770E+02  0.20409172702E+02  0.28904157200E+02  0.00000000000E+00 0. -1.
</event>
<event>
 5    1  0.1264731E-009  0.9118800E+02  0.7815553E-02  0.1125453E+00
         25   -1    0    0    0    0  0.00000000000E+00  0.00000000000E+00  0.99999998245E-14  0.12509000000E+03  0.12509000000E+03 0.  0.
        -13    1    3    3    0    0 -0.15927014610E+02  0.36899758689E+02 -0.80285190570E+01  0.40984512538E+02  0.10566000000E+00 0.  1.
         23    2    1    0    0    0 -0.22281427446E+02 -0.17813008017E+02 -0.66034710763E+00  0.96555786818E+02  0.92243257998E+02 0.  0.
         13    1    3    3    0    0 -0.63544128359E+01 -0.54712766706E+02  0.73681719494E+01  0.55571274279E+02  0.10566000000E+00 0. -1.
         22    1    1    0    0    0  0.22281427446E+02  0.17813008017E+02  0.66034710763E+00  0.28534213182E+02  0.00000000000E+00 0. -1.
</event>
<event>
 5    1  0.1264731E-009  0.9118800E+02  0.7815553E-02  0.1125453E+00
         25   -1    0    0    0    0  0.00000000000E+00  0.00000000000E+00  0.99999998245E-14  0.12509000000E+03  0.12509000000E+03 0.  0.
        -13    1    3    3    0    0 -0.37981277191E+02 -0.25325015199E+02 -0.46757575176E+01  0.45889080229E+02  0.10566000000E+00 0. -1.
         23    2    1    0    0    0  0.16869039868E+02  0.21727671330E+01  0.33063098154E+01  0.10776322570E+03  0.10636115694E+03 0.  0.
         13    1    3    3    0    0  0.54850317059E+02  0.27497782332E+02  0.79820673330E+01  0.61874145470E+02  0.10566000000E+00 0.  1.
         22    1    1    0    0    0 -0.16869039868E+02 -0.21727671330E+01 -0.33063098154E+01  0.17326774301E+02  0.00000000000E+00 0.  1.
</event>
<event>
 5    1  0.1264731E-009  0.9118800E+02  0.7815553E-02  0.1125453E+00
         25   -1    0    0    0    0  0.00000000000E+00  0.00000000000E+00  0.99999998245E-14  0.12509000000E+03  0.12509000000E+03 0.  0.
        -13    1    3    3    0    0 -0.40372457681E+02  0.10913352042E+02 -0.40305225132E+01  0.42015388464E+02  0.10566000000E+00 0. -1.
         23    2    1    0    0    0  0.91422080386E+01  0.24372600531E+02  0.12887100815E+02  0.96043812783E+02  0.91546343357E+02 0.  0.
         13    1    3    3    0    0  0.49514665720E+02  0.13459248489E+02  0.16917623328E+02  0.54028424319E+02  0.10566000000E+00 0.  1.
         22    1    1    0    0    0 -0.91422080386E+01 -0.24372600531E+02 -0.12887100815E+02  0.29046187217E+02  0.00000000000E+00 0.  1.
</event>
<event>
 5    1  0.1264731E-009  0.9118800E+02  0.7815553E-02  0.1125453E+00
         25   -1    0    0    0    0  0.00000000000E+00  0.00000000000E+00  0.99999998245E-14  0.12509000000E+03  0.12509000000E+03 0.  0.
        -13    1    3    3    0    0  0.26874305202E+01 -0.34885662800E+02 -0.20516887939E+02  0.40560887645E+02  0.10566000000E+00 0. -1.
         23    2    1    0    0    0  0.28108108988E+02  0.89557376635E+01  0.89306982071E+00  0.95576128657E+02  0.90905048085E+02 0.  0.
         13    1    3    3    0    0  0.25420678467E+02  0.43841400463E+02  0.21409957760E+02  0.55015241012E+02  0.10566000000E+00 0.  1.
         22    1    1    0    0    0 -0.28108108988E+02 -0.89557376635E+01 -0.89306982071E+00  0.29513871343E+02  0.00000000000E+00 0.  1.
</event>
<event>
 5    1  0.1264731E-009  0.9118800E+02  0.7815553E-02  0.1125453E+00
         25   -1    0    0    0    0  0.00000000000E+00  0.00000000000E+00  0.99999998245E-14  0.12509000000E+03  0.12509000000E+03 0.  0.
        -13    1    3    3    0    0  0.18422179845E+02  0.24292997656E+02  0.16865479670E+02  0.34842244674E+02  0.10566000000E+00 0.  1.
         23    2    1    0    0    0 -0.24305138350E+02 -0.16542373243E+02  0.31047743506E+01  0.95526010308E+02  0.90836056492E+02 0.  0.
         13    1    3    3    0    0 -0.42727318195E+02 -0.40835370900E+02 -0.13760705320E+02  0.60683765634E+02  0.10566000000E+00 0. -1.
         22    1    1    0    0    0  0.24305138350E+02  0.16542373243E+02 -0.31047743506E+01  0.29563989692E+02  0.00000000000E+00 0. -1.
</event>
<event>
 5    1  0.1264731E-009  0.9118800E+02  0.7815553E-02  0.1125453E+00
         25   -1    0    0    0    0  0.00000000000E+00  0.00000000000E+00  0.99999998245E-14  0.12509000000E+03  0.12509000000E+03 0.  0.
        -13    1    3    3    0    0 -0.12201707405E+02  0.37651969705E+02  0.24270549722E+02  0.46428689773E+02  0.10566000000E+00 0.  1.
         23    2    1    0    0    0 -0.18735632014E+02  0.19425409222E+02 -0.17813128860E+02  0.92753055337E+02  0.86933602733E+02 0.  0.
         13    1    3    3    0    0 -0.65339246089E+01 -0.18226560483E+02 -0.42083678582E+02  0.46324365563E+02  0.10566000000E+00 0. -1.
         22    1    1    0    0    0  0.18735632014E+02 -0.19425409222E+02  0.17813128860E+02  0.32336944663E+02  0.00000000000E+00 0. -1.
</event>
<event>
 5    1  0.1264731E-009  0.9118800E+02  0.7815553E-02  0.1125453E+00
         25   -1    0    0    0    0  0.00000000000E+00  0.00000000000E+00  0.99999998245E-14  0.12509000000E+03  0.12509000000E+03 0.  0.
        -13    1    3    3    0    0  0.71592888969E+01  0.29433452394E+02  0.36274356712E+02  0.47259111886E+02  0.10566000000E+00 0.  1.
         23    2    1    0    0    0  0.20418500452E+02 -0.13090362080E+02  0.14393315996E+02  0.96886449063E+02  0.92690580571E+02 0.  0.
         13    1    3    3    0    0  0.13259211555E+02 -0.42523814474E+02 -0.21881040715E+02  0.49627337177E+02  0.10566000000E+00 0. -1.
         22    1    1    0    0    0 -0.20418500452E+02  0.13090362080E+02 -0.14393315996E+02  0.28203550937E+02  0.00000000000E+00 0.  1.
</event>
<event>
 5    1  0.1264731E-009  0.9118800E+02  0.7815553E-02  0.1125453E+00
         25   -1    0    0    0    0  0.00000000000E+00  0.00000000000E+00  0.99999998245E-14  0.12509000000E+03  0.12509000000E+03 0.  0.
        -13    1    3    3    0    0 -0.33455184004E+01  0.25371246769E+02  0.26935054185E+02  0.37153747644E+02  0.10566000000E+00 0.  1.
         23    2    1    0    0    0 -0.14181547742E+02  0.34040838284E+01 -0.25886193261E+02  0.95378064946E+02  0.90632092485E+02 0.  0.
         13    1    3    3    0    0 -0.10836029342E+02 -0.21967162940E+02 -0.52821247447E+02  0.58224317303E+02  0.10566000000E+00 0. -1.
         22    1    1    0    0    0  0.14181547742E+02 -0.34040838284E+01  0.25886193261E+02  0.29711935054E+02  0.00000000000E+00 0. -1.
</event>
<event>
 5    1  0.1264731E-009  0.9118800E+02  0.7815553E-02  0.1125453E+00
         25   -1    0    0    0    0  0.00000000000E+00  0.00000000000E+00  0.99999998245E-14  0.12509000000E+03  0.12509000000E+03 0.  0.
        -13    1    3    3    0    0 -0.72982499085E+01  0.11548477437E+01 -0.31163215475E+02  0.32027414629E+02  0.10566000000E+00 0. -1.
         23    2    1    0    0    0  0.20081668044E+02 -0.81283513526E+01  0.23043299685E+02  0.93461893078E+02  0.87947645279E+02 0.  0.
         13    1    3    3    0    0  0.27379917952E+02 -0.92831990962E+01  0.54206515159E+02  0.61434478449E+02  0.10566000000E+00 0.  1.
         22    1    1    0    0    0 -0.20081668044E+02  0.81283513526E+01 -0.23043299685E+02  0.31628106922E+02  0.00000000000E+00 0.  1.
</event>
<event>
 5    1  0.1264731E-009  0.9118800E+02  0.7815553E-02  0.1125453E+00
         25   -1    0    0    0    0  0.00000000000E+00  0.00000000000E+00  0.99999998245E-14  0.12509000000E+03  0.12509000000E+03 0.  0.
        -13    1    3    3    0    0  0.14499502258E+02 -0.43887394464E+02 -0.42025458425E+02  0.62469906983E+02  0.10566000000E+00 0. -1.
         23    2    1    0    0    0  0.46933287727E+01 -0.21015905117E+02 -0.19057234623E+02  0.96334586695E+02  0.91942801782E+02 0.  0.
         13    1    3    3    0    0 -0.98061734849E+01  0.22871489347E+02  0.22968223803E+02  0.33864679713E+02  0.10566000000E+00 0.  1.
         22    1    1    0    0    0 -0.46933287727E+01  0.21015905117E+02  0.19057234623E+02  0.28755413305E+02  0.00000000000E+00 0. -1.
</event>
<event>
 5    1  0.1264731E-009  0.9118800E+02  0.7815553E-02  0.1125453E+00
         25   -1    0    0    0    0  0.00000000000E+00  0.00000000000E+00  0.99999998245E-14  0.12509000000E+03  0.12509000000E+03 0.  0.
        -13    1    3    3    0    0 -0.27080253050E+02 -0.27975950981E+02 -0.35522635596E+02  0.52705433707E+02  0.10566000000E+00 0.  1.
         23    2    1    0    0    0  0.22941546234E+00  0.46379629438E+01 -0.28975810786E+02  0.95744456174E+02  0.91136381021E+02 0.  0.
         13    1    3    3    0    0  0.27309668512E+02  0.32613913925E+02  0.65468248098E+01  0.43039022467E+02  0.10566000000E+00 0. -1.
         22    1    1    0    0    0 -0.22941546234E+00 -0.46379629438E+01  0.28975810786E+02  0.29345543826E+02  0.00000000000E+00 0. -1.
</event>
<event>
 5    1  0.1264731E-009  0.9118800E+02  0.7815553E-02  0.1125453E+00
         25   -1    0    0    0    0  0.00000000000E+00  0.00000000000E+00  0.99999998245E-14  0.12509000000E+03  0.12509000000E+03 0.  0.
        -13    1    3    3    0    0 -0.76212660380E+01 -0.23239786168E+02 -0.49166144326E+02  0.54913498059E+02  0.10566000000E+00 0. -1.
         23    2    1    0    0    0  0.10928274274E+00 -0.29462595504E+02 -0.12178617413E+02  0.93209360128E+02  0.87587725264E+02 0.  0.
         13    1    3    3    0    0  0.77305487807E+01 -0.62228093361E+01  0.36987526913E+02  0.38295862070E+02  0.10566000000E+00 0.  1.
         22    1    1    0    0    0 -0.10928274274E+00  0.29462595504E+02  0.12178617413E+02  0.31880639872E+02  0.00000000000E+00 0. -1.
</event>
<event>
 5    1  0.1264731E-009  0.9118800E+02  0.7815553E-02  0.1125453E+00
         25   -1    0    0    0    0  0.00000000000E+00  0.00000000000E+00  0.99999998245E-14  0.12509000000E+03  0.12509000000E+03 0.  0.
        -13    1    3    3    0    0 -0.11177021487E+02 -0.25646613094E+02  0.21876888016E+02  0.35514559913E+02  0.10566000000E+00 0.  1.
         23    2    1    0    0    0 -0.20698917510E+02  0.12315727054E+02 -0.20688611084E+02  0.93338764630E+02  0.87772342085E+02 0.  0.
         13    1    3    3    0    0 -0.95218960231E+01  0.37962340148E+02 -0.42565499101E+02  0.57824204717E+02  0.10566000000E+00 0. -1.
         22    1    1    0    0    0  0.20698917510E+02 -0.12315727054E+02  0.20688611084E+02  0.31751235370E+02  0.00000000000E+00 0. -1.
</event>
<event>
 5    1  0.1264731E-009  0.9118800E+02  0.7815553E-02  0.1125453E+00
         25   -1    0    0    0    0  0.00000000000E+00  0.00000000000E+00  0.99999998245E-14  0.12509000000E+03  0.12509000000E+03 0.  0.
        -13    1    3    3    0    0  0.18985035949E+02 -0.31943884114E+02 -0.10141863723E+02  0.38518980855E+02  0.10566000000E+00 0. -1.
         23    2    1    0    0    0 -0.12841601568E+01 -0.12985208369E+02  0.32879527507E+02  0.89715884707E+02  0.82447631477E+02 0.  0.
         13    1    3    3    0    0 -0.20269196106E+02  0.18958675745E+02  0.43021391229E+02  0.51196903853E+02  0.10566000000E+00 0.  1.
         22    1    1    0    0    0  0.12841601568E+01  0.12985208369E+02 -0.32879527507E+02  0.35374115293E+02  0.00000000000E+00 0.  1.
</event>
<event>
 5    1  0.1264731E-009  0.9118800E+02  0.7815553E-02  0.1125453E+00
         25   -1    0    0    0    0  0.00000000000E+00  0.00000000000E+00  0.99999998245E-14  0.12509000000E+03  0.12509000000E+03 0.  0.
        -13    1    3    3    0    0  0.33954459053E+02  0.48709627468E+02  0.17354111418E+02  0.61860402883E+02  0.10566000000E+00 0. -1.
         23    2    1    0    0    0  0.12442412156E+02  0.26782328172E+02  0.42590795077E+01  0.95253001477E+02  0.90459315770E+02 0.  0.
         13    1    3    3    0    0 -0.21512046897E+02 -0.21927299296E+02 -0.13095031911E+02  0.33392598594E+02  0.10566000000E+00 0.  1.
         22    1    1    0    0    0 -0.12442412156E+02 -0.26782328172E+02 -0.42590795077E+01  0.29836998523E+02  0.00000000000E+00 0. -1.
</event>
<event>
 5    1  0.1264731E-009  0.9118800E+02  0.7815553E-02  0.1125453E+00
         25   -1    0    0    0    0  0.00000000000E+00  0.00000000000E+00  0.99999998245E-14  0.12509000000E+03  0.12509000000E+03 0.  0.
        -13    1    3    3    0    0  0.29668856664E+02 -0.43339466630E+02  0.16649736478E+02  0.55097870307E+02  0.10566000000E+00 0. -1.
         23    2    1    0    0    0  0.24666683113E+01 -0.14732612944E+02  0.25484768138E+02  0.95550065271E+02  0.90869176455E+02 0.  0.
         13    1    3    3    0    0 -0.27202188352E+02  0.28606853686E+02  0.88350316603E+01  0.40452194965E+02  0.10566000000E+00 0.  1.
         22    1    1    0    0    0 -0.24666683113E+01  0.14732612944E+02 -0.25484768138E+02  0.29539934729E+02  0.00000000000E+00 0. -1.
</event>
<event>
 4    1  0.1264731E-009  0.9118800E+02  0.7815553E-02  0.1125453E+00
         25   -1    0    0    0    0  0.00000000000E+00  0.00000000000E+00  0.99999998245E-14  0.12509000000E+03  0.12509000000E+03 0.  0.
        -13    1    1    0    0    0 -0.61007051135E+01  0.96069935219E+01 -0.23823790935E+01  0.11627545811E+02  0.10566000000E+00 0.  1.
         13    1    1    0    0    0  0.17390157654E+02 -0.14748887723E+02  0.54927622711E+02  0.59472701074E+02  0.10566000000E+00 0. -1.
         22    1    1    0    0    0 -0.11289452540E+02  0.51418942013E+01 -0.52545243617E+02  0.53989753115E+02  0.00000000000E+00 0. -1.
</event>
<event>
 5    1  0.1264731E-009  0.9118800E+02  0.7815553E-02  0.1125453E+00
         25   -1    0    0    0    0  0.00000000000E+00  0.00000000000E+00  0.99999998245E-14  0.12509000000E+03  0.12509000000E+03 0.  0.
        -13    1    3    3    0    0  0.24329748668E+01  0.16978332285E+02 -0.39143841657E+02  0.42736806591E+02  0.10566000000E+00 0. -1.
         23    2    1    0    0    0  0.22210460147E+02  0.17858845393E+02  0.93334306996E+01  0.95100738133E+02  0.90248515589E+02 0.  0.
         13    1    3    3    0    0  0.19777485280E+02  0.88051310836E+00  0.48477272357E+02  0.52363931542E+02  0.10566000000E+00 0.  1.
         22    1    1    0    0    0 -0.22210460147E+02 -0.17858845393E+02 -0.93334306996E+01  0.29989261867E+02  0.00000000000E+00 0.  1.
</event>
<event>
 5    1  0.1264731E-009  0.9118800E+02  0.7815553E-02  0.1125453E+00
         25   -1    0    0    0    0  0.00000000000E+00  0.00000000000E+00  0.99999998245E-14  0.12509000000E+03  0.12509000000E+03 0.  0.
        -13    1    3    3    0    0  0.17523438708E+02 -0.39661569850E+02 -0.20817720472E+02  0.48098853176E+02  0.10566000000E+00 0. -1.
         23    2    1    0    0    0 -0.91682932570E+01 -0.22818456566E+02  0.15349610376E+02  0.96101207338E+02  0.91624734389E+02 0.  0.
         13    1    3    3    0    0 -0.26691731965E+02  0.16843113284E+02  0.36167330849E+02  0.48002354162E+02  0.10566000000E+00 0.  1.
         22    1    1    0    0    0  0.91682932570E+01  0.22818456566E+02 -0.15349610376E+02  0.28988792662E+02  0.00000000000E+00 0. -1.
</event>
<event>
 5    1  0.1264731E-009  0.9118800E+02  0.7815553E-02  0.1125453E+00
         25   -1    0    0    0    0  0.00000000000E+00  0.00000000000E+00  0.99999998245E-14  0.12509000000E+03  0.12509000000E+03 0.  0.
        -13    1    3    3    0    0  0.12836231717E+02  0.42539404954E+02 -0.35452308804E+02  0.56844060218E+02  0.10566000000E+00 0.  1.
         23    2    1    0    0    0  0.18671360338E+02  0.30278801949E+02 -0.63547521748E+01  0.88954028731E+02  0.81283521134E+02 0.  0.
         13    1    3    3    0    0  0.58351286215E+01 -0.12260603006E+02  0.29097556629E+02  0.32109968513E+02  0.10566000000E+00 0. -1.
         22    1    1    0    0    0 -0.18671360338E+02 -0.30278801949E+02  0.63547521748E+01  0.36135971269E+02  0.00000000000E+00 0.  1.
</event>
<event>
 5    1  0.1264731E-009  0.9118800E+02  0.7815553E-02  0.1125453E+00
         25   -1    0    0    0    0  0.00000000000E+00  0.00000000000E+00  0.99999998245E-14  0.12509000000E+03  0.12509000000E+03 0.  0.
        -13    1    3    3    0    0 -0.26293041193E+02  0.26409535527E+02 -0.58572648755E+01  0.37724081140E+02  0.10566000000E+00 0. -1.
         23    2    1    0    0    0  0.24690393614E+02  0.14987509415E+01 -0.16362290823E+02  0.95432178904E+02  0.90706749574E+02 0.  0.
         13    1    3    3    0    0  0.50983434807E+02 -0.24910784586E+02 -0.10505025948E+02  0.57708097764E+02  0.10566000000E+00 0.  1.
         22    1    1    0    0    0 -0.24690393614E+02 -0.14987509415E+01  0.16362290823E+02  0.29657821096E+02  0.00000000000E+00 0. -1.
</event>
<event>
 5    1  0.1264731E-009  0.9118800E+02  0.7815553E-02  0.1125453E+00
         25   -1    0    0    0    0  0.00000000000E+00  0.00000000000E+00  0.99999998245E-14  0.12509000000E+03  0.12509000000E+03 0.  0.
        -13    1    3    3    0    0 -0.29922497916E+02  0.15200332468E+02  0.11342936240E+02  0.35427099165E+02  0.10566000000E+00 0.  1.
         23    2    1    0    0    0  0.28630252174E+02  0.79044802447E+01  0.72953690700E+00  0.95379658845E+02  0.90634292350E+02 0.  0.
         13    1    3    3    0    0  0.58552750090E+02 -0.72958522234E+01 -0.10613399333E+02  0.59952559680E+02  0.10566000000E+00 0. -1.
         22    1    1    0    0    0 -0.28630252174E+02 -0.79044802447E+01 -0.72953690700E+00  0.29710341155E+02  0.00000000000E+00 0. -1.
</event>
<event>
 5    1  0.1264731E-009  0.9118800E+02  0.7815553E-02  0.1125453E+00
         25   -1    0    0    0    0  0.00000000000E+00  0.00000000000E+00  0.99999998245E-14  0.12509000000E+03  0.12509000000E+03 0.  0.
        -13    1    3    3    0    0  0.19902898529E+01  0.51259570100E+02 -0.89256944756E+01  0.52069030781E+02  0.10566000000E+00 0. -1.
         23    2    1    0    0    0  0.18744896822E+02  0.13222640157E+02 -0.19528875082E+02  0.94963826470E+02  0.90058547658E+02 0.  0.
         13    1    3    3    0    0  0.16754606969E+02 -0.38036929943E+02 -0.10603180607E+02  0.42894795689E+02  0.10566000000E+00 0.  1.
         22    1    1    0    0    0 -0.18744896822E+02 -0.13222640157E+02  0.19528875082E+02  0.30126173530E+02  0.00000000000E+00 0. -1.
</event>
<event>
 5    1  0.1264731E-009  0.9118800E+02  0.7815553E-02  0.1125453E+00
         25   -1    0    0    0    0  0.00000000000E+00  0.00000000000E+00  0.99999998245E-14  0.12509000000E+03  0.12509000000E+03 0.  0.
        -13    1    3    3    0    0  0.19024023095E+02  0.19347319201E+02  0.36577733595E+02  0.45543100180E+02  0.10566000000E+00 0.  1.
         23    2    1    0    0    0  0.28633940466E+02  0.67478604446E+01 -0.94251373603E+01  0.94198749112E+02  0.88989521590E+02 0.  0.
         13    1    3    3    0    0  0.96099173711E+01 -0.12599458756E+02 -0.46002870956E+02  0.48655648932E+02  0.10566000000E+00 0. -1.
         22    1    1    0    0    0 -0.28633940466E+02 -0.67478604446E+01  0.94251373603E+01  0.30891250888E+02  0.00000000000E+00 0.  1.
</event>
<event>
 5    1  0.1264731E-009  0.9118800E+02  0.7815553E-02  0.1125453E+00
         25   -1    0    0    0    0  0.00000000000E+00  0.00000000000E+00  0.99999998245E-14  0.12509000000E+03  0.12509000000E+03 0.  0.
        -13    1    3    3    0    0  0.24939732706E+02  0.13284230027E+02  0.13271970705E+02  0.31218862973E+02  0.10566000000E+00 0.  1.
         23    2    1    0    0    0 -0.16753673402E+02 -0.26505066433E+02 -0.81298357107E+01  0.92697125046E+02  0.86853086555E+02 0.  0.
         13    1    3    3    0    0 -0.41693406108E+02 -0.39789296460E+02 -0.21401806416E+02  0.61478262074E+02  0.10566000000E+00 0. -1.
         22    1    1    0    0    0  0.16753673402E+02  0.26505066433E+02  0.81298357107E+01  0.32392874954E+02  0.00000000000E+00 0. -1.
</event>
<event>
 5    1  0.1264731E-009  0.9118800E+02  0.7815553E-02  0.1125453E+00
         25   -1    0    0    0    0  0.00000000000E+00  0.00000000000E+00  0.99999998245E-14  0.12509000000E+03  0.12509000000E+03 0.  0.
        -13    1    3    3    0    0  0.32027420982E+02  0.22968278896E+02 -0.30337451277E+02  0.49735999480E+02  0.10566000000E+00 0.  1.
         23    2    1    0    0    0 -0.15734381710E+01  0.64914516778E+01 -0.36778664653E+02  0.87709726777E+02  0.79345518746E+02 0.  0.
         13    1    3    3    0    0 -0.33600859153E+02 -0.16476827219E+02 -0.64412133765E+01  0.37973727297E+02  0.10566000000E+00 0. -1.
         22    1    1    0    0    0  0.15734381710E+01 -0.64914516778E+01  0.36778664653E+02  0.37380273223E+02  0.00000000000E+00 0.  1.
</event>
<event>
 5    1  0.1264731E-009  0.9118800E+02  0.7815553E-02  0.1125453E+00
         25   -1    0    0    0    0  0.00000000000E+00  0.00000000000E+00  0.99999998245E-14  0.12509000000E+03  0.12509000000E+03 0.  0.
        -13    1    3    3    0    0 -0.19210999480E+02 -0.47807098213E+01  0.27449490606E+02  0.33843808681E+02  0.10566000000E+00 0. -1.
         23    2    1    0    0    0  0.11097470567E+01 -0.45299233443E+01 -0.29972932600E+02  0.94756381148E+02  0.89769946728E+02 0.  0.
         13    1    3    3    0    0  0.20320746537E+02  0.25078647699E+00 -0.57422423206E+02  0.60912572467E+02  0.10566000000E+00 0.  1.
         22    1    1    0    0    0 -0.11097470567E+01  0.45299233443E+01  0.29972932600E+02  0.30333618852E+02  0.00000000000E+00 0.  1.
</event>
<event>
 5    1  0.1264731E-009  0.9118800E+02  0.7815553E-02  0.1125453E+00
         25   -1    0    0    0    0  0.00000000000E+00  0.00000000000E+00  0.99999998245E-14  0.12509000000E+03  0.12509000000E+03 0.  0.
        -13    1    3    3    0    0  0.13073615882E+02 -0.33411612499E+02 -0.49981262799E+02  0.61525548166E+02  0.10566000000E+00 0.  1.
         23    2    1    0    0    0 -0.16485431894E+01 -0.17068953096E+02 -0.24456589839E+02  0.95220422818E+02  0.90414253747E+02 0.  0.
         13    1    3    3    0    0 -0.14722159072E+02  0.16342659403E+02  0.25524672960E+02  0.33694874653E+02  0.10566000000E+00 0. -1.
         22    1    1    0    0    0  0.16485431894E+01  0.17068953096E+02  0.24456589839E+02  0.29869577182E+02  0.00000000000E+00 0.  1.
</event>
<event>
 5    1  0.1264731E-009  0.9118800E+02  0.7815553E-02  0.1125453E+00
         25   -1    0    0    0    0  0.00000000000E+00  0.00000000000E+00  0.99999998245E-14  0.12509000000E+03  0.12509000000E+03 0.  0.
        -13    1    3    3    0    0  0.69435670057E+01 -0.38647646638E+02 -0.98066807453E+01  0.40472655765E+02  0.10566000000E+00 0.  1.
         23    2    1    0    0    0  0.34045227192E+01  0.11141922306E+01  0.28836441905E+02  0.96031910231E+02  0.91530078125E+02 0.  0.
         13    1    3    3    0    0 -0.35390442865E+01  0.39761838868E+02  0.38643122650E+02  0.55559254466E+02  0.10566000000E+00 0. -1.
         22    1    1    0    0    0 -0.34045227192E+01 -0.11141922306E+01 -0.28836441905E+02  0.29058089769E+02  0.00000000000E+00 0. -1.
</event>
<event>
 5    1  0.1264731E-009  0.9118800E+02  0.7815553E-02  0.1125453E+00
         25   -1    0    0    0    0  0.00000000000E+00  0.00000000000E+00  0.99999998245E-14  0.12509000000E+03  0.12509000000E+03 0.  0.
        -13    1    3    3    0    0 -0.46348928579E+02  0.38236704506E+02  0.11941513835E+02  0.61260751454E+02  0.10566000000E+00 0.  1.
         23    2    1    0    0    0 -0.25510572866E+02  0.10505050356E+02  0.89844606544E+01  0.96075073769E+02  0.91589048776E+02 0.  0.
         13    1    3    3    0    0  0.20838355714E+02 -0.27731654150E+02 -0.29570531803E+01  0.34814322316E+02  0.10566000000E+00 0. -1.
         22    1    1    0    0    0  0.25510572866E+02 -0.10505050356E+02 -0.89844606544E+01  0.29014926231E+02  0.00000000000E+00 0.  1.
</event>
<event>
 5    1  0.1264731E-009  0.9118800E+02  0.7815553E-02  0.1125453E+00
         25   -1    0    0    0    0  0.00000000000E+00  0.00000000000E+00  0.99999998245E-14  0.12509000000E+03  0.12509000000E+03 0.  0.
        -13    1    3    3    0    0 -0.14418450073E+02  0.28541276605E+02 -0.17081150276E+02  0.36252903767E+02  0.10566000000E+00 0.  1.
         23    2    1    0    0    0  0.11657035315E+02  0.30930292913E+02  0.23489415323E+02  0.84539758025E+02  0.74179839329E+02 0.  0.
         13    1    3    3    0    0  0.26075485388E+02  0.23890163071E+01  0.40570565598E+02  0.48286854258E+02  0.10566000000E+00 0. -1.
         22    1    1    0    0    0 -0.11657035315E+02 -0.30930292913E+02 -0.23489415323E+02  0.40550241975E+02  0.00000000000E+00 0. -1.
</event>
<event>
 5    1  0.1264731E-009  0.9118800E+02  0.7815553E-02  0.1125453E+00
         25   -1    0    0    0    0  0.00000000000E+00  0.00000000000E+00  0.99999998245E-14  0.12509000000E+03  0.12509000000E+03 0.  0.
        -13    1    3    3    0    0 -0.31162885372E+01 -0.58366294635E+01 -0.40096757886E+02  0.40639127141E+02  0.10566000000E+00 0. -1.
         23    2    1    0    0    0 -0.13670595576E+02  0.25640940401E+02  0.39161836112E+01  0.95769708355E+02  0.91171034524E+02 0.  0.
         13    1    3    3    0    0 -0.10554307039E+02  0.31477569865E+02  0.44012941498E+02  0.55130581214E+02  0.10566000000E+00 0.  1.
         22    1    1    0    0    0  0.13670595576E+02 -0.25640940401E+02 -0.39161836112E+01  0.29320291645E+02  0.00000000000E+00 0.  1.
</event>
<event>
 5    1  0.1264731E-009  0.9118800E+02  0.7815553E-02  0.1125453E+00
         25   -1    0    0    0    0  0.00000000000E+00  0.00000000000E+00  0.99999998245E-14  0.12509000000E+03  0.12509000000E+03 0.  0.
        -13    1    3    3    0    0  0.19190119964E+02  0.48108575217E+02 -0.26448289169E+02  0.58156847212E+02  0.10566000000E+00 0. -1.
         23    2    1    0    0    0 -0.60623537156E+01  0.20036924803E+02 -0.19362164221E+02  0.96574672693E+02  0.92268865357E+02 0.  0.
         13    1    3    3    0    0 -0.25252473680E+02 -0.28071650414E+02  0.70861249484E+01  0.38417825481E+02  0.10566000000E+00 0.  1.
         22    1    1    0    0    0  0.60623537156E+01 -0.20036924803E+02  0.19362164221E+02  0.28515327307E+02  0.00000000000E+00 0. -1.
</event>
<event>
 5    1  0.1264731E-009  0.9118800E+02  0.7815553E-02  0.1125453E+00
         25   -1    0    0    0    0  0.00000000000E+00  0.00000000000E+00  0.99999998245E-14  0.12509000000E+03  0.12509000000E+03 0.  0.
        -13    1    3    3    0    0  0.37082270583E+02 -0.24275050472E+02 -0.37259566342E+02  0.57902152939E+02  0.10566000000E+00 0.  1.
         23    2    1    0    0    0  0.58879868161E+01 -0.79455981978E+01 -0.29526485707E+02  0.93951370010E+02  0.88641105866E+02 0.  0.
         13    1    3    3    0    0 -0.31194283767E+02  0.16329452274E+02  0.77330806352E+01  0.36049217071E+02  0.10566000000E+00 0. -1.
         22    1    1    0    0    0 -0.58879868161E+01  0.79455981978E+01  0.29526485707E+02  0.31138629990E+02  0.00000000000E+00 0.  1.
</event>
<event>
 5    1  0.1264731E-009  0.9118800E+02  0.7815553E-02  0.1125453E+00
         25   -1    0    0    0    0  0.00000000000E+00  0.00000000000E+00  0.99999998245E-14  0.12509000000E+03  0.12509000000E+03 0.  0.
        -13    1    3    3    0    0 -0.30917545288E+02 -0.21540972118E+02 -0.29958312412E+02  0.48139585925E+02  0.10566000000E+00 0. -1.
         23    2    1    0    0    0  0.26778123286E+01 -0.24639889915E+02  0.81149548988E+01  0.99010365284E+02  0.95513899967E+02 0.  0.
         13    1    3    3    0    0  0.33595357617E+02 -0.30989177973E+01  0.38073267310E+02  0.50870779360E+02  0.10566000000E+00 0.  1.
         22    1    1    0    0    0 -0.26778123286E+01  0.24639889915E+02 -0.81149548988E+01  0.26079634716E+02  0.00000000000E+00 0.  1.
</event>
<event>
 5    1  0.1264731E-009  0.9118800E+02  0.7815553E-02  0.1125453E+00
         25   -1    0    0    0    0  0.00000000000E+00  0.00000000000E+00  0.99999998245E-14  0.12509000000E+03  0.12509000000E+03 0.  0.
        -13    1    3    3    0    0 -0.34190025161E+02  0.12754046735E+02  0.14687875466E+02  0.39336603544E+02  0.10566000000E+00 0.  1.
         23    2    1    0    0    0  0.32334446430E+01 -0.26173732681E+02 -0.74312535381E+01  0.97690310661E+02  0.93769151757E+02 0.  0.
         13    1    3    3    0    0  0.37423469804E+02 -0.38927779416E+02 -0.22119129004E+02  0.58353707117E+02  0.10566000000E+00 0. -1.
         22    1    1    0    0    0 -0.32334446430E+01  0.26173732681E+02  0.74312535381E+01  0.27399689339E+02  0.00000000000E+00 0. -1.
</event>
<event>
 5    1  0.1264731E-009  0.9118800E+02  0.7815553E-02  0.1125453E+00
         25   -1    0    0    0    0  0.00000000000E+00  0.00000000000E+00  0.99999998245E-14  0.12509000000E+03  0.12509000000E+03 0.  0.
        -13    1    3    3    0    0  0.25997748312E+02 -0.24620646631E+02  0.97012826391E+01  0.37096970317E+02  0.10566000000E+00 0. -1.
         23    2    1    0    0    0 -0.23897293596E+02 -0.97935635665E+01 -0.15543216119E+02  0.94947238085E+02  0.90035503686E+02 0.  0.
         13    1    3    3    0    0 -0.49895041908E+02  0.14827083065E+02 -0.25244498758E+02  0.57850267768E+02  0.10566000000E+00 0.  1.
         22    1    1    0    0    0  0.23897293596E+02  0.97935635665E+01  0.15543216119E+02  0.30142761915E+02  0.00000000000E+00 0.  1.
</event>
<event>
 5    1  0.1264731E-009  0.9118800E+02  0.7815553E-02  0.1125453E+00
         25   -1    0    0    0    0  0.00000000000E+00  0.00000000000E+00  0.99999998245E-14  0.12509000000E+03  0.12509000000E+03 0.  0.
        -13    1    3    3    0    0  0.77830002503E+01 -0.23061567839E+02 -0.46362726995E+02  0.52363390098E+02  0.10566000000E+00 0. -1.
         23    2    1    0    0    0  0.26672889807E+02 -0.10018298325E+02 -0.10949091343E+02  0.94566370576E+02  0.89504784737E+02 0.  0.
         13    1    3    3    0    0  0.18889889556E+02  0.13043269514E+02  0.35413635653E+02  0.42202980478E+02  0.10566000000E+00 0.  1.
         22    1    1    0    0    0 -0.26672889807E+02  0.10018298325E+02  0.10949091343E+02  0.30523629424E+02  0.00000000000E+00 0.  1.
</event>
<event>
 5    1  0.1264731E-009  0.9118800E+02  0.7815553E-02  0.1125453E+00
         25   -1    0    0    0    0  0.00000000000E+00  0.00000000000E+00  0.99999998245E-14  0.12509000000E+03  0.12509000000E+03 0.  0.
        -13    1    3    3    0    0 -0.33014365283E+02  0.23717238464E+02 -0.34176938879E+02  0.53108662481E+02  0.10566000000E+00 0.  1.
         23    2    1    0    0    0 -0.12169599249E+02 -0.12288650823E+02 -0.23229349008E+02  0.96129462362E+02  0.91663301237E+02 0.  0.
         13    1    3    3    0    0  0.20844766034E+02 -0.36005889287E+02  0.10947589871E+02  0.43020799881E+02  0.10566000000E+00 0. -1.
         22    1    1    0    0    0  0.12169599249E+02  0.12288650823E+02  0.23229349008E+02  0.28960537638E+02  0.00000000000E+00 0.  1.
</event>
<event>
 5    1  0.1264731E-009  0.9118800E+02  0.7815553E-02  0.1125453E+00
         25   -1    0    0    0    0  0.00000000000E+00  0.00000000000E+00  0.99999998245E-14  0.12509000000E+03  0.12509000000E+03 0.  0.
        -13    1    3    3    0    0 -0.91762124315E+01 -0.32418685028E+02 -0.85050850135E+01  0.34749412206E+02  0.10566000000E+00 0.  1.
         23    2    1    0    0    0  0.13908688534E+02  0.24691716346E+02 -0.27287772912E+01  0.96619336180E+02  0.92329396324E+02 0.  0.
         13    1    3    3    0    0  0.23084900966E+02  0.57110401374E+02  0.57763077223E+01  0.61869923974E+02  0.10566000000E+00 0. -1.
         22    1    1    0    0    0 -0.13908688534E+02 -0.24691716346E+02  0.27287772912E+01  0.28470663820E+02  0.00000000000E+00 0. -1.
</event>
<event>
 5    1  0.1264731E-009  0.9118800E+02  0.7815553E-02  0.1125453E+00
         25   -1    0    0    0    0  0.00000000000E+00  0.00000000000E+00  0.99999998245E-14  0.12509000000E+03  0.12509000000E+03 0.  0.
        -13    1    3    3    0    0  0.21653174522E+02 -0.40910995417E+02 -0.35890052158E+02  0.58571977266E+02  0.10566000000E+00 0.  1.
         23    2    1    0    0    0  0.20256000906E+02 -0.72598983174E+01 -0.19595395267E+02  0.95986886559E+02  0.91468525622E+02 0.  0.
         13    1    3    3    0    0 -0.13971736157E+01  0.33651097100E+02  0.16294656892E+02  0.37414909293E+02  0.10566000000E+00 0. -1.
         22    1    1    0    0    0 -0.20256000906E+02  0.72598983174E+01  0.19595395267E+02  0.29103113441E+02  0.00000000000E+00 0.  1.
</event>
<event>
 5    1  0.1264731E-009  0.9118800E+02  0.7815553E-02  0.1125453E+00
         25   -1    0    0    0    0  0.00000000000E+00  0.00000000000E+00  0.99999998245E-14  0.12509000000E+03  0.12509000000E+03 0.  0.
        -13    1    3    3    0    0 -0.44984962768E+01 -0.32103913500E+02  0.22949914741E+02  0.39719107259E+02  0.10566000000E+00 0. -1.
         23    2    1    0    0    0  0.15323651479E+02 -0.18233720468E+02 -0.23209233741E+02  0.91834152581E+02  0.85601169342E+02 0.  0.
         13    1    3    3    0    0  0.19822147756E+02  0.13870193033E+02 -0.46159148481E+02  0.52115045322E+02  0.10566000000E+00 0.  1.
         22    1    1    0    0    0 -0.15323651479E+02  0.18233720468E+02  0.23209233741E+02  0.33255847419E+02  0.00000000000E+00 0. -1.
</event>
<event>
 5    1  0.1264731E-009  0.9118800E+02  0.7815553E-02  0.1125453E+00
         25   -1    0    0    0    0  0.00000000000E+00  0.00000000000E+00  0.99999998245E-14  0.12509000000E+03  0.12509000000E+03 0.  0.
        -13    1    3    3    0    0 -0.86337110635E+01 -0.63700357907E+01  0.30932620029E+02  0.32740746305E+02  0.10566000000E+00 0.  1.
         23    2    1    0    0    0  0.41801417039E+01  0.63113257978E+01 -0.28891956981E+02  0.95222767182E+02  0.90417497166E+02 0.  0.
         13    1    3    3    0    0  0.12813852767E+02  0.12681361589E+02 -0.59824577010E+02  0.62482020878E+02  0.10566000000E+00 0. -1.
         22    1    1    0    0    0 -0.41801417039E+01 -0.63113257978E+01  0.28891956981E+02  0.29867232818E+02  0.00000000000E+00 0. -1.
</event>
<event>
 5    1  0.1264731E-009  0.9118800E+02  0.7815553E-02  0.1125453E+00
         25   -1    0    0    0    0  0.00000000000E+00  0.00000000000E+00  0.99999998245E-14  0.12509000000E+03  0.12509000000E+03 0.  0.
        -13    1    3    3    0    0 -0.13575644551E+02 -0.24727027402E+02 -0.22855047029E+02  0.36305486470E+02  0.10566000000E+00 0.  1.
         23    2    1    0    0    0  0.79023858330E+01 -0.14426482042E+02  0.28086496016E+02  0.92541231292E+02  0.86628269892E+02 0.  0.
         13    1    3    3    0    0  0.21478030384E+02  0.10300545359E+02  0.50941543045E+02  0.56235744822E+02  0.10566000000E+00 0. -1.
         22    1    1    0    0    0 -0.79023858330E+01  0.14426482042E+02 -0.28086496016E+02  0.32548768708E+02  0.00000000000E+00 0. -1.
</event>
<event>
 5    1  0.1264731E-009  0.9118800E+02  0.7815553E-02  0.1125453E+00
         25   -1    0    0    0    0  0.00000000000E+00  0.00000000000E+00  0.99999998245E-14  0.12509000000E+03  0.12509000000E+03 0.  0.
        -13    1    3    3    0    0  0.54649772366E+02 -0.95884619641E+01  0.39154625815E+01  0.55622641377E+02  0.10566000000E+00 0.  1.
         23    2    1    0    0    0  0.19911252747E+02 -0.26130567852E+01  0.21915733757E+02  0.95364834940E+02  0.90613830651E+02 0.  0.
         13    1    3    3    0    0 -0.34738519619E+02  0.69754051789E+01  0.18000271176E+02  0.39742193563E+02  0.10566000000E+00 0. -1.
         22    1    1    0    0    0 -0.19911252747E+02  0.26130567852E+01 -0.21915733757E+02  0.29725165060E+02  0.00000000000E+00 0.  1.
</event>
<event>
 5    1  0.1264731E-009  0.9118800E+02  0.7815553E-02  0.1125453E+00
         25   -1    0    0    0    0  0.00000000000E+00  0.00000000000E+00  0.99999998245E-14  0.12509000000E+03  0.12509000000E+03 0.  0.
        -13    1    3    3    0    0  0.48090791512E+02  0.45781287403E+01 -0.63602971787E+01  0.48725229966E+02  0.10566000000E+00 0. -1.
         23    2    1    0    0    0  0.15967347843E+02 -0.26272337019E+02 -0.80972584099E+01  0.93297587645E+02  0.87713638490E+02 0.  0.
         13    1    3    3    0    0 -0.32123443669E+02 -0.30850465759E+02 -0.17369612312E+01  0.44572357679E+02  0.10566000000E+00 0.  1.
         22    1    1    0    0    0 -0.15967347843E+02  0.26272337019E+02  0.80972584099E+01  0.31792412355E+02  0.00000000000E+00 0.  1.
</event>
<event>
 5    1  0.1264731E-009  0.9118800E+02  0.7815553E-02  0.1125453E+00
         25   -1    0    0    0    0  0.00000000000E+00  0.00000000000E+00  0.99999998245E-14  0.12509000000E+03  0.12509000000E+03 0.  0.
        -13    1    3    3    0    0  0.34372217516E+02  0.35555005310E+02  0.37368970848E+02  0.61984343877E+02  0.10566000000E+00 0.  1.
         23    2    1    0    0    0  0.12333352368E+02  0.14048605798E+02  0.21407772400E+02  0.96668746955E+02  0.92396314934E+02 0.  0.
         13    1    3    3    0    0 -0.22038865148E+02 -0.21506399512E+02 -0.15961198448E+02  0.34684403079E+02  0.10566000000E+00 0. -1.
         22    1    1    0    0    0 -0.12333352368E+02 -0.14048605798E+02 -0.21407772400E+02  0.28421253045E+02  0.00000000000E+00 0.  1.
</event>
<event>
 5    1  0.1264731E-009  0.9118800E+02  0.7815553E-02  0.1125453E+00
         25   -1    0    0    0    0  0.00000000000E+00  0.00000000000E+00  0.99999998245E-14  0.12509000000E+03  0.12509000000E+03 0.  0.
        -13    1    3    3    0    0  0.10717659707E+02  0.27540190198E+02  0.54359167033E+02  0.61872938432E+02  0.10566000000E+00 0.  1.
         23    2    1    0    0    0  0.19239972088E+01  0.68652686831E+01  0.26417920420E+02  0.97726882512E+02  0.93817926682E+02 0.  0.
         13    1    3    3    0    0 -0.87936624985E+01 -0.20674921515E+02 -0.27941246613E+02  0.35853944080E+02  0.10566000000E+00 0. -1.
         22    1    1    0    0    0 -0.19239972088E+01 -0.68652686831E+01 -0.26417920420E+02  0.27363117488E+02  0.00000000000E+00 0.  1.
</event>
<event>
 5    1  0.1264731E-009  0.9118800E+02  0.7815553E-02  0.1125453E+00
         25   -1    0    0    0    0  0.00000000000E+00  0.00000000000E+00  0.99999998245E-14  0.12509000000E+03  0.12509000000E+03 0.  0.
        -13    1    3    3    0    0 -0.14037778175E+02  0.19565444297E+02  0.29000460244E+02  0.37694876111E+02  0.10566000000E+00 0.  1.
         23    2    1    0    0    0  0.26342600296E+02  0.96273157169E+01 -0.10588375276E+02  0.95111149301E+02  0.90262944955E+02 0.  0.
         13    1    3    3    0    0  0.40380378471E+02 -0.99381285805E+01 -0.39588835520E+02  0.57416273190E+02  0.10566000000E+00 0. -1.
         22    1    1    0    0    0 -0.26342600296E+02 -0.96273157169E+01  0.10588375276E+02  0.29978850699E+02  0.00000000000E+00 0. -1.
</event>
<event>
 5    1  0.1264731E-009  0.9118800E+02  0.7815553E-02  0.1125453E+00
         25   -1    0    0    0    0  0.00000000000E+00  0.00000000000E+00  0.99999998245E-14  0.12509000000E+03  0.12509000000E+03 0.  0.
        -13    1    3    3    0    0  0.47209272003E+02 -0.18752957438E+02  0.26856956075E+02  0.57460386610E+02  0.10566000000E+00 0.  1.
         23    2    1    0    0    0  0.18129180134E+02  0.26073831429E+01  0.25661716522E+02  0.93562403929E+02  0.88090488220E+02 0.  0.
         13    1    3    3    0    0 -0.29080091869E+02  0.21360340581E+02 -0.11952395529E+01  0.36102017319E+02  0.10566000000E+00 0. -1.
         22    1    1    0    0    0 -0.18129180134E+02 -0.26073831429E+01 -0.25661716522E+02  0.31527596071E+02  0.00000000000E+00 0.  1.
</event>
<event>
 5    1  0.1264731E-009  0.9118800E+02  0.7815553E-02  0.1125453E+00
         25   -1    0    0    0    0  0.00000000000E+00  0.00000000000E+00  0.99999998245E-14  0.12509000000E+03  0.12509000000E+03 0.  0.
        -13    1    3    3    0    0  0.95127185013E+01  0.19530518240E+02  0.96293470788E+01  0.23762753317E+02  0.10566000000E+00 0.  1.
         23    2    1    0    0    0  0.45732068290E+01 -0.37543861196E+02 -0.12618871362E+02  0.85219062606E+02  0.75316644792E+02 0.  0.
         13    1    3    3    0    0 -0.49395116723E+01 -0.57074379436E+02 -0.22248218440E+02  0.61456309289E+02  0.10566000000E+00 0. -1.
         22    1    1    0    0    0 -0.45732068290E+01  0.37543861196E+02  0.12618871362E+02  0.39870937394E+02  0.00000000000E+00 0. -1.
</event>
<event>
 5    1  0.1264731E-009  0.9118800E+02  0.7815553E-02  0.1125453E+00
         25   -1    0    0    0    0  0.00000000000E+00  0.00000000000E+00  0.99999998245E-14  0.12509000000E+03  0.12509000000E+03 0.  0.
        -13    1    3    3    0    0 -0.60149558409E+02 -0.13041801290E+02  0.28485491322E+01  0.61613175165E+02  0.10566000000E+00 0. -1.
         23    2    1    0    0    0 -0.28126910861E+02  0.34665171833E+00 -0.29630919989E+01  0.96805318701E+02  0.92581026851E+02 0.  0.
         13    1    3    3    0    0  0.32022647549E+02  0.13388453009E+02 -0.58116411311E+01  0.35192143536E+02  0.10566000000E+00 0.  1.
         22    1    1    0    0    0  0.28126910861E+02 -0.34665171833E+00  0.29630919989E+01  0.28284681299E+02  0.00000000000E+00 0. -1.
</event>
<event>
 5    1  0.1264731E-009  0.9118800E+02  0.7815553E-02  0.1125453E+00
         25   -1    0    0    0    0  0.00000000000E+00  0.00000000000E+00  0.99999998245E-14  0.12509000000E+03  0.12509000000E+03 0.  0.
        -13    1    3    3    0    0 -0.49082539903E+02 -0.11187151810E+02  0.24325935877E+02  0.55910736082E+02  0.10566000000E+00 0.  1.
         23    2    1    0    0    0 -0.16602539111E+02 -0.15848563348E+02 -0.68135758901E+01  0.10114744204E+03  0.98272880034E+02 0.  0.
         13    1    3    3    0    0  0.32480000792E+02 -0.46614115384E+01 -0.31139511767E+02  0.45236705960E+02  0.10566000000E+00 0. -1.
         22    1    1    0    0    0  0.16602539111E+02  0.15848563348E+02  0.68135758901E+01  0.23942557958E+02  0.00000000000E+00 0.  1.
</event>
<event>
 5    1  0.1264731E-009  0.9118800E+02  0.7815553E-02  0.1125453E+00
         25   -1    0    0    0    0  0.00000000000E+00  0.00000000000E+00  0.99999998245E-14  0.12509000000E+03  0.12509000000E+03 0.  0.
        -13    1    3    3    0    0  0.31502439497E+02  0.37874893191E+02 -0.19151218446E+02  0.52855383458E+02  0.10566000000E+00 0.  1.
         23    2    1    0    0    0  0.26807033832E+02  0.91349830036E+01  0.10939285874E+02  0.94729944783E+02  0.89733101394E+02 0.  0.
         13    1    3    3    0    0 -0.46954056653E+01 -0.28739910187E+02  0.30090504320E+02  0.41874561325E+02  0.10566000000E+00 0. -1.
         22    1    1    0    0    0 -0.26807033832E+02 -0.91349830036E+01 -0.10939285874E+02  0.30360055217E+02  0.00000000000E+00 0.  1.
</event>
<event>
 5    1  0.1264731E-009  0.9118800E+02  0.7815553E-02  0.1125453E+00
         25   -1    0    0    0    0  0.00000000000E+00  0.00000000000E+00  0.99999998245E-14  0.12509000000E+03  0.12509000000E+03 0.  0.
        -13    1    3    3    0    0 -0.34170887401E+02 -0.47883389480E+02 -0.15362890273E+02  0.60798833011E+02  0.10566000000E+00 0. -1.
         23    2    1    0    0    0 -0.20976764804E+02 -0.17831461997E+02  0.11393480182E+01  0.97534894983E+02  0.93561594294E+02 0.  0.
         13    1    3    3    0    0  0.13194122597E+02  0.30051927483E+02  0.16502238292E+02  0.36736061972E+02  0.10566000000E+00 0.  1.
         22    1    1    0    0    0  0.20976764804E+02  0.17831461997E+02 -0.11393480182E+01  0.27555105017E+02  0.00000000000E+00 0. -1.
</event>
<event>
 5    1  0.1264731E-009  0.9118800E+02  0.7815553E-02  0.1125453E+00
         25   -1    0    0    0    0  0.00000000000E+00  0.00000000000E+00  0.99999998245E-14  0.12509000000E+03  0.12509000000E+03 0.  0.
        -13    1    3    3    0    0  0.61739961306E+01 -0.21058898312E+02 -0.39192557199E+02  0.44918405250E+02  0.10566000000E+00 0.  1.
         23    2    1    0    0    0  0.19966464760E+02  0.18779637935E+02 -0.19508931902E+02  0.91445788908E+02  0.85031755063E+02 0.  0.
         13    1    3    3    0    0  0.13792468630E+02  0.39838536247E+02  0.19683625297E+02  0.46527383659E+02  0.10566000000E+00 0. -1.
         22    1    1    0    0    0 -0.19966464760E+02 -0.18779637935E+02  0.19508931902E+02  0.33644211092E+02  0.00000000000E+00 0. -1.
</event>
<event>
 5    1  0.1264731E-009  0.9118800E+02  0.7815553E-02  0.1125453E+00
         25   -1    0    0    0    0  0.00000000000E+00  0.00000000000E+00  0.99999998245E-14  0.12509000000E+03  0.12509000000E+03 0.  0.
        -13    1    3    3    0    0 -0.11060930010E+02  0.15594536816E+02  0.27567200932E+02  0.33548405066E+02  0.10566000000E+00 0. -1.
         23    2    1    0    0    0  0.31911987043E+02 -0.13919912664E+02  0.15038495086E+02  0.87165137178E+02  0.78482264998E+02 0.  0.
         13    1    3    3    0    0  0.42972917053E+02 -0.29514449480E+02 -0.12528705847E+02  0.53616732112E+02  0.10566000000E+00 0.  1.
         22    1    1    0    0    0 -0.31911987043E+02  0.13919912664E+02 -0.15038495086E+02  0.37924862822E+02  0.00000000000E+00 0.  1.
</event>
<event>
 5    1  0.1264731E-009  0.9118800E+02  0.7815553E-02  0.1125453E+00
         25   -1    0    0    0    0  0.00000000000E+00  0.00000000000E+00  0.99999998245E-14  0.12509000000E+03  0.12509000000E+03 0.  0.
        -13    1    3    3    0    0 -0.20429415801E+02  0.14595752107E+02 -0.26920237331E+02  0.36811782781E+02  0.10566000000E+00 0. -1.
         23    2    1    0    0    0 -0.76391676768E+01  0.82716141411E+01  0.28714354765E+02  0.94246999937E+02  0.89057320554E+02 0.  0.
         13    1    3    3    0    0  0.12790248124E+02 -0.63241379657E+01  0.55634592096E+02  0.57435217156E+02  0.10566000000E+00 0.  1.
         22    1    1    0    0    0  0.76391676768E+01 -0.82716141411E+01 -0.28714354765E+02  0.30843000063E+02  0.00000000000E+00 0.  1.
</event>
<event>
 5    1  0.1264731E-009  0.9118800E+02  0.7815553E-02  0.1125453E+00
         25   -1    0    0    0    0  0.00000000000E+00  0.00000000000E+00  0.99999998245E-14  0.12509000000E+03  0.12509000000E+03 0.  0.
        -13    1    3    3    0    0  0.18625726619E+02  0.24691824611E+02  0.28630913834E+02  0.42146699583E+02  0.10566000000E+00 0.  1.
         23    2    1    0    0    0  0.66437574222E+01 -0.24695914775E+02  0.17297278581E+02  0.94215681132E+02  0.89013319260E+02 0.  0.
         13    1    3    3    0    0 -0.11981969196E+02 -0.49387739386E+02 -0.11333635253E+02  0.52068981549E+02  0.10566000000E+00 0. -1.
         22    1    1    0    0    0 -0.66437574222E+01  0.24695914775E+02 -0.17297278581E+02  0.30874318868E+02  0.00000000000E+00 0. -1.
</event>
<event>
 5    1  0.1264731E-009  0.9118800E+02  0.7815553E-02  0.1125453E+00
         25   -1    0    0    0    0  0.00000000000E+00  0.00000000000E+00  0.99999998245E-14  0.12509000000E+03  0.12509000000E+03 0.  0.
        -13    1    3    3    0    0 -0.13911418533E+02 -0.19372269244E+02 -0.22702672150E+02  0.32927721877E+02  0.10566000000E+00 0. -1.
         23    2    1    0    0    0  0.15263282977E+02  0.13105572109E+02  0.21907941521E+02  0.95346400197E+02  0.90588378401E+02 0.  0.
         13    1    3    3    0    0  0.29174701509E+02  0.32477841353E+02  0.44610613671E+02  0.62418678320E+02  0.10566000000E+00 0.  1.
         22    1    1    0    0    0 -0.15263282977E+02 -0.13105572109E+02 -0.21907941521E+02  0.29743599803E+02  0.00000000000E+00 0.  1.
</event>
<event>
 5    1  0.1264731E-009  0.9118800E+02  0.7815553E-02  0.1125453E+00
         25   -1    0    0    0    0  0.00000000000E+00  0.00000000000E+00  0.99999998245E-14  0.12509000000E+03  0.12509000000E+03 0.  0.
        -13    1    3    3    0    0  0.10559146430E+01 -0.42407811878E+02 -0.43018346516E+02  0.60416278973E+02  0.10566000000E+00 0. -1.
         23    2    1    0    0    0 -0.61566220435E+01 -0.13471147591E+02 -0.27064590904E+02  0.94237643637E+02  0.89044177715E+02 0.  0.
         13    1    3    3    0    0 -0.72125366865E+01  0.28936664287E+02  0.15953755612E+02  0.33821364663E+02  0.10566000000E+00 0.  1.
         22    1    1    0    0    0  0.61566220435E+01  0.13471147591E+02  0.27064590904E+02  0.30852356363E+02  0.00000000000E+00 0. -1.
</event>
<event>
 5    1  0.1264731E-009  0.9118800E+02  0.7815553E-02  0.1125453E+00
         25   -1    0    0    0    0  0.00000000000E+00  0.00000000000E+00  0.99999998245E-14  0.12509000000E+03  0.12509000000E+03 0.  0.
        -13    1    3    3    0    0  0.27492540532E+02  0.10210958171E+02 -0.75353163755E+01  0.30280284156E+02  0.10566000000E+00 0. -1.
         23    2    1    0    0    0 -0.17091950975E+02 -0.28431696851E+02  0.73117187042E+01  0.91120051452E+02  0.84551205623E+02 0.  0.
         13    1    3    3    0    0 -0.44584491506E+02 -0.38642655022E+02  0.14847035080E+02  0.60839767296E+02  0.10566000000E+00 0.  1.
         22    1    1    0    0    0  0.17091950975E+02  0.28431696851E+02 -0.73117187042E+01  0.33969948548E+02  0.00000000000E+00 0.  1.
</event>
<event>
 5    1  0.1264731E-009  0.9118800E+02  0.7815553E-02  0.1125453E+00
         25   -1    0    0    0    0  0.00000000000E+00  0.00000000000E+00  0.99999998245E-14  0.12509000000E+03  0.12509000000E+03 0.  0.
        -13    1    3    3    0    0 -0.92330845050E+01  0.40195436645E+02  0.37231465438E+02  0.55561822857E+02  0.10566000000E+00 0.  1.
         23    2    1    0    0    0 -0.21943429818E+02  0.75150408308E+01  0.19133640352E+02  0.95021974724E+02  0.90139278545E+02 0.  0.
         13    1    3    3    0    0 -0.12710345313E+02 -0.32680395814E+02 -0.18097825086E+02  0.39460151867E+02  0.10566000000E+00 0. -1.
         22    1    1    0    0    0  0.21943429818E+02 -0.75150408308E+01 -0.19133640352E+02  0.30068025276E+02  0.00000000000E+00 0. -1.
</event>
<event>
 5    1  0.1264731E-009  0.9118800E+02  0.7815553E-02  0.1125453E+00
         25   -1    0    0    0    0  0.00000000000E+00  0.00000000000E+00  0.99999998245E-14  0.12509000000E+03  0.12509000000E+03 0.  0.
        -13    1    3    3    0    0  0.26023160794E+02 -0.34692056746E+01  0.23465012830E+02  0.35211621332E+02  0.10566000000E+00 0.  1.
         23    2    1    0    0    0 -0.29635851441E+02  0.18394137323E+01  0.12626058356E+01  0.95370287568E+02  0.90621357548E+02 0.  0.
         13    1    3    3    0    0 -0.55659012235E+02  0.53086194068E+01 -0.22202406994E+02  0.60158666236E+02  0.10566000000E+00 0. -1.
         22    1    1    0    0    0  0.29635851441E+02 -0.18394137323E+01 -0.12626058356E+01  0.29719712432E+02  0.00000000000E+00 0. -1.
</event>
<event>
 5    1  0.1264731E-009  0.9118800E+02  0.7815553E-02  0.1125453E+00
         25   -1    0    0    0    0  0.00000000000E+00  0.00000000000E+00  0.99999998245E-14  0.12509000000E+03  0.12509000000E+03 0.  0.
        -13    1    3    3    0    0  0.40517740923E+02  0.32091406764E+02 -0.18150250246E+02  0.54781278423E+02  0.10566000000E+00 0. -1.
         23    2    1    0    0    0  0.67078598812E+01  0.28447968038E+02  0.43256800405E+01  0.95543531894E+02  0.90860182200E+02 0.  0.
         13    1    3    3    0    0 -0.33809881042E+02 -0.36434387254E+01  0.22475930287E+02  0.40762253472E+02  0.10566000000E+00 0.  1.
         22    1    1    0    0    0 -0.67078598812E+01 -0.28447968038E+02 -0.43256800405E+01  0.29546468106E+02  0.00000000000E+00 0. -1.
</event>
<event>
 5    1  0.1264731E-009  0.9118800E+02  0.7815553E-02  0.1125453E+00
         25   -1    0    0    0    0  0.00000000000E+00  0.00000000000E+00  0.99999998245E-14  0.12509000000E+03  0.12509000000E+03 0.  0.
        -13    1    3    3    0    0  0.16167006298E+02 -0.45023541441E+02  0.45140875094E+01  0.48050801519E+02  0.10566000000E+00 0. -1.
         23    2    1    0    0    0  0.48847359070E+01 -0.42428937236E+01  0.27936720957E+02  0.96413822259E+02  0.92050540208E+02 0.  0.
         13    1    3    3    0    0 -0.11282270391E+02  0.40780647717E+02  0.23422633448E+02  0.48363020740E+02  0.10566000000E+00 0.  1.
         22    1    1    0    0    0 -0.48847359070E+01  0.42428937236E+01 -0.27936720957E+02  0.28676177741E+02  0.00000000000E+00 0.  1.
</event>
<event>
 5    1  0.1264731E-009  0.9118800E+02  0.7815553E-02  0.1125453E+00
         25   -1    0    0    0    0  0.00000000000E+00  0.00000000000E+00  0.99999998245E-14  0.12509000000E+03  0.12509000000E+03 0.  0.
        -13    1    3    3    0    0  0.20173186777E+02  0.69316611918E+01 -0.46444482870E+02  0.51108771700E+02  0.10566000000E+00 0. -1.
         23    2    1    0    0    0  0.92361091625E+01  0.25149476743E+02 -0.47853592599E+01  0.97874167179E+02  0.94014100244E+02 0.  0.
         13    1    3    3    0    0 -0.10937077614E+02  0.18217815551E+02  0.41659123610E+02  0.46765395478E+02  0.10566000000E+00 0.  1.
         22    1    1    0    0    0 -0.92361091625E+01 -0.25149476743E+02  0.47853592599E+01  0.27215832821E+02  0.00000000000E+00 0. -1.
</event>
<event>
 5    1  0.1264731E-009  0.9118800E+02  0.7815553E-02  0.1125453E+00
         25   -1    0    0    0    0  0.00000000000E+00  0.00000000000E+00  0.99999998245E-14  0.12509000000E+03  0.12509000000E+03 0.  0.
        -13    1    3    3    0    0 -0.14180579743E+02  0.35698802892E+02 -0.68400322324E+01  0.39016542322E+02  0.10566000000E+00 0.  1.
         23    2    1    0    0    0  0.17663672365E+02 -0.23787053502E+01  0.22273958325E+02  0.96562946524E+02  0.92252966680E+02 0.  0.
         13    1    3    3    0    0  0.31844252108E+02 -0.38077508243E+02  0.29113990558E+02  0.57546404202E+02  0.10566000000E+00 0. -1.
         22    1    1    0    0    0 -0.17663672365E+02  0.23787053502E+01 -0.22273958325E+02  0.28527053476E+02  0.00000000000E+00 0. -1.
</event>
<event>
 5    1  0.1264731E-009  0.9118800E+02  0.7815553E-02  0.1125453E+00
         25   -1    0    0    0    0  0.00000000000E+00  0.00000000000E+00  0.99999998245E-14  0.12509000000E+03  0.12509000000E+03 0.  0.
        -13    1    3    3    0    0 -0.12272517884E+02  0.32115164976E+02 -0.19275734282E+02  0.39415271314E+02  0.10566000000E+00 0.  1.
         23    2    1    0    0    0 -0.14103762973E+02 -0.49081259528E+01  0.24264871139E+02  0.96598074798E+02  0.92300586417E+02 0.  0.
         13    1    3    3    0    0 -0.18312450884E+01 -0.37023290928E+02  0.43540605421E+02  0.57182803483E+02  0.10566000000E+00 0. -1.
         22    1    1    0    0    0  0.14103762973E+02  0.49081259528E+01 -0.24264871139E+02  0.28491925202E+02  0.00000000000E+00 0. -1.
</event>
<event>
 5    1  0.1264731E-009  0.9118800E+02  0.7815553E-02  0.1125453E+00
         25   -1    0    0    0    0  0.00000000000E+00  0.00000000000E+00  0.99999998245E-14  0.12509000000E+03  0.12509000000E+03 0.  0.
        -13    1    3    3    0    0 -0.17517260606E+02  0.26993022960E+02 -0.34279234912E+02  0.47016537706E+02  0.10566000000E+00 0.  1.
         23    2    1    0    0    0 -0.28894264522E+02 -0.13654359823E+00  0.46627130165E+01  0.95821620149E+02  0.91242231608E+02 0.  0.
         13    1    3    3    0    0 -0.11377003916E+02 -0.27129566558E+02  0.38941947929E+02  0.48805082443E+02  0.10566000000E+00 0. -1.
         22    1    1    0    0    0  0.28894264522E+02  0.13654359823E+00 -0.46627130165E+01  0.29268379851E+02  0.00000000000E+00 0.  1.
</event>
<event>
 5    1  0.1264731E-009  0.9118800E+02  0.7815553E-02  0.1125453E+00
         25   -1    0    0    0    0  0.00000000000E+00  0.00000000000E+00  0.99999998245E-14  0.12509000000E+03  0.12509000000E+03 0.  0.
        -13    1    3    3    0    0 -0.43861753905E+02 -0.29817591955E+02 -0.31870397639E+00  0.53038240750E+02  0.10566000000E+00 0. -1.
         23    2    1    0    0    0  0.89965818426E+00  0.51757959795E+01 -0.12838773474E+02  0.11121800111E+03  0.11034949668E+03 0.  0.
         13    1    3    3    0    0  0.44761412089E+02  0.34993387935E+02 -0.12520069497E+02  0.58179760361E+02  0.10566000000E+00 0.  1.
         22    1    1    0    0    0 -0.89965818426E+00 -0.51757959795E+01  0.12838773474E+02  0.13871998889E+02  0.00000000000E+00 0.  1.
</event>
<event>
 5    1  0.1264731E-009  0.9118800E+02  0.7815553E-02  0.1125453E+00
         25   -1    0    0    0    0  0.00000000000E+00  0.00000000000E+00  0.99999998245E-14  0.12509000000E+03  0.12509000000E+03 0.  0.
        -13    1    3    3    0    0  0.26714133983E+02  0.45352327718E+02  0.33062122829E+02  0.62157812975E+02  0.10566000000E+00 0.  1.
         23    2    1    0    0    0  0.15754451097E+02  0.22454528343E+02  0.11972601089E+02  0.95160887930E+02  0.90331848438E+02 0.  0.
         13    1    3    3    0    0 -0.10959682886E+02 -0.22897799375E+02 -0.21089521740E+02  0.33003074954E+02  0.10566000000E+00 0. -1.
         22    1    1    0    0    0 -0.15754451097E+02 -0.22454528343E+02 -0.11972601089E+02  0.29929112070E+02  0.00000000000E+00 0.  1.
</event>
<event>
 5    1  0.1264731E-009  0.9118800E+02  0.7815553E-02  0.1125453E+00
         25   -1    0    0    0    0  0.00000000000E+00  0.00000000000E+00  0.99999998245E-14  0.12509000000E+03  0.12509000000E+03 0.  0.
        -13    1    3    3    0    0 -0.21670516325E+02 -0.12376664265E+02 -0.54443808703E+02  0.59891005721E+02  0.10566000000E+00 0. -1.
         23    2    1    0    0    0 -0.19039763153E+01  0.37301894325E+01 -0.28559917980E+02  0.96224651327E+02  0.91793110684E+02 0.  0.
         13    1    3    3    0    0  0.19766540010E+02  0.16106853697E+02  0.25883890723E+02  0.36333645606E+02  0.10566000000E+00 0.  1.
         22    1    1    0    0    0  0.19039763153E+01 -0.37301894325E+01  0.28559917980E+02  0.28865348673E+02  0.00000000000E+00 0. -1.
</event>
<event>
 5    1  0.1264731E-009  0.9118800E+02  0.7815553E-02  0.1125453E+00
         25   -1    0    0    0    0  0.00000000000E+00  0.00000000000E+00  0.99999998245E-14  0.12509000000E+03  0.12509000000E+03 0.  0.
        -13    1    3    3    0    0  0.76326736567E+01  0.36115832863E+02  0.38984801792E+02  0.53688332302E+02  0.10566000000E+00 0.  1.
         23    2    1    0    0    0 -0.17846062354E+02  0.21154437725E+02  0.85112259686E+01  0.96134289950E+02  0.91669889057E+02 0.  0.
         13    1    3    3    0    0 -0.25478736011E+02 -0.14961395138E+02 -0.30473575824E+02  0.42445957648E+02  0.10566000000E+00 0. -1.
         22    1    1    0    0    0  0.17846062354E+02 -0.21154437725E+02 -0.85112259686E+01  0.28955710050E+02  0.00000000000E+00 0.  1.
</event>
<event>
 5    1  0.1264731E-009  0.9118800E+02  0.7815553E-02  0.1125453E+00
         25   -1    0    0    0    0  0.00000000000E+00  0.00000000000E+00  0.99999998245E-14  0.12509000000E+03  0.12509000000E+03 0.  0.
        -13    1    3    3    0    0 -0.25424597369E+01 -0.59452831794E+02  0.87624329516E+01  0.60148937689E+02  0.10566000000E+00 0.  1.
         23    2    1    0    0    0 -0.76683884247E+01 -0.27770950241E+02 -0.62956070823E+01  0.95599924943E+02  0.90937787097E+02 0.  0.
         13    1    3    3    0    0 -0.51259286877E+01  0.31681881552E+02 -0.15058040034E+02  0.35450987254E+02  0.10566000000E+00 0. -1.
         22    1    1    0    0    0  0.76683884247E+01  0.27770950241E+02  0.62956070823E+01  0.29490075057E+02  0.00000000000E+00 0.  1.
</event>
<event>
 5    1  0.1264731E-009  0.9118800E+02  0.7815553E-02  0.1125453E+00
         25   -1    0    0    0    0  0.00000000000E+00  0.00000000000E+00  0.99999998245E-14  0.12509000000E+03  0.12509000000E+03 0.  0.
        -13    1    3    3    0    0 -0.13631744697E+02  0.24635630476E+02 -0.41846600373E+02  0.50436969370E+02  0.10566000000E+00 0. -1.
         23    2    1    0    0    0 -0.19115812122E+02  0.20577581796E+02  0.39394160119E+01  0.96728580004E+02  0.92477283943E+02 0.  0.
         13    1    3    3    0    0 -0.54840674251E+01 -0.40580486798E+01  0.45786016385E+02  0.46291610634E+02  0.10566000000E+00 0.  1.
         22    1    1    0    0    0  0.19115812122E+02 -0.20577581796E+02 -0.39394160119E+01  0.28361419996E+02  0.00000000000E+00 0. -1.
</event>
<event>
 5    1  0.1264731E-009  0.9118800E+02  0.7815553E-02  0.1125453E+00
         25   -1    0    0    0    0  0.00000000000E+00  0.00000000000E+00  0.99999998245E-14  0.12509000000E+03  0.12509000000E+03 0.  0.
        -13    1    3    3    0    0 -0.70712828557E+01  0.14318166596E+02 -0.60443518744E+02  0.62517542003E+02  0.10566000000E+00 0.  1.
         23    2    1    0    0    0 -0.24958992045E+01  0.75460172384E+01 -0.27078046782E+02  0.96869572886E+02  0.92667802631E+02 0.  0.
         13    1    3    3    0    0  0.45753836512E+01 -0.67721493577E+01  0.33365471962E+02  0.34352030883E+02  0.10566000000E+00 0. -1.
         22    1    1    0    0    0  0.24958992045E+01 -0.75460172384E+01  0.27078046782E+02  0.28220427114E+02  0.00000000000E+00 0.  1.
</event>
<event>
 5    1  0.1264731E-009  0.9118800E+02  0.7815553E-02  0.1125453E+00
         25   -1    0    0    0    0  0.00000000000E+00  0.00000000000E+00  0.99999998245E-14  0.12509000000E+03  0.12509000000E+03 0.  0.
        -13    1    3    3    0    0 -0.30045585690E+02  0.30944383008E+02  0.21898901441E+01  0.43186790134E+02  0.10566000000E+00 0.  1.
         23    2    1    0    0    0  0.21685437220E+02  0.18675222985E+02 -0.10560425054E+01  0.96451959446E+02  0.92102351296E+02 0.  0.
         13    1    3    3    0    0  0.51731022910E+02 -0.12269160023E+02 -0.32459326495E+01  0.53265169312E+02  0.10566000000E+00 0. -1.
         22    1    1    0    0    0 -0.21685437220E+02 -0.18675222985E+02  0.10560425054E+01  0.28638040554E+02  0.00000000000E+00 0. -1.
</event>
<event>
 5    1  0.1264731E-009  0.9118800E+02  0.7815553E-02  0.1125453E+00
         25   -1    0    0    0    0  0.00000000000E+00  0.00000000000E+00  0.99999998245E-14  0.12509000000E+03  0.12509000000E+03 0.  0.
        -13    1    3    3    0    0  0.27116089446E+01  0.40873448588E+02 -0.16732491992E+02  0.44249057333E+02  0.10566000000E+00 0.  1.
         23    2    1    0    0    0  0.16620659475E+02  0.10180224848E+02  0.22072794701E+02  0.95643581453E+02  0.90997819248E+02 0.  0.
         13    1    3    3    0    0  0.13909050531E+02 -0.30693223740E+02  0.38805286693E+02  0.51394524120E+02  0.10566000000E+00 0. -1.
         22    1    1    0    0    0 -0.16620659475E+02 -0.10180224848E+02 -0.22072794701E+02  0.29446418547E+02  0.00000000000E+00 0.  1.
</event>
<event>
 5    1  0.1264731E-009  0.9118800E+02  0.7815553E-02  0.1125453E+00
         25   -1    0    0    0    0  0.00000000000E+00  0.00000000000E+00  0.99999998245E-14  0.12509000000E+03  0.12509000000E+03 0.  0.
        -13    1    3    3    0    0 -0.94954453811E+01  0.53500491750E+02 -0.22722944948E+02  0.58896600000E+02  0.10566000000E+00 0. -1.
         23    2    1    0    0    0 -0.18092731510E+02  0.19908313111E+02 -0.54242061778E+01  0.97647152533E+02  0.93711560230E+02 0.  0.
         13    1    3    3    0    0 -0.85972861293E+01 -0.33592178640E+02  0.17298738770E+02  0.38750552533E+02  0.10566000000E+00 0.  1.
         22    1    1    0    0    0  0.18092731510E+02 -0.19908313111E+02  0.54242061778E+01  0.27442847467E+02  0.00000000000E+00 0.  1.
</event>
<event>
 5    1  0.1264731E-009  0.9118800E+02  0.7815553E-02  0.1125453E+00
         25   -1    0    0    0    0  0.00000000000E+00  0.00000000000E+00  0.99999998245E-14  0.12509000000E+03  0.12509000000E+03 0.  0.
        -13    1    3    3    0    0 -0.23774905246E+02 -0.29634588024E+02 -0.18234074514E+02  0.42141992884E+02  0.10566000000E+00 0.  1.
         23    2    1    0    0    0 -0.77720162457E+01  0.17927115226E+01  0.25527364843E+02  0.98345572413E+02  0.94639247705E+02 0.  0.
         13    1    3    3    0    0  0.16002889000E+02  0.31427299547E+02  0.43761439358E+02  0.56203579529E+02  0.10566000000E+00 0. -1.
         22    1    1    0    0    0  0.77720162457E+01 -0.17927115226E+01 -0.25527364843E+02  0.26744427587E+02  0.00000000000E+00 0. -1.
</event>
<event>
 5    1  0.1264731E-009  0.9118800E+02  0.7815553E-02  0.1125453E+00
         25   -1    0    0    0    0  0.00000000000E+00  0.00000000000E+00  0.99999998245E-14  0.12509000000E+03  0.12509000000E+03 0.  0.
        -13    1    3    3    0    0 -0.48953477746E+02 -0.59192383808E+01 -0.16750613100E+02  0.52077582218E+02  0.10566000000E+00 0.  1.
         23    2    1    0    0    0 -0.86796954113E+01  0.10062559327E+02 -0.25549704684E+02  0.96291048246E+02  0.91883547767E+02 0.  0.
         13    1    3    3    0    0  0.40273782334E+02  0.15981797708E+02 -0.87990915849E+01  0.44213466028E+02  0.10566000000E+00 0. -1.
         22    1    1    0    0    0  0.86796954113E+01 -0.10062559327E+02  0.25549704684E+02  0.28798951754E+02  0.00000000000E+00 0. -1.
</event>
<event>
 5    1  0.1264731E-009  0.9118800E+02  0.7815553E-02  0.1125453E+00
         25   -1    0    0    0    0  0.00000000000E+00  0.00000000000E+00  0.99999998245E-14  0.12509000000E+03  0.12509000000E+03 0.  0.
        -13    1    3    3    0    0  0.87299579553E+01 -0.37950847408E+02 -0.98574612497E+01  0.40170383259E+02  0.10566000000E+00 0.  1.
         23    2    1    0    0    0 -0.19599886312E+02  0.85027558606E+01 -0.20351044620E+02  0.95583773237E+02  0.90915566811E+02 0.  0.
         13    1    3    3    0    0 -0.28329844267E+02  0.46453603269E+02 -0.10493583370E+02  0.55413389978E+02  0.10566000000E+00 0. -1.
         22    1    1    0    0    0  0.19599886312E+02 -0.85027558606E+01  0.20351044620E+02  0.29506226763E+02  0.00000000000E+00 0. -1.
</event>
<event>
 5    1  0.1264731E-009  0.9118800E+02  0.7815553E-02  0.1125453E+00
         25   -1    0    0    0    0  0.00000000000E+00  0.00000000000E+00  0.99999998245E-14  0.12509000000E+03  0.12509000000E+03 0.  0.
        -13    1    3    3    0    0 -0.68002354268E+01  0.87046370438E+01 -0.38723328688E+02  0.40268117123E+02  0.10566000000E+00 0. -1.
         23    2    1    0    0    0 -0.18116911962E+02 -0.23433657034E+02  0.43106358419E+01  0.95157737099E+02  0.90327485116E+02 0.  0.
         13    1    3    3    0    0 -0.11316676535E+02 -0.32138294077E+02  0.43033964529E+02  0.54889619976E+02  0.10566000000E+00 0.  1.
         22    1    1    0    0    0  0.18116911962E+02  0.23433657034E+02 -0.43106358419E+01  0.29932262901E+02  0.00000000000E+00 0.  1.
</event>
<event>
 5    1  0.1264731E-009  0.9118800E+02  0.7815553E-02  0.1125453E+00
         25   -1    0    0    0    0  0.00000000000E+00  0.00000000000E+00  0.99999998245E-14  0.12509000000E+03  0.12509000000E+03 0.  0.
        -13    1    3    3    0    0 -0.53885859992E+01  0.41634522128E+02  0.37438409201E+02  0.56250475015E+02  0.10566000000E+00 0. -1.
         23    2    1    0    0    0 -0.70210984329E+01  0.28348079444E+02  0.13296159975E+00  0.95885084144E+02  0.91329197146E+02 0.  0.
         13    1    3    3    0    0 -0.16325124337E+01 -0.13286442685E+02 -0.37305447601E+02  0.39634609129E+02  0.10566000000E+00 0.  1.
         22    1    1    0    0    0  0.70210984329E+01 -0.28348079444E+02 -0.13296159975E+00  0.29204915856E+02  0.00000000000E+00 0. -1.
</event>
<event>
 5    1  0.1264731E-009  0.9118800E+02  0.7815553E-02  0.1125453E+00
         25   -1    0    0    0    0  0.00000000000E+00  0.00000000000E+00  0.99999998245E-14  0.12509000000E+03  0.12509000000E+03 0.  0.
        -13    1    3    3    0    0 -0.12520306003E+02  0.52095781237E+02 -0.17294114332E+02  0.56301208155E+02  0.10566000000E+00 0.  1.
         23    2    1    0    0    0 -0.22538773431E+02  0.18476777697E+02  0.11271740622E+01  0.95923955646E+02  0.91382422400E+02 0.  0.
         13    1    3    3    0    0 -0.10018467428E+02 -0.33619003540E+02  0.18421288394E+02  0.39622747491E+02  0.10566000000E+00 0. -1.
         22    1    1    0    0    0  0.22538773431E+02 -0.18476777697E+02 -0.11271740622E+01  0.29166044354E+02  0.00000000000E+00 0.  1.
</event>
<event>
 5    1  0.1264731E-009  0.9118800E+02  0.7815553E-02  0.1125453E+00
         25   -1    0    0    0    0  0.00000000000E+00  0.00000000000E+00  0.99999998245E-14  0.12509000000E+03  0.12509000000E+03 0.  0.
        -13    1    3    3    0    0 -0.47876651908E+02 -0.36817553496E+02 -0.15578963226E+02  0.62373241880E+02  0.10566000000E+00 0.  1.
         23    2    1    0    0    0 -0.20466821502E+02 -0.19201637503E+02 -0.90424029641E+01  0.95605110369E+02  0.90944919661E+02 0.  0.
         13    1    3    3    0    0  0.27409830406E+02  0.17615915993E+02  0.65365602615E+01  0.33231868489E+02  0.10566000000E+00 0. -1.
         22    1    1    0    0    0  0.20466821502E+02  0.19201637503E+02  0.90424029641E+01  0.29484889631E+02  0.00000000000E+00 0.  1.
</event>
<event>
 5    1  0.1264731E-009  0.9118800E+02  0.7815553E-02  0.1125453E+00
         25   -1    0    0    0    0  0.00000000000E+00  0.00000000000E+00  0.99999998245E-14  0.12509000000E+03  0.12509000000E+03 0.  0.
        -13    1    3    3    0    0 -0.46705027540E+02  0.19944834529E+01  0.39037260726E+02  0.60903665332E+02  0.10566000000E+00 0.  1.
         23    2    1    0    0    0 -0.18730631026E+02  0.10365732908E+02  0.20226678537E+02  0.95638285585E+02  0.90990539000E+02 0.  0.
         13    1    3    3    0    0  0.27974396515E+02  0.83712494551E+01 -0.18810582189E+02  0.34734620253E+02  0.10566000000E+00 0. -1.
         22    1    1    0    0    0  0.18730631026E+02 -0.10365732908E+02 -0.20226678537E+02  0.29451714415E+02  0.00000000000E+00 0.  1.
</event>
<event>
 5    1  0.1264731E-009  0.9118800E+02  0.7815553E-02  0.1125453E+00
         25   -1    0    0    0    0  0.00000000000E+00  0.00000000000E+00  0.99999998245E-14  0.12509000000E+03  0.12509000000E+03 0.  0.
        -13    1    3    3    0    0  0.13022434316E+02 -0.25098133300E+02 -0.27079985208E+02  0.39151460427E+02  0.10566000000E+00 0. -1.
         23    2    1    0    0    0  0.49356497456E+01  0.27428103594E+02 -0.46500669477E+01  0.96836068809E+02  0.92622565256E+02 0.  0.
         13    1    3    3    0    0 -0.80867845709E+01  0.52526236893E+02  0.22429918261E+02  0.57684608381E+02  0.10566000000E+00 0.  1.
         22    1    1    0    0    0 -0.49356497456E+01 -0.27428103594E+02  0.46500669477E+01  0.28253931191E+02  0.00000000000E+00 0.  1.
</event>
<event>
 5    1  0.1264731E-009  0.9118800E+02  0.7815553E-02  0.1125453E+00
         25   -1    0    0    0    0  0.00000000000E+00  0.00000000000E+00  0.99999998245E-14  0.12509000000E+03  0.12509000000E+03 0.  0.
        -13    1    3    3    0    0 -0.25482882027E+02 -0.50809040974E+02  0.15897388289E+02  0.59022657002E+02  0.10566000000E+00 0.  1.
         23    2    1    0    0    0  0.47010065343E+00 -0.24935888640E+02  0.15603819970E+02  0.95670640140E+02  0.91035007828E+02 0.  0.
         13    1    3    3    0    0  0.25952982680E+02  0.25873152334E+02 -0.29356831836E+00  0.36647983139E+02  0.10566000000E+00 0. -1.
         22    1    1    0    0    0 -0.47010065343E+00  0.24935888640E+02 -0.15603819970E+02  0.29419359860E+02  0.00000000000E+00 0.  1.
</event>
<event>
 5    1  0.1264731E-009  0.9118800E+02  0.7815553E-02  0.1125453E+00
         25   -1    0    0    0    0  0.00000000000E+00  0.00000000000E+00  0.99999998245E-14  0.12509000000E+03  0.12509000000E+03 0.  0.
        -13    1    3    3    0    0  0.73492284202E+01  0.15916850152E+02 -0.32318113775E+02  0.36767226155E+02  0.10566000000E+00 0.  1.
         23    2    1    0    0    0  0.14706353927E+02 -0.22436219671E+02  0.11883518676E+02  0.95749263556E+02  0.91142979194E+02 0.  0.
         13    1    3    3    0    0  0.73571255069E+01 -0.38353069824E+02  0.44201632450E+02  0.58982037401E+02  0.10566000000E+00 0. -1.
         22    1    1    0    0    0 -0.14706353927E+02  0.22436219671E+02 -0.11883518676E+02  0.29340736444E+02  0.00000000000E+00 0. -1.
</event>
<event>
 5    1  0.1264731E-009  0.9118800E+02  0.7815553E-02  0.1125453E+00
         25   -1    0    0    0    0  0.00000000000E+00  0.00000000000E+00  0.99999998245E-14  0.12509000000E+03  0.12509000000E+03 0.  0.
        -13    1    3    3    0    0  0.12219512819E+02  0.29173373148E+02 -0.33658865176E+02  0.46188013200E+02  0.10566000000E+00 0.  1.
         23    2    1    0    0    0  0.27778539653E+02 -0.59098751567E+00  0.44130183701E+01  0.96956900942E+02  0.92785609755E+02 0.  0.
         13    1    3    3    0    0  0.15559026834E+02 -0.29764360664E+02  0.38071883546E+02  0.50768887742E+02  0.10566000000E+00 0. -1.
         22    1    1    0    0    0 -0.27778539653E+02  0.59098751567E+00 -0.44130183701E+01  0.28133099058E+02  0.00000000000E+00 0. -1.
</event>
<event>
 5    1  0.1264731E-009  0.9118800E+02  0.7815553E-02  0.1125453E+00
         25   -1    0    0    0    0  0.00000000000E+00  0.00000000000E+00  0.99999998245E-14  0.12509000000E+03  0.12509000000E+03 0.  0.
        -13    1    3    3    0    0  0.10412967096E+02 -0.49283639266E+02  0.16064141927E+02  0.52871304154E+02  0.10566000000E+00 0.  1.
         23    2    1    0    0    0  0.16386328072E+02 -0.62025491738E+01  0.22214603662E+02  0.96797386480E+02  0.92570308682E+02 0.  0.
         13    1    3    3    0    0  0.59733609763E+01  0.43081090093E+02  0.61504617348E+01  0.43926082326E+02  0.10566000000E+00 0. -1.
         22    1    1    0    0    0 -0.16386328072E+02  0.62025491738E+01 -0.22214603662E+02  0.28292613520E+02  0.00000000000E+00 0.  1.
</event>
<event>
 5    1  0.1264731E-009  0.9118800E+02  0.7815553E-02  0.1125453E+00
         25   -1    0    0    0    0  0.00000000000E+00  0.00000000000E+00  0.99999998245E-14  0.12509000000E+03  0.12509000000E+03 0.  0.
        -13    1    3    3    0    0  0.26085833002E+01  0.29039041598E+02  0.20512563662E+02  0.35648942141E+02  0.10566000000E+00 0.  1.
         23    2    1    0    0    0 -0.83582478676E+01 -0.27334224089E+02  0.38571021356E+00  0.96503834005E+02  0.92172778472E+02 0.  0.
         13    1    3    3    0    0 -0.10966831168E+02 -0.56373265686E+02 -0.20126853448E+02  0.60854891864E+02  0.10566000000E+00 0. -1.
         22    1    1    0    0    0  0.83582478676E+01  0.27334224089E+02 -0.38571021356E+00  0.28586165995E+02  0.00000000000E+00 0. -1.
</event>
<event>
 5    1  0.1264731E-009  0.9118800E+02  0.7815553E-02  0.1125453E+00
         25   -1    0    0    0    0  0.00000000000E+00  0.00000000000E+00  0.99999998245E-14  0.12509000000E+03  0.12509000000E+03 0.  0.
        -13    1    3    3    0    0 -0.38807990802E+02  0.70264866086E+01 -0.15514143005E+02  0.42380791184E+02  0.10566000000E+00 0.  1.
         23    2    1    0    0    0 -0.11139155399E+02 -0.22869526099E+02  0.16994326546E+02  0.94497465915E+02  0.89408433174E+02 0.  0.
         13    1    3    3    0    0  0.27668835404E+02 -0.29896012708E+02  0.32508469551E+02  0.52116674731E+02  0.10566000000E+00 0. -1.
         22    1    1    0    0    0  0.11139155399E+02  0.22869526099E+02 -0.16994326546E+02  0.30592534085E+02  0.00000000000E+00 0. -1.
</event>
<event>
 5    1  0.1264731E-009  0.9118800E+02  0.7815553E-02  0.1125453E+00
         25   -1    0    0    0    0  0.00000000000E+00  0.00000000000E+00  0.99999998245E-14  0.12509000000E+03  0.12509000000E+03 0.  0.
        -13    1    3    3    0    0 -0.42358879252E+02  0.43032837322E+01  0.39282445055E+02  0.57930255963E+02  0.10566000000E+00 0.  1.
         23    2    1    0    0    0 -0.23540063672E+02 -0.86763411921E+01  0.36269575687E+02  0.80989029323E+02  0.67928839649E+02 0.  0.
         13    1    3    3    0    0  0.18818815580E+02 -0.12979624924E+02 -0.30128693684E+01  0.23058773360E+02  0.10566000000E+00 0. -1.
         22    1    1    0    0    0  0.23540063672E+02  0.86763411921E+01 -0.36269575687E+02  0.44100970677E+02  0.00000000000E+00 0.  1.
</event>
<event>
 5    1  0.1264731E-009  0.9118800E+02  0.7815553E-02  0.1125453E+00
         25   -1    0    0    0    0  0.00000000000E+00  0.00000000000E+00  0.99999998245E-14  0.12509000000E+03  0.12509000000E+03 0.  0.
        -13    1    3    3    0    0  0.10197110477E+02  0.52257320284E+02  0.62252012486E+00  0.53246664503E+02  0.10566000000E+00 0.  1.
         23    2    1    0    0    0 -0.43943911348E+01  0.37303894236E+02 -0.19942001874E+02  0.82562660119E+02  0.70767352703E+02 0.  0.
         13    1    3    3    0    0 -0.14591501612E+02 -0.14953426048E+02 -0.20564521998E+02  0.29315995616E+02  0.10566000000E+00 0. -1.
         22    1    1    0    0    0  0.43943911348E+01 -0.37303894236E+02  0.19942001874E+02  0.42527339881E+02  0.00000000000E+00 0.  1.
</event>
<event>
 5    1  0.1264731E-009  0.9118800E+02  0.7815553E-02  0.1125453E+00
         25   -1    0    0    0    0  0.00000000000E+00  0.00000000000E+00  0.99999998245E-14  0.12509000000E+03  0.12509000000E+03 0.  0.
        -13    1    3    3    0    0  0.10762491857E+02 -0.15517602568E+02  0.32285051525E+02  0.37402712956E+02  0.10566000000E+00 0.  1.
         23    2    1    0    0    0  0.20943708707E+02  0.70869581239E+01 -0.20005361381E+02  0.95272582375E+02  0.90486388802E+02 0.  0.
         13    1    3    3    0    0  0.10181216851E+02  0.22604560692E+02 -0.52290412906E+02  0.57869869419E+02  0.10566000000E+00 0. -1.
         22    1    1    0    0    0 -0.20943708707E+02 -0.70869581239E+01  0.20005361381E+02  0.29817417625E+02  0.00000000000E+00 0. -1.
</event>
<event>
 5    1  0.1264731E-009  0.9118800E+02  0.7815553E-02  0.1125453E+00
         25   -1    0    0    0    0  0.00000000000E+00  0.00000000000E+00  0.99999998245E-14  0.12509000000E+03  0.12509000000E+03 0.  0.
        -13    1    3    3    0    0 -0.78458924391E+01  0.41620431082E+02  0.35246113850E+02  0.55100980184E+02  0.10566000000E+00 0.  1.
         23    2    1    0    0    0  0.13234380994E+02  0.92669459913E+01  0.25459147587E+02  0.94937167228E+02  0.90021510747E+02 0.  0.
         13    1    3    3    0    0  0.21080273433E+02 -0.32353485091E+02 -0.97869662627E+01  0.39836187044E+02  0.10566000000E+00 0. -1.
         22    1    1    0    0    0 -0.13234380994E+02 -0.92669459913E+01 -0.25459147587E+02  0.30152832772E+02  0.00000000000E+00 0.  1.
</event>
<event>
 5    1  0.1264731E-009  0.9118800E+02  0.7815553E-02  0.1125453E+00
         25   -1    0    0    0    0  0.00000000000E+00  0.00000000000E+00  0.99999998245E-14  0.12509000000E+03  0.12509000000E+03 0.  0.
        -13    1    3    3    0    0  0.34132254899E+02  0.13372799681E+02  0.10013467321E+02  0.38001622171E+02  0.10566000000E+00 0.  1.
         23    2    1    0    0    0 -0.24269013913E+02  0.44866263903E+01  0.13086176527E+02  0.97155024275E+02  0.93052328682E+02 0.  0.
         13    1    3    3    0    0 -0.58401268812E+02 -0.88861732903E+01  0.30727092063E+01  0.59153402104E+02  0.10566000000E+00 0. -1.
         22    1    1    0    0    0  0.24269013913E+02 -0.44866263903E+01 -0.13086176527E+02  0.27934975725E+02  0.00000000000E+00 0. -1.
</event>
<event>
 5    1  0.1264731E-009  0.9118800E+02  0.7815553E-02  0.1125453E+00
         25   -1    0    0    0    0  0.00000000000E+00  0.00000000000E+00  0.99999998245E-14  0.12509000000E+03  0.12509000000E+03 0.  0.
        -13    1    3    3    0    0  0.19317824753E+02 -0.20150150027E+02 -0.47452236509E+02  0.55053908245E+02  0.10566000000E+00 0.  1.
         23    2    1    0    0    0 -0.12770429378E+02 -0.72969485507E+01 -0.24391484973E+02  0.96607130345E+02  0.92312858095E+02 0.  0.
         13    1    3    3    0    0 -0.32088254131E+02  0.12853201476E+02  0.23060751537E+02  0.41553222099E+02  0.10566000000E+00 0. -1.
         22    1    1    0    0    0  0.12770429378E+02  0.72969485507E+01  0.24391484973E+02  0.28482869655E+02  0.00000000000E+00 0.  1.
</event>
<event>
 5    1  0.1264731E-009  0.9118800E+02  0.7815553E-02  0.1125453E+00
         25   -1    0    0    0    0  0.00000000000E+00  0.00000000000E+00  0.99999998245E-14  0.12509000000E+03  0.12509000000E+03 0.  0.
        -13    1    3    3    0    0  0.36511632708E+02  0.22862402686E+02  0.43141427203E+02  0.60967062293E+02  0.10566000000E+00 0.  1.
         23    2    1    0    0    0  0.20819532745E+02  0.19932736703E+01  0.23432931173E+02  0.93680951193E+02  0.88258666823E+02 0.  0.
         13    1    3    3    0    0 -0.15692099963E+02 -0.20869129016E+02 -0.19708496030E+02  0.32713888899E+02  0.10566000000E+00 0. -1.
         22    1    1    0    0    0 -0.20819532745E+02 -0.19932736703E+01 -0.23432931173E+02  0.31409048807E+02  0.00000000000E+00 0.  1.
</event>
<event>
 5    1  0.1264731E-009  0.9118800E+02  0.7815553E-02  0.1125453E+00
         25   -1    0    0    0    0  0.00000000000E+00  0.00000000000E+00  0.99999998245E-14  0.12509000000E+03  0.12509000000E+03 0.  0.
        -13    1    3    3    0    0 -0.78939776017E+01 -0.13496984550E+02 -0.47978082768E+02  0.50461778253E+02  0.10566000000E+00 0.  1.
         23    2    1    0    0    0  0.11969519602E+02  0.16857180383E+02 -0.20550235538E+02  0.95939595018E+02  0.91403828046E+02 0.  0.
         13    1    3    3    0    0  0.19863497203E+02  0.30354164933E+02  0.27427847231E+02  0.45477816765E+02  0.10566000000E+00 0. -1.
         22    1    1    0    0    0 -0.11969519602E+02 -0.16857180383E+02  0.20550235538E+02  0.29150404982E+02  0.00000000000E+00 0.  1.
</event>
<event>
 5    1  0.1264731E-009  0.9118800E+02  0.7815553E-02  0.1125453E+00
         25   -1    0    0    0    0  0.00000000000E+00  0.00000000000E+00  0.99999998245E-14  0.12509000000E+03  0.12509000000E+03 0.  0.
        -13    1    3    3    0    0  0.19352713254E+02 -0.50492917413E+02 -0.80771193374E+00  0.54080733924E+02  0.10566000000E+00 0. -1.
         23    2    1    0    0    0 -0.41773408448E+01 -0.18742953756E+02 -0.19434043102E+02  0.97769119280E+02  0.93874225224E+02 0.  0.
         13    1    3    3    0    0 -0.23530054099E+02  0.31749963657E+02 -0.18626331169E+02  0.43688385355E+02  0.10566000000E+00 0.  1.
         22    1    1    0    0    0  0.41773408448E+01  0.18742953756E+02  0.19434043102E+02  0.27320880720E+02  0.00000000000E+00 0. -1.
</event>
<event>
 5    1  0.1264731E-009  0.9118800E+02  0.7815553E-02  0.1125453E+00
         25   -1    0    0    0    0  0.00000000000E+00  0.00000000000E+00  0.99999998245E-14  0.12509000000E+03  0.12509000000E+03 0.  0.
        -13    1    3    3    0    0 -0.49833670534E+01 -0.26802060383E+02 -0.17833208541E+02  0.32576354597E+02  0.10566000000E+00 0.  1.
         23    2    1    0    0    0 -0.20183048858E+02 -0.56057556108E+01  0.30846466343E+02  0.87803481753E+02  0.79493188166E+02 0.  0.
         13    1    3    3    0    0 -0.15199681804E+02  0.21196304772E+02  0.48679674884E+02  0.55227127155E+02  0.10566000000E+00 0. -1.
         22    1    1    0    0    0  0.20183048858E+02  0.56057556108E+01 -0.30846466343E+02  0.37286518247E+02  0.00000000000E+00 0. -1.
</event>
<event>
 5    1  0.1264731E-009  0.9118800E+02  0.7815553E-02  0.1125453E+00
         25   -1    0    0    0    0  0.00000000000E+00  0.00000000000E+00  0.99999998245E-14  0.12509000000E+03  0.12509000000E+03 0.  0.
        -13    1    3    3    0    0 -0.11058113791E+02  0.31890294142E+02 -0.72132723921E+01  0.34515434282E+02  0.10566000000E+00 0.  1.
         23    2    1    0    0    0  0.79960519917E+01 -0.27120117343E+02 -0.19752365102E+01  0.96746761451E+02  0.92501873927E+02 0.  0.
         13    1    3    3    0    0  0.19054165782E+02 -0.59010411485E+02  0.52380358819E+01  0.62231327169E+02  0.10566000000E+00 0. -1.
         22    1    1    0    0    0 -0.79960519917E+01  0.27120117343E+02  0.19752365102E+01  0.28343238549E+02  0.00000000000E+00 0. -1.
</event>
<event>
 5    1  0.1264731E-009  0.9118800E+02  0.7815553E-02  0.1125453E+00
         25   -1    0    0    0    0  0.00000000000E+00  0.00000000000E+00  0.99999998245E-14  0.12509000000E+03  0.12509000000E+03 0.  0.
        -13    1    3    3    0    0 -0.46513689480E+02 -0.57733885602E+01 -0.41143771992E+02  0.62367270761E+02  0.10566000000E+00 0. -1.
         23    2    1    0    0    0 -0.23338423208E+02 -0.31618728719E+00 -0.17541854670E+02  0.95892420691E+02  0.91339245171E+02 0.  0.
         13    1    3    3    0    0  0.23175266271E+02  0.54572012730E+01  0.23601917322E+02  0.33525149929E+02  0.10566000000E+00 0.  1.
         22    1    1    0    0    0  0.23338423208E+02  0.31618728719E+00  0.17541854670E+02  0.29197579309E+02  0.00000000000E+00 0. -1.
</event>
<event>
 5    1  0.1264731E-009  0.9118800E+02  0.7815553E-02  0.1125453E+00
         25   -1    0    0    0    0  0.00000000000E+00  0.00000000000E+00  0.99999998245E-14  0.12509000000E+03  0.12509000000E+03 0.  0.
        -13    1    3    3    0    0  0.29065800181E+02 -0.93651825610E+01 -0.29177812660E+02  0.42236042668E+02  0.10566000000E+00 0.  1.
         23    2    1    0    0    0 -0.22866528400E+02  0.32419910296E+01 -0.15088230126E+02  0.97502986475E+02  0.93518923520E+02 0.  0.
         13    1    3    3    0    0 -0.51932328581E+02  0.12607173591E+02  0.14089582534E+02  0.55266943807E+02  0.10566000000E+00 0. -1.
         22    1    1    0    0    0  0.22866528400E+02 -0.32419910296E+01  0.15088230126E+02  0.27587013525E+02  0.00000000000E+00 0. -1.
</event>
<event>
 5    1  0.1264731E-009  0.9118800E+02  0.7815553E-02  0.1125453E+00
         25   -1    0    0    0    0  0.00000000000E+00  0.00000000000E+00  0.99999998245E-14  0.12509000000E+03  0.12509000000E+03 0.  0.
        -13    1    3    3    0    0 -0.31188926095E+02 -0.30424144435E+02  0.50690015921E+01  0.43864377538E+02  0.10566000000E+00 0. -1.
         23    2    1    0    0    0 -0.20106738931E+02 -0.31877458899E+02 -0.27589056060E+02  0.78382298809E+02  0.62945813332E+02 0.  0.
         13    1    3    3    0    0  0.11082187164E+02 -0.14533144638E+01 -0.32658057652E+02  0.34517921271E+02  0.10566000000E+00 0.  1.
         22    1    1    0    0    0  0.20106738931E+02  0.31877458899E+02  0.27589056060E+02  0.46707701191E+02  0.00000000000E+00 0. -1.
</event>
<event>
 5    1  0.1264731E-009  0.9118800E+02  0.7815553E-02  0.1125453E+00
         25   -1    0    0    0    0  0.00000000000E+00  0.00000000000E+00  0.99999998245E-14  0.12509000000E+03  0.12509000000E+03 0.  0.
        -13    1    3    3    0    0 -0.55069412583E+01  0.20419721019E+02  0.48270984259E+02  0.52700953444E+02  0.10566000000E+00 0. -1.
         23    2    1    0    0    0  0.80744957739E+01 -0.12852916119E+02  0.26010213100E+02  0.94974785900E+02  0.90073768859E+02 0.  0.
         13    1    3    3    0    0  0.13581437032E+02 -0.33272637138E+02 -0.22260771159E+02  0.42273832457E+02  0.10566000000E+00 0.  1.
         22    1    1    0    0    0 -0.80744957739E+01  0.12852916119E+02 -0.26010213100E+02  0.30115214100E+02  0.00000000000E+00 0.  1.
</event>
<event>
 5    1  0.1264731E-009  0.9118800E+02  0.7815553E-02  0.1125453E+00
         25   -1    0    0    0    0  0.00000000000E+00  0.00000000000E+00  0.99999998245E-14  0.12509000000E+03  0.12509000000E+03 0.  0.
        -13    1    3    3    0    0 -0.12256831428E+02  0.38158818458E+00  0.44820077132E+02  0.46467472541E+02  0.10566000000E+00 0. -1.
         23    2    1    0    0    0  0.24014550178E+01 -0.27876636780E+02  0.63542502020E+01  0.96397660255E+02  0.92028574599E+02 0.  0.
         13    1    3    3    0    0  0.14658286446E+02 -0.28258224965E+02 -0.38465826930E+02  0.49930187714E+02  0.10566000000E+00 0.  1.
         22    1    1    0    0    0 -0.24014550178E+01  0.27876636780E+02 -0.63542502020E+01  0.28692339745E+02  0.00000000000E+00 0.  1.
</event>
<event>
 5    1  0.1264731E-009  0.9118800E+02  0.7815553E-02  0.1125453E+00
         25   -1    0    0    0    0  0.00000000000E+00  0.00000000000E+00  0.99999998245E-14  0.12509000000E+03  0.12509000000E+03 0.  0.
        -13    1    3    3    0    0  0.28076931961E+02 -0.61996674528E+01  0.34610109060E+02  0.44995786448E+02  0.10566000000E+00 0. -1.
         23    2    1    0    0    0  0.11008658679E+02 -0.26670588082E+02 -0.79038156127E+01  0.95173764679E+02  0.90349678180E+02 0.  0.
         13    1    3    3    0    0 -0.17068273282E+02 -0.20470920629E+02 -0.42513924673E+02  0.50177978231E+02  0.10566000000E+00 0.  1.
         22    1    1    0    0    0 -0.11008658679E+02  0.26670588082E+02  0.79038156127E+01  0.29916235321E+02  0.00000000000E+00 0. -1.
</event>
<event>
 5    1  0.1264731E-009  0.9118800E+02  0.7815553E-02  0.1125453E+00
         25   -1    0    0    0    0  0.00000000000E+00  0.00000000000E+00  0.99999998245E-14  0.12509000000E+03  0.12509000000E+03 0.  0.
        -13    1    3    3    0    0 -0.45823139964E+02  0.98886713075E+01  0.16350069095E+02  0.49647576979E+02  0.10566000000E+00 0.  1.
         23    2    1    0    0    0 -0.49390344411E+02 -0.23185379438E+00 -0.68662745137E+01  0.75224123862E+02  0.56321072503E+02 0.  0.
         13    1    3    3    0    0 -0.35672044474E+01 -0.10120525102E+02 -0.23216343609E+02  0.25576546884E+02  0.10566000000E+00 0. -1.
         22    1    1    0    0    0  0.49390344411E+02  0.23185379438E+00  0.68662745137E+01  0.49865876138E+02  0.00000000000E+00 0.  1.
</event>
<event>
 5    1  0.1264731E-009  0.9118800E+02  0.7815553E-02  0.1125453E+00
         25   -1    0    0    0    0  0.00000000000E+00  0.00000000000E+00  0.99999998245E-14  0.12509000000E+03  0.12509000000E+03 0.  0.
        -13    1    3    3    0    0 -0.28487430062E+02  0.35310767561E+02  0.27623798234E+02  0.53117505308E+02  0.10566000000E+00 0.  1.
         23    2    1    0    0    0 -0.20061099631E+02  0.20360952418E+02 -0.10271040160E+02  0.94717144228E+02  0.89715255353E+02 0.  0.
         13    1    3    3    0    0  0.84263304306E+01 -0.14949815144E+02 -0.37894838394E+02  0.41599638920E+02  0.10566000000E+00 0. -1.
         22    1    1    0    0    0  0.20061099631E+02 -0.20360952418E+02  0.10271040160E+02  0.30372855772E+02  0.00000000000E+00 0.  1.
</event>
<event>
 5    1  0.1264731E-009  0.9118800E+02  0.7815553E-02  0.1125453E+00
         25   -1    0    0    0    0  0.00000000000E+00  0.00000000000E+00  0.99999998245E-14  0.12509000000E+03  0.12509000000E+03 0.  0.
        -13    1    3    3    0    0  0.26232812330E+02 -0.32620494179E+02  0.38294828322E+02  0.56734135434E+02  0.10566000000E+00 0. -1.
         23    2    1    0    0    0 -0.14871163112E+01 -0.69059363667E+01  0.28409146141E+02  0.95815727055E+02  0.91234152019E+02 0.  0.
         13    1    3    3    0    0 -0.27719928641E+02  0.25714557813E+02 -0.98856821816E+01  0.39081591620E+02  0.10566000000E+00 0.  1.
         22    1    1    0    0    0  0.14871163112E+01  0.69059363667E+01 -0.28409146141E+02  0.29274272945E+02  0.00000000000E+00 0. -1.
</event>
<event>
 5    1  0.1264731E-009  0.9118800E+02  0.7815553E-02  0.1125453E+00
         25   -1    0    0    0    0  0.00000000000E+00  0.00000000000E+00  0.99999998245E-14  0.12509000000E+03  0.12509000000E+03 0.  0.
        -13    1    3    3    0    0  0.29811811109E+01 -0.37396933631E+02 -0.13569883934E+02  0.39894498365E+02  0.10566000000E+00 0. -1.
         23    2    1    0    0    0  0.12653383260E+01 -0.25140634597E+01  0.29562512405E+02  0.95393809405E+02  0.90653820310E+02 0.  0.
         13    1    3    3    0    0 -0.17158427849E+01  0.34882870171E+02  0.43132396339E+02  0.55499311039E+02  0.10566000000E+00 0.  1.
         22    1    1    0    0    0 -0.12653383260E+01  0.25140634597E+01 -0.29562512405E+02  0.29696190595E+02  0.00000000000E+00 0. -1.
</event>
<event>
 5    1  0.1264731E-009  0.9118800E+02  0.7815553E-02  0.1125453E+00
         25   -1    0    0    0    0  0.00000000000E+00  0.00000000000E+00  0.99999998245E-14  0.12509000000E+03  0.12509000000E+03 0.  0.
        -13    1    3    3    0    0  0.90546129612E+01  0.49922721285E+01  0.45696592400E+02  0.46851878488E+02  0.10566000000E+00 0. -1.
         23    2    1    0    0    0 -0.20201771055E+02 -0.17148499216E+02  0.23055001096E+02  0.89965711329E+02  0.82825802503E+02 0.  0.
         13    1    3    3    0    0 -0.29256384016E+02 -0.22140771345E+02 -0.22641591304E+02  0.43113832841E+02  0.10566000000E+00 0.  1.
         22    1    1    0    0    0  0.20201771055E+02  0.17148499216E+02 -0.23055001096E+02  0.35124288671E+02  0.00000000000E+00 0. -1.
</event>
<event>
 5    1  0.1264731E-009  0.9118800E+02  0.7815553E-02  0.1125453E+00
         25   -1    0    0    0    0  0.00000000000E+00  0.00000000000E+00  0.99999998245E-14  0.12509000000E+03  0.12509000000E+03 0.  0.
        -13    1    3    3    0    0  0.28036992610E+02 -0.27331597732E+02  0.36789695523E+02  0.53726921091E+02  0.10566000000E+00 0. -1.
         23    2    1    0    0    0  0.21740152266E+02  0.89000484951E+01  0.20353409650E+02  0.94007748341E+02  0.88720631084E+02 0.  0.
         13    1    3    3    0    0 -0.62968403437E+01  0.36231646227E+02 -0.16436285873E+02  0.40280827250E+02  0.10566000000E+00 0.  1.
         22    1    1    0    0    0 -0.21740152266E+02 -0.89000484951E+01 -0.20353409650E+02  0.31082251659E+02  0.00000000000E+00 0. -1.
</event>
<event>
 5    1  0.1264731E-009  0.9118800E+02  0.7815553E-02  0.1125453E+00
         25   -1    0    0    0    0  0.00000000000E+00  0.00000000000E+00  0.99999998245E-14  0.12509000000E+03  0.12509000000E+03 0.  0.
        -13    1    3    3    0    0 -0.42362522058E+01  0.41683110601E+02 -0.25296470157E+02  0.48942314091E+02  0.10566000000E+00 0. -1.
         23    2    1    0    0    0 -0.12966334757E+02  0.19688617232E+02  0.16042051394E+02  0.96574830380E+02  0.92269079135E+02 0.  0.
         13    1    3    3    0    0 -0.87300825511E+01 -0.21994493369E+02  0.41338521552E+02  0.47632516289E+02  0.10566000000E+00 0.  1.
         22    1    1    0    0    0  0.12966334757E+02 -0.19688617232E+02 -0.16042051394E+02  0.28515169620E+02  0.00000000000E+00 0.  1.
</event>
<event>
 5    1  0.1264731E-009  0.9118800E+02  0.7815553E-02  0.1125453E+00
         25   -1    0    0    0    0  0.00000000000E+00  0.00000000000E+00  0.99999998245E-14  0.12509000000E+03  0.12509000000E+03 0.  0.
        -13    1    3    3    0    0 -0.30366683681E+01 -0.12545124091E+02  0.39684182575E+02  0.41730648257E+02  0.10566000000E+00 0.  1.
         23    2    1    0    0    0 -0.10957942847E+02 -0.26426713329E+02 -0.10666855378E+02  0.94557566548E+02  0.89492479567E+02 0.  0.
         13    1    3    3    0    0 -0.79212744784E+01 -0.13881589239E+02 -0.50351037953E+02  0.52826918291E+02  0.10566000000E+00 0. -1.
         22    1    1    0    0    0  0.10957942847E+02  0.26426713329E+02  0.10666855378E+02  0.30532433452E+02  0.00000000000E+00 0. -1.
</event>
<event>
 5    1  0.1264731E-009  0.9118800E+02  0.7815553E-02  0.1125453E+00
         25   -1    0    0    0    0  0.00000000000E+00  0.00000000000E+00  0.99999998245E-14  0.12509000000E+03  0.12509000000E+03 0.  0.
        -13    1    3    3    0    0 -0.12470730721E+01  0.30256871749E+01 -0.42837520560E+02  0.42962475556E+02  0.10566000000E+00 0.  1.
         23    2    1    0    0    0  0.12436887498E+02  0.26650930859E+02  0.21661452384E+01  0.95600332802E+02  0.90938348128E+02 0.  0.
         13    1    3    3    0    0  0.13683960570E+02  0.23625243684E+02  0.45003665799E+02  0.52637857245E+02  0.10566000000E+00 0. -1.
         22    1    1    0    0    0 -0.12436887498E+02 -0.26650930859E+02 -0.21661452384E+01  0.29489667198E+02  0.00000000000E+00 0. -1.
</event>
<event>
 5    1  0.1264731E-009  0.9118800E+02  0.7815553E-02  0.1125453E+00
         25   -1    0    0    0    0  0.00000000000E+00  0.00000000000E+00  0.99999998245E-14  0.12509000000E+03  0.12509000000E+03 0.  0.
        -13    1    3    3    0    0 -0.14934821837E+02  0.33580709372E+02  0.60394637825E+01  0.37245123601E+02  0.10566000000E+00 0. -1.
         23    2    1    0    0    0 -0.18499132759E+02 -0.23800858201E+02  0.21493825444E+01  0.94868838387E+02  0.89926513819E+02 0.  0.
         13    1    3    3    0    0 -0.35643109212E+01 -0.57381567574E+02 -0.38900812381E+01  0.57623714785E+02  0.10566000000E+00 0.  1.
         22    1    1    0    0    0  0.18499132759E+02  0.23800858201E+02 -0.21493825444E+01  0.30221161613E+02  0.00000000000E+00 0.  1.
</event>
<event>
 5    1  0.1264731E-009  0.9118800E+02  0.7815553E-02  0.1125453E+00
         25   -1    0    0    0    0  0.00000000000E+00  0.00000000000E+00  0.99999998245E-14  0.12509000000E+03  0.12509000000E+03 0.  0.
        -13    1    3    3    0    0 -0.56771898323E+01  0.55490410421E+01 -0.56601402627E+02  0.57155509658E+02  0.10566000000E+00 0.  1.
         23    2    1    0    0    0  0.14696586941E+02 -0.34101509783E+01 -0.26570373954E+02  0.94535072910E+02  0.89461033085E+02 0.  0.
         13    1    3    3    0    0  0.20373776773E+02 -0.89591920204E+01  0.30031028673E+02  0.37379563252E+02  0.10566000000E+00 0. -1.
         22    1    1    0    0    0 -0.14696586941E+02  0.34101509783E+01  0.26570373954E+02  0.30554927090E+02  0.00000000000E+00 0.  1.
</event>
<event>
 5    1  0.1264731E-009  0.9118800E+02  0.7815553E-02  0.1125453E+00
         25   -1    0    0    0    0  0.00000000000E+00  0.00000000000E+00  0.99999998245E-14  0.12509000000E+03  0.12509000000E+03 0.  0.
        -13    1    3    3    0    0  0.39429112445E+02  0.93445879066E+01  0.13558665924E+02  0.42729671389E+02  0.10566000000E+00 0. -1.
         23    2    1    0    0    0 -0.18548679396E+01  0.11501348465E+02 -0.23890584435E+02  0.98510278853E+02  0.94856699623E+02 0.  0.
         13    1    3    3    0    0 -0.41283980385E+02  0.21567605584E+01 -0.37449250359E+02  0.55780607464E+02  0.10566000000E+00 0.  1.
         22    1    1    0    0    0  0.18548679396E+01 -0.11501348465E+02  0.23890584435E+02  0.26579721147E+02  0.00000000000E+00 0.  1.
</event>
<event>
 5    1  0.1264731E-009  0.9118800E+02  0.7815553E-02  0.1125453E+00
         25   -1    0    0    0    0  0.00000000000E+00  0.00000000000E+00  0.99999998245E-14  0.12509000000E+03  0.12509000000E+03 0.  0.
        -13    1    3    3    0    0  0.55420200532E+02  0.28691617296E+02  0.28527530230E-01  0.62406886703E+02  0.10566000000E+00 0.  1.
         23    2    1    0    0    0  0.26466392620E+02  0.11937013845E+02 -0.24639026821E+01  0.95951828227E+02  0.91420568177E+02 0.  0.
         13    1    3    3    0    0 -0.28953807912E+02 -0.16754603451E+02 -0.24924302124E+01  0.33544941524E+02  0.10566000000E+00 0. -1.
         22    1    1    0    0    0 -0.26466392620E+02 -0.11937013845E+02  0.24639026821E+01  0.29138171773E+02  0.00000000000E+00 0.  1.
</event>
<event>
 5    1  0.1264731E-009  0.9118800E+02  0.7815553E-02  0.1125453E+00
         25   -1    0    0    0    0  0.00000000000E+00  0.00000000000E+00  0.99999998245E-14  0.12509000000E+03  0.12509000000E+03 0.  0.
        -13    1    3    3    0    0 -0.23705112335E+02  0.11790458854E+01 -0.23368139889E+02  0.33307711208E+02  0.10566000000E+00 0. -1.
         23    2    1    0    0    0  0.17624370226E+02  0.13734287546E+02  0.20424018434E+02  0.94818072258E+02  0.89855869132E+02 0.  0.
         13    1    3    3    0    0  0.41329482561E+02  0.12555241660E+02  0.43792158323E+02  0.61510361050E+02  0.10566000000E+00 0.  1.
         22    1    1    0    0    0 -0.17624370226E+02 -0.13734287546E+02 -0.20424018434E+02  0.30271927742E+02  0.00000000000E+00 0.  1.
</event>
<event>
 5    1  0.1264731E-009  0.9118800E+02  0.7815553E-02  0.1125453E+00
         25   -1    0    0    0    0  0.00000000000E+00  0.00000000000E+00  0.99999998245E-14  0.12509000000E+03  0.12509000000E+03 0.  0.
        -13    1    3    3    0    0  0.46269411130E+02 -0.67025692892E+00  0.31121867011E+01  0.46378923239E+02  0.10566000000E+00 0.  1.
         23    2    1    0    0    0  0.45348726289E+01 -0.24226951997E+02 -0.13359522557E+02  0.97054538246E+02  0.92917147386E+02 0.  0.
         13    1    3    3    0    0 -0.41734538501E+02 -0.23556695068E+02 -0.16471709258E+02  0.50675615007E+02  0.10566000000E+00 0. -1.
         22    1    1    0    0    0 -0.45348726289E+01  0.24226951997E+02  0.13359522557E+02  0.28035461754E+02  0.00000000000E+00 0. -1.
</event>
<event>
 5    1  0.1264731E-009  0.9118800E+02  0.7815553E-02  0.1125453E+00
         25   -1    0    0    0    0  0.00000000000E+00  0.00000000000E+00  0.99999998245E-14  0.12509000000E+03  0.12509000000E+03 0.  0.
        -13    1    3    3    0    0 -0.17972868219E+02  0.36946770179E+02  0.82497787582E+01  0.41906536868E+02  0.10566000000E+00 0.  1.
         23    2    1    0    0    0  0.57170404608E+01 -0.91383425869E+01  0.26211243300E+02  0.96748808560E+02  0.92504642184E+02 0.  0.
         13    1    3    3    0    0  0.23689908680E+02 -0.46085112766E+02  0.17961464542E+02  0.54842271693E+02  0.10566000000E+00 0. -1.
         22    1    1    0    0    0 -0.57170404608E+01  0.91383425869E+01 -0.26211243300E+02  0.28341191440E+02  0.00000000000E+00 0. -1.
</event>
<event>
 5    1  0.1264731E-009  0.9118800E+02  0.7815553E-02  0.1125453E+00
         25   -1    0    0    0    0  0.00000000000E+00  0.00000000000E+00  0.99999998245E-14  0.12509000000E+03  0.12509000000E+03 0.  0.
        -13    1    3    3    0    0 -0.41994341661E+02 -0.25962453340E+01 -0.60616689122E+01  0.42509060392E+02  0.10566000000E+00 0. -1.
         23    2    1    0    0    0  0.71524505045E+00  0.26252778925E+02 -0.15040643845E+02  0.94825483747E+02  0.89866186209E+02 0.  0.
         13    1    3    3    0    0  0.42709586711E+02  0.28849024259E+02 -0.89789749323E+01  0.52316423355E+02  0.10566000000E+00 0.  1.
         22    1    1    0    0    0 -0.71524505045E+00 -0.26252778925E+02  0.15040643845E+02  0.30264516253E+02  0.00000000000E+00 0.  1.
</event>
<event>
 5    1  0.1264731E-009  0.9118800E+02  0.7815553E-02  0.1125453E+00
         25   -1    0    0    0    0  0.00000000000E+00  0.00000000000E+00  0.99999998245E-14  0.12509000000E+03  0.12509000000E+03 0.  0.
        -13    1    3    3    0    0 -0.24520172255E+02 -0.54815548349E+02  0.14561736904E+02  0.61790278636E+02  0.10566000000E+00 0.  1.
         23    2    1    0    0    0 -0.15945636751E+02 -0.27779976326E+02  0.13931990681E+02  0.90160202113E+02  0.83119018670E+02 0.  0.
         13    1    3    3    0    0  0.85745355041E+01  0.27035572023E+02 -0.62974622265E+00  0.28369923477E+02  0.10566000000E+00 0. -1.
         22    1    1    0    0    0  0.15945636751E+02  0.27779976326E+02 -0.13931990681E+02  0.34929797887E+02  0.00000000000E+00 0.  1.
</event>
<event>
 5    1  0.1264731E-009  0.9118800E+02  0.7815553E-02  0.1125453E+00
         25   -1    0    0    0    0  0.00000000000E+00  0.00000000000E+00  0.99999998245E-14  0.12509000000E+03  0.12509000000E+03 0.  0.
        -13    1    3    3    0    0  0.21701452950E+02 -0.34066950686E+02 -0.97106727662E+01  0.41542971954E+02  0.10566000000E+00 0. -1.
         23    2    1    0    0    0 -0.15040078601E+02 -0.96972196810E+01  0.22642925982E+02  0.96229263161E+02  0.91799395192E+02 0.  0.
         13    1    3    3    0    0 -0.36741531551E+02  0.24369731005E+02  0.32353598748E+02  0.54686291207E+02  0.10566000000E+00 0.  1.
         22    1    1    0    0    0  0.15040078601E+02  0.96972196810E+01 -0.22642925982E+02  0.28860736839E+02  0.00000000000E+00 0.  1.
</event>
<event>
 5    1  0.1264731E-009  0.9118800E+02  0.7815553E-02  0.1125453E+00
         25   -1    0    0    0    0  0.00000000000E+00  0.00000000000E+00  0.99999998245E-14  0.12509000000E+03  0.12509000000E+03 0.  0.
        -13    1    3    3    0    0  0.67129079333E+01  0.37590381316E+02  0.13168256037E+02  0.40392004549E+02  0.10566000000E+00 0.  1.
         23    2    1    0    0    0  0.12447584641E+02 -0.19228468369E+02 -0.72877867699E+01  0.10105277480E+03  0.98152305628E+02 0.  0.
         13    1    3    3    0    0  0.57346767081E+01 -0.56818849684E+02 -0.20456042807E+02  0.60660770253E+02  0.10566000000E+00 0. -1.
         22    1    1    0    0    0 -0.12447584641E+02  0.19228468369E+02  0.72877867699E+01  0.24037225198E+02  0.00000000000E+00 0. -1.
</event>
<event>
 5    1  0.1264731E-009  0.9118800E+02  0.7815553E-02  0.1125453E+00
         25   -1    0    0    0    0  0.00000000000E+00  0.00000000000E+00  0.99999998245E-14  0.12509000000E+03  0.12509000000E+03 0.  0.
        -13    1    3    3    0    0  0.36245497651E+01 -0.60242420035E+01 -0.44822794013E+02  0.45370947531E+02  0.10566000000E+00 0. -1.
         23    2    1    0    0    0 -0.19356995841E+01  0.28363986622E+02 -0.91674508106E+01  0.95218528253E+02  0.90411632538E+02 0.  0.
         13    1    3    3    0    0 -0.55602493492E+01  0.34388228626E+02  0.35655343203E+02  0.49847580721E+02  0.10566000000E+00 0.  1.
         22    1    1    0    0    0  0.19356995841E+01 -0.28363986622E+02  0.91674508106E+01  0.29871471747E+02  0.00000000000E+00 0. -1.
</event>
<event>
 5    1  0.1264731E-009  0.9118800E+02  0.7815553E-02  0.1125453E+00
         25   -1    0    0    0    0  0.00000000000E+00  0.00000000000E+00  0.99999998245E-14  0.12509000000E+03  0.12509000000E+03 0.  0.
        -13    1    3    3    0    0 -0.41175433974E+02 -0.41245639694E+02  0.16966013106E+02  0.60699884032E+02  0.10566000000E+00 0.  1.
         23    2    1    0    0    0 -0.10487819354E+02 -0.24784095914E+02  0.10930031687E+02  0.96043290070E+02  0.91545629113E+02 0.  0.
         13    1    3    3    0    0  0.30687614620E+02  0.16461543780E+02 -0.60359814189E+01  0.35343406039E+02  0.10566000000E+00 0. -1.
         22    1    1    0    0    0  0.10487819354E+02  0.24784095914E+02 -0.10930031687E+02  0.29046709930E+02  0.00000000000E+00 0.  1.
</event>
<event>
 5    1  0.1264731E-009  0.9118800E+02  0.7815553E-02  0.1125453E+00
         25   -1    0    0    0    0  0.00000000000E+00  0.00000000000E+00  0.99999998245E-14  0.12509000000E+03  0.12509000000E+03 0.  0.
        -13    1    3    3    0    0 -0.32438666445E+02  0.18869717964E+02 -0.17757597435E+01  0.37569905822E+02  0.10566000000E+00 0. -1.
         23    2    1    0    0    0  0.23324683016E+02  0.12596558098E+02 -0.14161420329E+02  0.95035716788E+02  0.90158346957E+02 0.  0.
         13    1    3    3    0    0  0.55763349461E+02 -0.62731598666E+01 -0.12385660585E+02  0.57465810966E+02  0.10566000000E+00 0.  1.
         22    1    1    0    0    0 -0.23324683016E+02 -0.12596558098E+02  0.14161420329E+02  0.30054283212E+02  0.00000000000E+00 0.  1.
</event>
<event>
 5    1  0.1264731E-009  0.9118800E+02  0.7815553E-02  0.1125453E+00
         25   -1    0    0    0    0  0.00000000000E+00  0.00000000000E+00  0.99999998245E-14  0.12509000000E+03  0.12509000000E+03 0.  0.
        -13    1    3    3    0    0  0.34232465161E+02 -0.34946483630E+01 -0.34352776560E+02  0.48623026022E+02  0.10566000000E+00 0.  1.
         23    2    1    0    0    0 -0.92887122324E+01 -0.13868307153E+02 -0.26085895113E+02  0.94120917965E+02  0.88880049261E+02 0.  0.
         13    1    3    3    0    0 -0.43521177393E+02 -0.10373658790E+02  0.82668814468E+01  0.45497891943E+02  0.10566000000E+00 0. -1.
         22    1    1    0    0    0  0.92887122324E+01  0.13868307153E+02  0.26085895113E+02  0.30969082035E+02  0.00000000000E+00 0. -1.
</event>
<event>
 5    1  0.1264731E-009  0.9118800E+02  0.7815553E-02  0.1125453E+00
         25   -1    0    0    0    0  0.00000000000E+00  0.00000000000E+00  0.99999998245E-14  0.12509000000E+03  0.12509000000E+03 0.  0.
        -13    1    3    3    0    0  0.18833116007E+02 -0.71609350598E+01  0.34721829669E+02  0.40144512315E+02  0.10566000000E+00 0. -1.
         23    2    1    0    0    0 -0.25068970015E+02 -0.15825623521E+02  0.25832476065E+02  0.85767990424E+02  0.76222882025E+02 0.  0.
         13    1    3    3    0    0 -0.43902086021E+02 -0.86646884616E+01 -0.88893536034E+01  0.45623478108E+02  0.10566000000E+00 0.  1.
         22    1    1    0    0    0  0.25068970015E+02  0.15825623521E+02 -0.25832476065E+02  0.39322009576E+02  0.00000000000E+00 0.  1.
</event>
<event>
 5    1  0.1264731E-009  0.9118800E+02  0.7815553E-02  0.1125453E+00
         25   -1    0    0    0    0  0.00000000000E+00  0.00000000000E+00  0.99999998245E-14  0.12509000000E+03  0.12509000000E+03 0.  0.
        -13    1    3    3    0    0  0.53392403681E+02  0.19754047098E+02  0.21261366797E+02  0.60770289038E+02  0.10566000000E+00 0. -1.
         23    2    1    0    0    0  0.21184618331E+02  0.77202076642E+01  0.19635138920E+02  0.95191365573E+02  0.90374043503E+02 0.  0.
         13    1    3    3    0    0 -0.32207785351E+02 -0.12033839434E+02 -0.16262278767E+01  0.34421076536E+02  0.10566000000E+00 0.  1.
         22    1    1    0    0    0 -0.21184618331E+02 -0.77202076642E+01 -0.19635138920E+02  0.29898634427E+02  0.00000000000E+00 0. -1.
</event>
<event>
 5    1  0.1264731E-009  0.9118800E+02  0.7815553E-02  0.1125453E+00
         25   -1    0    0    0    0  0.00000000000E+00  0.00000000000E+00  0.99999998245E-14  0.12509000000E+03  0.12509000000E+03 0.  0.
        -13    1    3    3    0    0 -0.46016020887E+02 -0.10937386255E+02  0.40069020564E+02  0.61989016522E+02  0.10566000000E+00 0.  1.
         23    2    1    0    0    0 -0.23199542407E+02 -0.82005913329E+01  0.13849268572E+02  0.96854017530E+02  0.92646802457E+02 0.  0.
         13    1    3    3    0    0  0.22816478480E+02  0.27367949218E+01 -0.26219751992E+02  0.34865001008E+02  0.10566000000E+00 0. -1.
         22    1    1    0    0    0  0.23199542407E+02  0.82005913329E+01 -0.13849268572E+02  0.28235982470E+02  0.00000000000E+00 0.  1.
</event>
<event>
 5    1  0.1264731E-009  0.9118800E+02  0.7815553E-02  0.1125453E+00
         25   -1    0    0    0    0  0.00000000000E+00  0.00000000000E+00  0.99999998245E-14  0.12509000000E+03  0.12509000000E+03 0.  0.
        -13    1    3    3    0    0 -0.41080337513E+02  0.21538943349E+02 -0.37363743626E+01  0.46534845741E+02  0.10566000000E+00 0.  1.
         23    2    1    0    0    0  0.11746827990E+02  0.62988562794E+01  0.15373493675E+02  0.10474281675E+03  0.10274750506E+03 0.  0.
         13    1    3    3    0    0  0.52827165503E+02 -0.15240087069E+02  0.19109868038E+02  0.58207971013E+02  0.10566000000E+00 0. -1.
         22    1    1    0    0    0 -0.11746827990E+02 -0.62988562794E+01 -0.15373493675E+02  0.20347183246E+02  0.00000000000E+00 0. -1.
</event>
<event>
 5    1  0.1264731E-009  0.9118800E+02  0.7815553E-02  0.1125453E+00
         25   -1    0    0    0    0  0.00000000000E+00  0.00000000000E+00  0.99999998245E-14  0.12509000000E+03  0.12509000000E+03 0.  0.
        -13    1    3    3    0    0  0.29959672336E+02  0.98055295761E+01  0.17584108220E+02  0.36096293476E+02  0.10566000000E+00 0. -1.
         23    2    1    0    0    0 -0.59671395030E+01 -0.94700561894E+01 -0.26608222219E+02  0.96223302791E+02  0.91791272964E+02 0.  0.
         13    1    3    3    0    0 -0.35926811839E+02 -0.19275585765E+02 -0.44192330439E+02  0.60127009315E+02  0.10566000000E+00 0.  1.
         22    1    1    0    0    0  0.59671395030E+01  0.94700561894E+01  0.26608222219E+02  0.28866697209E+02  0.00000000000E+00 0.  1.
</event>
<event>
 5    1  0.1264731E-009  0.9118800E+02  0.7815553E-02  0.1125453E+00
         25   -1    0    0    0    0  0.00000000000E+00  0.00000000000E+00  0.99999998245E-14  0.12509000000E+03  0.12509000000E+03 0.  0.
        -13    1    3    3    0    0 -0.24253390392E+02 -0.25265210226E+02 -0.19205726086E+02  0.39942820028E+02  0.10566000000E+00 0.  1.
         23    2    1    0    0    0 -0.88367590421E+01  0.27014705059E+02 -0.75544089187E+01  0.95679938900E+02  0.91047784235E+02 0.  0.
         13    1    3    3    0    0  0.15416631350E+02  0.52279915285E+02  0.11651317167E+02  0.55737118872E+02  0.10566000000E+00 0. -1.
         22    1    1    0    0    0  0.88367590421E+01 -0.27014705059E+02  0.75544089187E+01  0.29410061100E+02  0.00000000000E+00 0. -1.
</event>
<event>
 5    1  0.1264731E-009  0.9118800E+02  0.7815553E-02  0.1125453E+00
         25   -1    0    0    0    0  0.00000000000E+00  0.00000000000E+00  0.99999998245E-14  0.12509000000E+03  0.12509000000E+03 0.  0.
        -13    1    3    3    0    0 -0.15958199556E+02 -0.21845257785E+02 -0.26815403007E+02  0.38091421911E+02  0.10566000000E+00 0. -1.
         23    2    1    0    0    0  0.14659551060E+02 -0.14804727256E+02  0.21131653591E+02  0.95414603290E+02  0.90682508518E+02 0.  0.
         13    1    3    3    0    0  0.30617750616E+02  0.70405305289E+01  0.47947056598E+02  0.57323181379E+02  0.10566000000E+00 0.  1.
         22    1    1    0    0    0 -0.14659551060E+02  0.14804727256E+02 -0.21131653591E+02  0.29675396710E+02  0.00000000000E+00 0.  1.
</event>
<event>
 5    1  0.1264731E-009  0.9118800E+02  0.7815553E-02  0.1125453E+00
         25   -1    0    0    0    0  0.00000000000E+00  0.00000000000E+00  0.99999998245E-14  0.12509000000E+03  0.12509000000E+03 0.  0.
        -13    1    3    3    0    0 -0.37922868291E+02  0.37740072975E+02  0.28134692972E+02  0.60448566238E+02  0.10566000000E+00 0. -1.
         23    2    1    0    0    0 -0.19096381161E+02  0.88069070032E+01  0.20332647576E+02  0.95838505306E+02  0.91265377649E+02 0.  0.
         13    1    3    3    0    0  0.18826487130E+02 -0.28933165972E+02 -0.78020453967E+01  0.35389939068E+02  0.10566000000E+00 0.  1.
         22    1    1    0    0    0  0.19096381161E+02 -0.88069070032E+01 -0.20332647576E+02  0.29251494694E+02  0.00000000000E+00 0. -1.
</event>
<event>
 5    1  0.1264731E-009  0.9118800E+02  0.7815553E-02  0.1125453E+00
         25   -1    0    0    0    0  0.00000000000E+00  0.00000000000E+00  0.99999998245E-14  0.12509000000E+03  0.12509000000E+03 0.  0.
        -13    1    3    3    0    0 -0.28736242142E+00  0.13339198798E+02  0.33204414323E+02  0.35784928340E+02  0.10566000000E+00 0. -1.
         23    2    1    0    0    0 -0.19209618988E+02 -0.65981772424E+01 -0.20572900262E+02  0.96179973542E+02  0.91732206344E+02 0.  0.
         13    1    3    3    0    0 -0.18922256567E+02 -0.19937376041E+02 -0.53777314585E+02  0.60395045202E+02  0.10566000000E+00 0.  1.
         22    1    1    0    0    0  0.19209618988E+02  0.65981772424E+01  0.20572900262E+02  0.28910026458E+02  0.00000000000E+00 0.  1.
</event>
<event>
 5    1  0.1264731E-009  0.9118800E+02  0.7815553E-02  0.1125453E+00
         25   -1    0    0    0    0  0.00000000000E+00  0.00000000000E+00  0.99999998245E-14  0.12509000000E+03  0.12509000000E+03 0.  0.
        -13    1    3    3    0    0  0.45676477536E+02  0.17379141750E+02  0.26819238452E+02  0.55746371032E+02  0.10566000000E+00 0. -1.
         23    2    1    0    0    0  0.29823369766E+02 -0.68363454625E+01  0.26376770222E+02  0.84693180684E+02  0.74438107468E+02 0.  0.
         13    1    3    3    0    0 -0.15853107770E+02 -0.24215487212E+02 -0.44246822919E+00  0.28946809652E+02  0.10566000000E+00 0.  1.
         22    1    1    0    0    0 -0.29823369766E+02  0.68363454625E+01 -0.26376770222E+02  0.40396819316E+02  0.00000000000E+00 0. -1.
</event>
<event>
 5    1  0.1264731E-009  0.9118800E+02  0.7815553E-02  0.1125453E+00
         25   -1    0    0    0    0  0.00000000000E+00  0.00000000000E+00  0.99999998245E-14  0.12509000000E+03  0.12509000000E+03 0.  0.
        -13    1    3    3    0    0 -0.16261402668E+01  0.49397949861E+02  0.13882750489E+02  0.51337546765E+02  0.10566000000E+00 0. -1.
         23    2    1    0    0    0 -0.23720088794E+02  0.96978364940E+01  0.11955271591E+02  0.96812461849E+02  0.92590677745E+02 0.  0.
         13    1    3    3    0    0 -0.22093948528E+02 -0.39700113368E+02 -0.19274788974E+01  0.45474915084E+02  0.10566000000E+00 0.  1.
         22    1    1    0    0    0  0.23720088794E+02 -0.96978364940E+01 -0.11955271591E+02  0.28277538151E+02  0.00000000000E+00 0. -1.
</event>
<event>
 5    1  0.1264731E-009  0.9118800E+02  0.7815553E-02  0.1125453E+00
         25   -1    0    0    0    0  0.00000000000E+00  0.00000000000E+00  0.99999998245E-14  0.12509000000E+03  0.12509000000E+03 0.  0.
        -13    1    3    3    0    0 -0.20934171018E+02 -0.23266288233E+02 -0.15786561507E+02  0.35054049304E+02  0.10566000000E+00 0. -1.
         23    2    1    0    0    0  0.22390615846E+02  0.17130707382E+02  0.17836821798E+01  0.96841418877E+02  0.92629790427E+02 0.  0.
         13    1    3    3    0    0  0.43324786864E+02  0.40396995615E+02  0.17570243686E+02  0.61787369573E+02  0.10566000000E+00 0.  1.
         22    1    1    0    0    0 -0.22390615846E+02 -0.17130707382E+02 -0.17836821798E+01  0.28248581123E+02  0.00000000000E+00 0.  1.
</event>
<event>
 5    1  0.1264731E-009  0.9118800E+02  0.7815553E-02  0.1125453E+00
         25   -1    0    0    0    0  0.00000000000E+00  0.00000000000E+00  0.99999998245E-14  0.12509000000E+03  0.12509000000E+03 0.  0.
        -13    1    3    3    0    0  0.31393150662E+02 -0.84372771551E+01  0.14610266844E+02  0.35639705604E+02  0.10566000000E+00 0.  1.
         23    2    1    0    0    0 -0.24851154974E+02  0.11025751707E+02 -0.30773967010E+01  0.97729125111E+02  0.93820916752E+02 0.  0.
         13    1    3    3    0    0 -0.56244305636E+02  0.19463028862E+02 -0.17687663545E+02  0.62089419507E+02  0.10566000000E+00 0. -1.
         22    1    1    0    0    0  0.24851154974E+02 -0.11025751707E+02  0.30773967010E+01  0.27360874889E+02  0.00000000000E+00 0. -1.
</event>
<event>
 5    1  0.1264731E-009  0.9118800E+02  0.7815553E-02  0.1125453E+00
         25   -1    0    0    0    0  0.00000000000E+00  0.00000000000E+00  0.99999998245E-14  0.12509000000E+03  0.12509000000E+03 0.  0.
        -13    1    3    3    0    0  0.51533160716E+02 -0.96992620339E+01 -0.49722973740E+01  0.52673306736E+02  0.10566000000E+00 0. -1.
         23    2    1    0    0    0  0.20808899521E+02 -0.73485829074E+01 -0.26754046141E+02  0.90408723280E+02  0.83492192989E+02 0.  0.
         13    1    3    3    0    0 -0.30724261195E+02  0.23506791264E+01 -0.21781748767E+02  0.37735416543E+02  0.10566000000E+00 0.  1.
         22    1    1    0    0    0 -0.20808899521E+02  0.73485829074E+01  0.26754046141E+02  0.34681276720E+02  0.00000000000E+00 0. -1.
</event>
<event>
 5    1  0.1264731E-009  0.9118800E+02  0.7815553E-02  0.1125453E+00
         25   -1    0    0    0    0  0.00000000000E+00  0.00000000000E+00  0.99999998245E-14  0.12509000000E+03  0.12509000000E+03 0.  0.
        -13    1    3    3    0    0  0.56982014492E+01  0.31017166914E+02 -0.34079776004E+02  0.46432493361E+02  0.10566000000E+00 0.  1.
         23    2    1    0    0    0 -0.12970571394E+02  0.20374211425E+02  0.12619779618E+02  0.97839255954E+02  0.93967637804E+02 0.  0.
         13    1    3    3    0    0 -0.18668772843E+02 -0.10642955489E+02  0.46699555622E+02  0.51406762593E+02  0.10566000000E+00 0. -1.
         22    1    1    0    0    0  0.12970571394E+02 -0.20374211425E+02 -0.12619779618E+02  0.27250744046E+02  0.00000000000E+00 0. -1.
</event>
<event>
 5    1  0.1264731E-009  0.9118800E+02  0.7815553E-02  0.1125453E+00
         25   -1    0    0    0    0  0.00000000000E+00  0.00000000000E+00  0.99999998245E-14  0.12509000000E+03  0.12509000000E+03 0.  0.
        -13    1    3    3    0    0 -0.32985980941E+02  0.18648123046E+01  0.29639970138E+02  0.44385712312E+02  0.10566000000E+00 0. -1.
         23    2    1    0    0    0  0.43233717246E+01  0.28366338903E+02  0.64917358211E+01  0.95670901445E+02  0.91035366883E+02 0.  0.
         13    1    3    3    0    0  0.37309352666E+02  0.26501526598E+02 -0.23148234317E+02  0.51285189133E+02  0.10566000000E+00 0.  1.
         22    1    1    0    0    0 -0.43233717246E+01 -0.28366338903E+02 -0.64917358211E+01  0.29419098555E+02  0.00000000000E+00 0.  1.
</event>
<event>
 5    1  0.1264731E-009  0.9118800E+02  0.7815553E-02  0.1125453E+00
         25   -1    0    0    0    0  0.00000000000E+00  0.00000000000E+00  0.99999998245E-14  0.12509000000E+03  0.12509000000E+03 0.  0.
        -13    1    3    3    0    0 -0.13844068948E+02  0.17608382259E+02 -0.45656531439E+02  0.50855121649E+02  0.10566000000E+00 0. -1.
         23    2    1    0    0    0 -0.10445520284E+02  0.25187434518E+02  0.56450157024E+00  0.97816672121E+02  0.93937569327E+02 0.  0.
         13    1    3    3    0    0  0.33985486642E+01  0.75790522589E+01  0.46221033010E+02  0.46961550471E+02  0.10566000000E+00 0.  1.
         22    1    1    0    0    0  0.10445520284E+02 -0.25187434518E+02 -0.56450157024E+00  0.27273327879E+02  0.00000000000E+00 0. -1.
</event>
<event>
 5    1  0.1264731E-009  0.9118800E+02  0.7815553E-02  0.1125453E+00
         25   -1    0    0    0    0  0.00000000000E+00  0.00000000000E+00  0.99999998245E-14  0.12509000000E+03  0.12509000000E+03 0.  0.
        -13    1    3    3    0    0 -0.31230482373E+02 -0.14910237357E+02  0.91310140956E+01  0.35791686042E+02  0.10566000000E+00 0.  1.
         23    2    1    0    0    0 -0.86706813640E+01  0.31032550547E+02 -0.11361306107E+02  0.90924532270E+02  0.84261446601E+02 0.  0.
         13    1    3    3    0    0  0.22559801009E+02  0.45942787904E+02 -0.20492320203E+02  0.55132846228E+02  0.10566000000E+00 0. -1.
         22    1    1    0    0    0  0.86706813640E+01 -0.31032550547E+02  0.11361306107E+02  0.34165467730E+02  0.00000000000E+00 0. -1.
</event>
<event>
 5    1  0.1264731E-009  0.9118800E+02  0.7815553E-02  0.1125453E+00
         25   -1    0    0    0    0  0.00000000000E+00  0.00000000000E+00  0.99999998245E-14  0.12509000000E+03  0.12509000000E+03 0.  0.
        -13    1    3    3    0    0 -0.19801298226E+02  0.36230268464E+02 -0.22122426751E+02  0.46841612844E+02  0.10566000000E+00 0.  1.
         23    2    1    0    0    0  0.16028094848E+02  0.31219981003E+01 -0.24457974095E+02  0.95681851581E+02  0.91050412018E+02 0.  0.
         13    1    3    3    0    0  0.35829393074E+02 -0.33108270364E+02 -0.23355473440E+01  0.48840238738E+02  0.10566000000E+00 0. -1.
         22    1    1    0    0    0 -0.16028094848E+02 -0.31219981003E+01  0.24457974095E+02  0.29408148419E+02  0.00000000000E+00 0. -1.
</event>
<event>
 5    1  0.1264731E-009  0.9118800E+02  0.7815553E-02  0.1125453E+00
         25   -1    0    0    0    0  0.00000000000E+00  0.00000000000E+00  0.99999998245E-14  0.12509000000E+03  0.12509000000E+03 0.  0.
        -13    1    3    3    0    0 -0.27076007388E+02 -0.51728545051E+02  0.21667723973E+02  0.62277234809E+02  0.10566000000E+00 0. -1.
         23    2    1    0    0    0 -0.12487407553E+02 -0.22544006491E+02  0.13867088678E+02  0.95824598509E+02  0.91246314747E+02 0.  0.
         13    1    3    3    0    0  0.14588599836E+02  0.29184538561E+02 -0.78006352952E+01  0.33547363700E+02  0.10566000000E+00 0.  1.
         22    1    1    0    0    0  0.12487407553E+02  0.22544006491E+02 -0.13867088678E+02  0.29265401491E+02  0.00000000000E+00 0. -1.
</event>
<event>
 5    1  0.1264731E-009  0.9118800E+02  0.7815553E-02  0.1125453E+00
         25   -1    0    0    0    0  0.00000000000E+00  0.00000000000E+00  0.99999998245E-14  0.12509000000E+03  0.12509000000E+03 0.  0.
        -13    1    3    3    0    0 -0.57321367843E+02  0.42361412004E+01  0.20441089419E+02  0.61004372010E+02  0.10566000000E+00 0.  1.
         23    2    1    0    0    0 -0.26313349185E+02 -0.75524068986E+01  0.11762350774E+02  0.95294294084E+02  0.90516398481E+02 0.  0.
         13    1    3    3    0    0  0.31008018657E+02 -0.11788548099E+02 -0.86787386454E+01  0.34289922074E+02  0.10566000000E+00 0. -1.
         22    1    1    0    0    0  0.26313349185E+02  0.75524068986E+01 -0.11762350774E+02  0.29795705916E+02  0.00000000000E+00 0.  1.
</event>
<event>
 5    1  0.1264731E-009  0.9118800E+02  0.7815553E-02  0.1125453E+00
         25   -1    0    0    0    0  0.00000000000E+00  0.00000000000E+00  0.99999998245E-14  0.12509000000E+03  0.12509000000E+03 0.  0.
        -13    1    3    3    0    0  0.36750692536E+02 -0.22545928673E+02 -0.40928534329E+02  0.59448199199E+02  0.10566000000E+00 0. -1.
         23    2    1    0    0    0  0.11506556591E+02 -0.22477147620E+02 -0.14609260683E+02  0.95917178618E+02  0.91373145106E+02 0.  0.
         13    1    3    3    0    0 -0.25244135946E+02  0.68781052967E-01  0.26319273647E+02  0.36468979419E+02  0.10566000000E+00 0.  1.
         22    1    1    0    0    0 -0.11506556591E+02  0.22477147620E+02  0.14609260683E+02  0.29172821382E+02  0.00000000000E+00 0. -1.
</event>
<event>
 5    1  0.1264731E-009  0.9118800E+02  0.7815553E-02  0.1125453E+00
         25   -1    0    0    0    0  0.00000000000E+00  0.00000000000E+00  0.99999998245E-14  0.12509000000E+03  0.12509000000E+03 0.  0.
        -13    1    3    3    0    0 -0.23263954721E+02 -0.24872597357E+02  0.76942822712E+01  0.34915194862E+02  0.10566000000E+00 0. -1.
         23    2    1    0    0    0  0.49819306544E+00  0.36839421467E+01 -0.34073687436E+02  0.90814122162E+02  0.84097377977E+02 0.  0.
         13    1    3    3    0    0  0.23762147787E+02  0.28556539503E+02 -0.41767969707E+02  0.55898927300E+02  0.10566000000E+00 0.  1.
         22    1    1    0    0    0 -0.49819306544E+00 -0.36839421467E+01  0.34073687436E+02  0.34275877838E+02  0.00000000000E+00 0.  1.
</event>
<event>
 5    1  0.1264731E-009  0.9118800E+02  0.7815553E-02  0.1125453E+00
         25   -1    0    0    0    0  0.00000000000E+00  0.00000000000E+00  0.99999998245E-14  0.12509000000E+03  0.12509000000E+03 0.  0.
        -13    1    3    3    0    0  0.53875528442E+02 -0.25694488094E+02 -0.41658479157E+01  0.59834310694E+02  0.10566000000E+00 0.  1.
         23    2    1    0    0    0  0.18536814904E+02 -0.20995931190E+02  0.49898162013E+01  0.96641082638E+02  0.92358854229E+02 0.  0.
         13    1    3    3    0    0 -0.35338713538E+02  0.46985569045E+01  0.91556641171E+01  0.36806771944E+02  0.10566000000E+00 0. -1.
         22    1    1    0    0    0 -0.18536814904E+02  0.20995931190E+02 -0.49898162013E+01  0.28448917362E+02  0.00000000000E+00 0.  1.
</event>
<event>
 5    1  0.1264731E-009  0.9118800E+02  0.7815553E-02  0.1125453E+00
         25   -1    0    0    0    0  0.00000000000E+00  0.00000000000E+00  0.99999998245E-14  0.12509000000E+03  0.12509000000E+03 0.  0.
        -13    1    3    3    0    0  0.23060060489E+02 -0.32149465747E+02 -0.89724683326E+01  0.40569334350E+02  0.10566000000E+00 0. -1.
         23    2    1    0    0    0 -0.22756716272E+02 -0.36484587583E+01 -0.18716244940E+02  0.95400318098E+02  0.90662800981E+02 0.  0.
         13    1    3    3    0    0 -0.45816776762E+02  0.28501006988E+02 -0.97437766072E+01  0.54830983748E+02  0.10566000000E+00 0.  1.
         22    1    1    0    0    0  0.22756716272E+02  0.36484587583E+01  0.18716244940E+02  0.29689681902E+02  0.00000000000E+00 0.  1.
</event>
<event>
 5    1  0.1264731E-009  0.9118800E+02  0.7815553E-02  0.1125453E+00
         25   -1    0    0    0    0  0.00000000000E+00  0.00000000000E+00  0.99999998245E-14  0.12509000000E+03  0.12509000000E+03 0.  0.
        -13    1    3    3    0    0 -0.30174621035E+02  0.75302975776E+01 -0.10856638619E+02  0.32940718000E+02  0.10566000000E+00 0.  1.
         23    2    1    0    0    0  0.22092448643E+02 -0.12348844630E+02  0.16176904988E+02  0.95052315240E+02  0.90181373502E+02 0.  0.
         13    1    3    3    0    0  0.52267069678E+02 -0.19879142208E+02  0.27033543607E+02  0.62111597240E+02  0.10566000000E+00 0. -1.
         22    1    1    0    0    0 -0.22092448643E+02  0.12348844630E+02 -0.16176904988E+02  0.30037684760E+02  0.00000000000E+00 0. -1.
</event>
<event>
 5    1  0.1264731E-009  0.9118800E+02  0.7815553E-02  0.1125453E+00
         25   -1    0    0    0    0  0.00000000000E+00  0.00000000000E+00  0.99999998245E-14  0.12509000000E+03  0.12509000000E+03 0.  0.
        -13    1    3    3    0    0 -0.32295943465E+02 -0.28084612371E+02  0.12124760085E+02  0.44483641797E+02  0.10566000000E+00 0. -1.
         23    2    1    0    0    0 -0.53895365274E+01  0.12302259487E+02  0.26740617972E+02  0.95165873580E+02  0.90338752218E+02 0.  0.
         13    1    3    3    0    0  0.26906406938E+02  0.40386871858E+02  0.14615857887E+02  0.50682231784E+02  0.10566000000E+00 0.  1.
         22    1    1    0    0    0  0.53895365274E+01 -0.12302259487E+02 -0.26740617972E+02  0.29924126420E+02  0.00000000000E+00 0.  1.
</event>
<event>
 5    1  0.1264731E-009  0.9118800E+02  0.7815553E-02  0.1125453E+00
         25   -1    0    0    0    0  0.00000000000E+00  0.00000000000E+00  0.99999998245E-14  0.12509000000E+03  0.12509000000E+03 0.  0.
        -13    1    3    3    0    0 -0.77425090095E+01 -0.16683241018E+02 -0.26223816336E+02  0.32030870795E+02  0.10566000000E+00 0. -1.
         23    2    1    0    0    0  0.59873506788E+01  0.14977006837E+02  0.25920842596E+02  0.94560519447E+02  0.89496606948E+02 0.  0.
         13    1    3    3    0    0  0.13729859688E+02  0.31660247855E+02  0.52144658932E+02  0.62529648652E+02  0.10566000000E+00 0.  1.
         22    1    1    0    0    0 -0.59873506788E+01 -0.14977006837E+02 -0.25920842596E+02  0.30529480553E+02  0.00000000000E+00 0.  1.
</event>
<event>
 5    1  0.1264731E-009  0.9118800E+02  0.7815553E-02  0.1125453E+00
         25   -1    0    0    0    0  0.00000000000E+00  0.00000000000E+00  0.99999998245E-14  0.12509000000E+03  0.12509000000E+03 0.  0.
        -13    1    3    3    0    0  0.38694840300E+02 -0.11735370268E+02 -0.48088644153E+01  0.40720337943E+02  0.10566000000E+00 0. -1.
         23    2    1    0    0    0 -0.70320205716E+01 -0.14077123157E+02  0.25139487824E+02  0.95431804543E+02  0.90706233307E+02 0.  0.
         13    1    3    3    0    0 -0.45726860871E+02 -0.23417528890E+01  0.29948352239E+02  0.54711466601E+02  0.10566000000E+00 0.  1.
         22    1    1    0    0    0  0.70320205716E+01  0.14077123157E+02 -0.25139487824E+02  0.29658195457E+02  0.00000000000E+00 0.  1.
</event>
<event>
 5    1  0.1264731E-009  0.9118800E+02  0.7815553E-02  0.1125453E+00
         25   -1    0    0    0    0  0.00000000000E+00  0.00000000000E+00  0.99999998245E-14  0.12509000000E+03  0.12509000000E+03 0.  0.
        -13    1    3    3    0    0 -0.45132798903E+02  0.12390114403E+02  0.80784774715E+01  0.47494814812E+02  0.10566000000E+00 0.  1.
         23    2    1    0    0    0 -0.62997117104E+01  0.20078625997E+02 -0.20023407887E+02  0.96042203991E+02  0.91544145059E+02 0.  0.
         13    1    3    3    0    0  0.38833087192E+02  0.76885115949E+01 -0.28101885358E+02  0.48547389180E+02  0.10566000000E+00 0. -1.
         22    1    1    0    0    0  0.62997117104E+01 -0.20078625997E+02  0.20023407887E+02  0.29047796009E+02  0.00000000000E+00 0. -1.
</event>
<event>
 5    1  0.1264731E-009  0.9118800E+02  0.7815553E-02  0.1125453E+00
         25   -1    0    0    0    0  0.00000000000E+00  0.00000000000E+00  0.99999998245E-14  0.12509000000E+03  0.12509000000E+03 0.  0.
        -13    1    3    3    0    0  0.14620538462E+02 -0.20745044429E+02  0.23510441159E+01  0.25488342154E+02  0.10566000000E+00 0. -1.
         23    2    1    0    0    0 -0.39295793508E+02 -0.69720056014E+01  0.14823005188E+02  0.82516654673E+02  0.70685985641E+02 0.  0.
         13    1    3    3    0    0 -0.53916331971E+02  0.13773038828E+02  0.12471961072E+02  0.57028312519E+02  0.10566000000E+00 0.  1.
         22    1    1    0    0    0  0.39295793508E+02  0.69720056014E+01 -0.14823005188E+02  0.42573345327E+02  0.00000000000E+00 0.  1.
</event>
<event>
 5    1  0.1264731E-009  0.9118800E+02  0.7815553E-02  0.1125453E+00
         25   -1    0    0    0    0  0.00000000000E+00  0.00000000000E+00  0.99999998245E-14  0.12509000000E+03  0.12509000000E+03 0.  0.
        -13    1    3    3    0    0 -0.58488886825E+00 -0.28428546921E+02  0.16881468644E+02  0.33068406715E+02  0.10566000000E+00 0.  1.
         23    2    1    0    0    0 -0.21790483013E+01  0.22891035562E+02 -0.18628971547E+02  0.95496312472E+02  0.90795150499E+02 0.  0.
         13    1    3    3    0    0 -0.15941594330E+01  0.51319582484E+02 -0.35510440191E+02  0.62427905757E+02  0.10566000000E+00 0. -1.
         22    1    1    0    0    0  0.21790483013E+01 -0.22891035562E+02  0.18628971547E+02  0.29593687528E+02  0.00000000000E+00 0. -1.
</event>
<event>
 5    1  0.1264731E-009  0.9118800E+02  0.7815553E-02  0.1125453E+00
         25   -1    0    0    0    0  0.00000000000E+00  0.00000000000E+00  0.99999998245E-14  0.12509000000E+03  0.12509000000E+03 0.  0.
        -13    1    3    3    0    0 -0.96162338155E+01  0.51478918139E+02  0.21716423169E+01  0.52414484257E+02  0.10566000000E+00 0.  1.
         23    2    1    0    0    0 -0.22203606385E+02  0.11865399162E+02  0.14838642074E+02  0.95867181306E+02  0.91304673042E+02 0.  0.
         13    1    3    3    0    0 -0.12587372570E+02 -0.39613518977E+02  0.12666999757E+02  0.43452697049E+02  0.10566000000E+00 0. -1.
         22    1    1    0    0    0  0.22203606385E+02 -0.11865399162E+02 -0.14838642074E+02  0.29222818694E+02  0.00000000000E+00 0.  1.
</event>
<event>
 5    1  0.1264731E-009  0.9118800E+02  0.7815553E-02  0.1125453E+00
         25   -1    0    0    0    0  0.00000000000E+00  0.00000000000E+00  0.99999998245E-14  0.12509000000E+03  0.12509000000E+03 0.  0.
        -13    1    3    3    0    0 -0.35743085153E+02  0.38173732167E+01  0.47965949287E+02  0.59940670079E+02  0.10566000000E+00 0.  1.
         23    2    1    0    0    0 -0.25526841674E+02 -0.75119586553E+01  0.19979996648E+02  0.91814642229E+02  0.85572653885E+02 0.  0.
         13    1    3    3    0    0  0.10216243478E+02 -0.11329331872E+02 -0.27985952639E+02  0.31873972150E+02  0.10566000000E+00 0. -1.
         22    1    1    0    0    0  0.25526841674E+02  0.75119586553E+01 -0.19979996648E+02  0.33275357771E+02  0.00000000000E+00 0.  1.
</event>
<event>
 5    1  0.1264731E-009  0.9118800E+02  0.7815553E-02  0.1125453E+00
         25   -1    0    0    0    0  0.00000000000E+00  0.00000000000E+00  0.99999998245E-14  0.12509000000E+03  0.12509000000E+03 0.  0.
        -13    1    3    3    0    0  0.22757949172E+01  0.22943192140E+01  0.22361185087E+02  0.22593735983E+02  0.10566000000E+00 0. -1.
         23    2    1    0    0    0 -0.99255264514E+01  0.75348332997E+01 -0.38363415948E+02  0.84753397870E+02  0.74539231141E+02 0.  0.
         13    1    3    3    0    0 -0.12201321369E+02  0.52405140856E+01 -0.60724601035E+02  0.62159661887E+02  0.10566000000E+00 0.  1.
         22    1    1    0    0    0  0.99255264514E+01 -0.75348332997E+01  0.38363415948E+02  0.40336602130E+02  0.00000000000E+00 0.  1.
</event>
<event>
 5    1  0.1264731E-009  0.9118800E+02  0.7815553E-02  0.1125453E+00
         25   -1    0    0    0    0  0.00000000000E+00  0.00000000000E+00  0.99999998245E-14  0.12509000000E+03  0.12509000000E+03 0.  0.
        -13    1    3    3    0    0  0.27340269006E+02  0.49080913796E+02 -0.20946379588E+02  0.59959889845E+02  0.10566000000E+00 0. -1.
         23    2    1    0    0    0  0.42435355073E+01  0.26917010547E+02 -0.18682871587E+02  0.92050890733E+02  0.85917307591E+02 0.  0.
         13    1    3    3    0    0 -0.23096733498E+02 -0.22163903249E+02  0.22635080004E+01  0.32091000888E+02  0.10566000000E+00 0.  1.
         22    1    1    0    0    0 -0.42435355073E+01 -0.26917010547E+02  0.18682871587E+02  0.33039109267E+02  0.00000000000E+00 0. -1.
</event>
<event>
 5    1  0.1264731E-009  0.9118800E+02  0.7815553E-02  0.1125453E+00
         25   -1    0    0    0    0  0.00000000000E+00  0.00000000000E+00  0.99999998245E-14  0.12509000000E+03  0.12509000000E+03 0.  0.
        -13    1    3    3    0    0  0.38739750332E+02  0.17566625150E+02 -0.26877964723E+02  0.50316902991E+02  0.10566000000E+00 0.  1.
         23    2    1    0    0    0  0.22970896207E+02 -0.18098849769E+02 -0.38800162761E+01  0.95589407433E+02  0.90923318525E+02 0.  0.
         13    1    3    3    0    0 -0.15768854125E+02 -0.35665474919E+02  0.22997948447E+02  0.45272504442E+02  0.10566000000E+00 0. -1.
         22    1    1    0    0    0 -0.22970896207E+02  0.18098849769E+02  0.38800162761E+01  0.29500592567E+02  0.00000000000E+00 0. -1.
</event>
<event>
 5    1  0.1264731E-009  0.9118800E+02  0.7815553E-02  0.1125453E+00
         25   -1    0    0    0    0  0.00000000000E+00  0.00000000000E+00  0.99999998245E-14  0.12509000000E+03  0.12509000000E+03 0.  0.
        -13    1    3    3    0    0 -0.75122031202E+01 -0.20102753181E+02 -0.40351989482E+02  0.45703917779E+02  0.10566000000E+00 0. -1.
         23    2    1    0    0    0  0.35689226682E+01 -0.36243089844E+02 -0.21770311415E+01  0.88606603297E+02  0.80747086095E+02 0.  0.
         13    1    3    3    0    0  0.11081125788E+02 -0.16140336663E+02  0.38174958340E+02  0.42902685518E+02  0.10566000000E+00 0.  1.
         22    1    1    0    0    0 -0.35689226682E+01  0.36243089844E+02  0.21770311415E+01  0.36483396703E+02  0.00000000000E+00 0. -1.
</event>
<event>
 5    1  0.1264731E-009  0.9118800E+02  0.7815553E-02  0.1125453E+00
         25   -1    0    0    0    0  0.00000000000E+00  0.00000000000E+00  0.99999998245E-14  0.12509000000E+03  0.12509000000E+03 0.  0.
        -13    1    3    3    0    0  0.63611465286E+01  0.46425055124E+02 -0.15259677399E+02  0.49281019133E+02  0.10566000000E+00 0. -1.
         23    2    1    0    0    0  0.14375923168E+02  0.98908987600E+00 -0.24812062184E+02  0.96397075863E+02  0.92027780259E+02 0.  0.
         13    1    3    3    0    0  0.80147766397E+01 -0.45435965248E+02 -0.95523847854E+01  0.47116056730E+02  0.10566000000E+00 0.  1.
         22    1    1    0    0    0 -0.14375923168E+02 -0.98908987600E+00  0.24812062184E+02  0.28692924137E+02  0.00000000000E+00 0.  1.
</event>
<event>
 5    1  0.1264731E-009  0.9118800E+02  0.7815553E-02  0.1125453E+00
         25   -1    0    0    0    0  0.00000000000E+00  0.00000000000E+00  0.99999998245E-14  0.12509000000E+03  0.12509000000E+03 0.  0.
        -13    1    3    3    0    0  0.16066793042E+02  0.30174582649E+02  0.51628474193E+02  0.61920576453E+02  0.10566000000E+00 0.  1.
         23    2    1    0    0    0  0.28439875167E+01  0.10863535794E+02  0.26754150535E+02  0.96074672227E+02  0.91588500357E+02 0.  0.
         13    1    3    3    0    0 -0.13222805526E+02 -0.19311046855E+02 -0.24874323658E+02  0.34154095774E+02  0.10566000000E+00 0. -1.
         22    1    1    0    0    0 -0.28439875167E+01 -0.10863535794E+02 -0.26754150535E+02  0.29015327773E+02  0.00000000000E+00 0.  1.
</event>
<event>
 5    1  0.1264731E-009  0.9118800E+02  0.7815553E-02  0.1125453E+00
         25   -1    0    0    0    0  0.00000000000E+00  0.00000000000E+00  0.99999998245E-14  0.12509000000E+03  0.12509000000E+03 0.  0.
        -13    1    3    3    0    0  0.23912452527E+02 -0.23978617622E+01  0.17015037377E+02  0.29446184606E+02  0.10566000000E+00 0.  1.
         23    2    1    0    0    0 -0.17273055476E+02  0.27906144732E+02 -0.14174044539E+02  0.89340665770E+02  0.81876368156E+02 0.  0.
         13    1    3    3    0    0 -0.41185508004E+02  0.30304006494E+02 -0.31189081916E+02  0.59894481164E+02  0.10566000000E+00 0. -1.
         22    1    1    0    0    0  0.17273055476E+02 -0.27906144732E+02  0.14174044539E+02  0.35749334230E+02  0.00000000000E+00 0. -1.
</event>
<event>
 5    1  0.1264731E-009  0.9118800E+02  0.7815553E-02  0.1125453E+00
         25   -1    0    0    0    0  0.00000000000E+00  0.00000000000E+00  0.99999998245E-14  0.12509000000E+03  0.12509000000E+03 0.  0.
        -13    1    3    3    0    0 -0.17119483403E+02 -0.13440763753E+02  0.31419376717E+02  0.38221973256E+02  0.10566000000E+00 0. -1.
         23    2    1    0    0    0  0.92270016704E+01  0.26509247566E+02 -0.25456240131E+01  0.96905643205E+02  0.92716480288E+02 0.  0.
         13    1    3    3    0    0  0.26346485074E+02  0.39950011319E+02 -0.33965000730E+02  0.58683669949E+02  0.10566000000E+00 0.  1.
         22    1    1    0    0    0 -0.92270016704E+01 -0.26509247566E+02  0.25456240131E+01  0.28184356795E+02  0.00000000000E+00 0.  1.
</event>
<event>
 5    1  0.1264731E-009  0.9118800E+02  0.7815553E-02  0.1125453E+00
         25   -1    0    0    0    0  0.00000000000E+00  0.00000000000E+00  0.99999998245E-14  0.12509000000E+03  0.12509000000E+03 0.  0.
        -13    1    3    3    0    0 -0.17400048701E+02  0.50634170468E+02  0.11722763836E+02  0.54808897725E+02  0.10566000000E+00 0.  1.
         23    2    1    0    0    0 -0.87698796592E+01  0.26420941896E+02 -0.16295822702E+02  0.92832740392E+02  0.87048187179E+02 0.  0.
         13    1    3    3    0    0  0.86301690414E+01 -0.24213228572E+02 -0.28018586538E+02  0.38023842667E+02  0.10566000000E+00 0. -1.
         22    1    1    0    0    0  0.87698796592E+01 -0.26420941896E+02  0.16295822702E+02  0.32257259608E+02  0.00000000000E+00 0.  1.
</event>
<event>
 5    1  0.1264731E-009  0.9118800E+02  0.7815553E-02  0.1125453E+00
         25   -1    0    0    0    0  0.00000000000E+00  0.00000000000E+00  0.99999998245E-14  0.12509000000E+03  0.12509000000E+03 0.  0.
        -13    1    3    3    0    0 -0.22254911728E+02  0.53469499238E+01  0.47092768301E+02  0.52360394954E+02  0.10566000000E+00 0. -1.
         23    2    1    0    0    0 -0.22394565768E+02  0.80254024826E+01 -0.17123804794E+01  0.10123929964E+03  0.98389734642E+02 0.  0.
         13    1    3    3    0    0 -0.13965404010E+00  0.26784525589E+01 -0.48805148780E+02  0.48878904682E+02  0.10566000000E+00 0.  1.
         22    1    1    0    0    0  0.22394565768E+02 -0.80254024826E+01  0.17123804794E+01  0.23850700364E+02  0.00000000000E+00 0.  1.
</event>
<event>
 5    1  0.1264731E-009  0.9118800E+02  0.7815553E-02  0.1125453E+00
         25   -1    0    0    0    0  0.00000000000E+00  0.00000000000E+00  0.99999998245E-14  0.12509000000E+03  0.12509000000E+03 0.  0.
        -13    1    3    3    0    0 -0.12101429885E+02  0.28291315100E+01  0.40787756100E+02  0.42639193262E+02  0.10566000000E+00 0.  1.
         23    2    1    0    0    0  0.27356124318E+02  0.10119353543E+02  0.70037314662E+01  0.95093148361E+02  0.90237995084E+02 0.  0.
         13    1    3    3    0    0  0.39457554203E+02  0.72902220329E+01 -0.33784024634E+02  0.52453955098E+02  0.10566000000E+00 0. -1.
         22    1    1    0    0    0 -0.27356124318E+02 -0.10119353543E+02 -0.70037314662E+01  0.29996851639E+02  0.00000000000E+00 0. -1.
</event>
<event>
 5    1  0.1264731E-009  0.9118800E+02  0.7815553E-02  0.1125453E+00
         25   -1    0    0    0    0  0.00000000000E+00  0.00000000000E+00  0.99999998245E-14  0.12509000000E+03  0.12509000000E+03 0.  0.
        -13    1    3    3    0    0 -0.30464361835E+02  0.38171913719E+02  0.38204406890E+02  0.62006130413E+02  0.10566000000E+00 0. -1.
         23    2    1    0    0    0 -0.11022115469E+02  0.22494191361E+02  0.16505625926E+02  0.95091477342E+02  0.90235678651E+02 0.  0.
         13    1    3    3    0    0  0.19442246365E+02 -0.15677722358E+02 -0.21698780964E+02  0.33085346929E+02  0.10566000000E+00 0.  1.
         22    1    1    0    0    0  0.11022115469E+02 -0.22494191361E+02 -0.16505625926E+02  0.29998522658E+02  0.00000000000E+00 0. -1.
</event>
<event>
 5    1  0.1264731E-009  0.9118800E+02  0.7815553E-02  0.1125453E+00
         25   -1    0    0    0    0  0.00000000000E+00  0.00000000000E+00  0.99999998245E-14  0.12509000000E+03  0.12509000000E+03 0.  0.
        -13    1    3    3    0    0  0.23994484130E+02 -0.47997993337E+02 -0.16332454286E+02  0.56091914391E+02  0.10566000000E+00 0.  1.
         23    2    1    0    0    0  0.23016271558E+02 -0.69205038422E+01 -0.14063004751E+02  0.97243811168E+02  0.93171608218E+02 0.  0.
         13    1    3    3    0    0 -0.97821257231E+00  0.41077489495E+02  0.22694495346E+01  0.41151896776E+02  0.10566000000E+00 0. -1.
         22    1    1    0    0    0 -0.23016271558E+02  0.69205038422E+01  0.14063004751E+02  0.27846188832E+02  0.00000000000E+00 0. -1.
</event>
<event>
 5    1  0.1264731E-009  0.9118800E+02  0.7815553E-02  0.1125453E+00
         25   -1    0    0    0    0  0.00000000000E+00  0.00000000000E+00  0.99999998245E-14  0.12509000000E+03  0.12509000000E+03 0.  0.
        -13    1    3    3    0    0  0.32393244470E+02  0.15533148581E+02 -0.56959765940E+00  0.35929606144E+02  0.10566000000E+00 0.  1.
         23    2    1    0    0    0 -0.20633158680E+02 -0.14594095579E+02 -0.10504780910E+02  0.97720942931E+02  0.93810006942E+02 0.  0.
         13    1    3    3    0    0 -0.53026403150E+02 -0.30127244159E+02 -0.99351832503E+01  0.61791336787E+02  0.10566000000E+00 0. -1.
         22    1    1    0    0    0  0.20633158680E+02  0.14594095579E+02  0.10504780910E+02  0.27369057069E+02  0.00000000000E+00 0. -1.
</event>
<event>
 5    1  0.1264731E-009  0.9118800E+02  0.7815553E-02  0.1125453E+00
         25   -1    0    0    0    0  0.00000000000E+00  0.00000000000E+00  0.99999998245E-14  0.12509000000E+03  0.12509000000E+03 0.  0.
        -13    1    3    3    0    0 -0.19875840338E+01  0.43050817882E+02  0.35239536816E+02  0.55670095470E+02  0.10566000000E+00 0. -1.
         23    2    1    0    0    0  0.13905115841E+02  0.23527334099E+02  0.15629765477E+01  0.97716096514E+02  0.93803544315E+02 0.  0.
         13    1    3    3    0    0  0.15892699875E+02 -0.19523483783E+02 -0.33676560268E+02  0.42046001045E+02  0.10566000000E+00 0.  1.
         22    1    1    0    0    0 -0.13905115841E+02 -0.23527334099E+02 -0.15629765477E+01  0.27373903486E+02  0.00000000000E+00 0. -1.
</event>
<event>
 5    1  0.1264731E-009  0.9118800E+02  0.7815553E-02  0.1125453E+00
         25   -1    0    0    0    0  0.00000000000E+00  0.00000000000E+00  0.99999998245E-14  0.12509000000E+03  0.12509000000E+03 0.  0.
        -13    1    3    3    0    0 -0.15685254758E+02 -0.18394834169E+02  0.33969564891E+02  0.41693400483E+02  0.10566000000E+00 0. -1.
         23    2    1    0    0    0 -0.24681907381E+02  0.70559908868E+01 -0.13338142314E+02  0.96160955776E+02  0.91706269229E+02 0.  0.
         13    1    3    3    0    0 -0.89966526230E+01  0.25450825056E+02 -0.47307707205E+02  0.54467555292E+02  0.10566000000E+00 0.  1.
         22    1    1    0    0    0  0.24681907381E+02 -0.70559908868E+01  0.13338142314E+02  0.28929044224E+02  0.00000000000E+00 0.  1.
</event>
<event>
 5    1  0.1264731E-009  0.9118800E+02  0.7815553E-02  0.1125453E+00
         25   -1    0    0    0    0  0.00000000000E+00  0.00000000000E+00  0.99999998245E-14  0.12509000000E+03  0.12509000000E+03 0.  0.
        -13    1    3    3    0    0 -0.10512966087E+02  0.33548558606E+02  0.52180131160E+01  0.35542468477E+02  0.10566000000E+00 0.  1.
         23    2    1    0    0    0  0.27269261910E+02  0.15661702675E+02 -0.23132076650E+02  0.86051627263E+02  0.76686948098E+02 0.  0.
         13    1    3    3    0    0  0.37782227997E+02 -0.17886855931E+02 -0.28350089766E+02  0.50509158786E+02  0.10566000000E+00 0. -1.
         22    1    1    0    0    0 -0.27269261910E+02 -0.15661702675E+02  0.23132076650E+02  0.39038372737E+02  0.00000000000E+00 0. -1.
</event>
<event>
 5    1  0.1264731E-009  0.9118800E+02  0.7815553E-02  0.1125453E+00
         25   -1    0    0    0    0  0.00000000000E+00  0.00000000000E+00  0.99999998245E-14  0.12509000000E+03  0.12509000000E+03 0.  0.
        -13    1    3    3    0    0  0.24541297081E+02  0.27515839499E+02 -0.18163831321E+01  0.36914862826E+02  0.10566000000E+00 0.  1.
         23    2    1    0    0    0  0.73416302796E+00 -0.25883890769E+02 -0.12478996450E+02  0.96345606649E+02  0.91957793424E+02 0.  0.
         13    1    3    3    0    0 -0.23807134053E+02 -0.53399730268E+02 -0.10662613318E+02  0.59430743823E+02  0.10566000000E+00 0. -1.
         22    1    1    0    0    0 -0.73416302796E+00  0.25883890769E+02  0.12478996450E+02  0.28744393351E+02  0.00000000000E+00 0. -1.
</event>
<event>
 5    1  0.1264731E-009  0.9118800E+02  0.7815553E-02  0.1125453E+00
         25   -1    0    0    0    0  0.00000000000E+00  0.00000000000E+00  0.99999998245E-14  0.12509000000E+03  0.12509000000E+03 0.  0.
        -13    1    3    3    0    0  0.32887135186E+02 -0.12390352009E+02 -0.37128277012E+02  0.51123425174E+02  0.10566000000E+00 0. -1.
         23    2    1    0    0    0  0.23987306852E+02 -0.19002045375E+02  0.44605584935E+01  0.94164845182E+02  0.88941851047E+02 0.  0.
         13    1    3    3    0    0 -0.88998283344E+01 -0.66116933660E+01  0.41588835505E+02  0.43041420008E+02  0.10566000000E+00 0.  1.
         22    1    1    0    0    0 -0.23987306852E+02  0.19002045375E+02 -0.44605584935E+01  0.30925154818E+02  0.00000000000E+00 0. -1.
</event>
<event>
 5    1  0.1264731E-009  0.9118800E+02  0.7815553E-02  0.1125453E+00
         25   -1    0    0    0    0  0.00000000000E+00  0.00000000000E+00  0.99999998245E-14  0.12509000000E+03  0.12509000000E+03 0.  0.
        -13    1    3    3    0    0 -0.37763193316E+02 -0.15337020360E+02 -0.34756313826E+02  0.53565805117E+02  0.10566000000E+00 0.  1.
         23    2    1    0    0    0 -0.18757303921E+02  0.16112392534E+02 -0.20460705589E+02  0.92995045307E+02  0.87281110985E+02 0.  0.
         13    1    3    3    0    0  0.19005889395E+02  0.31449412894E+02  0.14295608237E+02  0.39429240190E+02  0.10566000000E+00 0. -1.
         22    1    1    0    0    0  0.18757303921E+02 -0.16112392534E+02  0.20460705589E+02  0.32094954693E+02  0.00000000000E+00 0.  1.
</event>
<event>
 5    1  0.1264731E-009  0.9118800E+02  0.7815553E-02  0.1125453E+00
         25   -1    0    0    0    0  0.00000000000E+00  0.00000000000E+00  0.99999998245E-14  0.12509000000E+03  0.12509000000E+03 0.  0.
        -13    1    3    3    0    0 -0.34572514354E+02 -0.41615310369E+01 -0.66938689994E+00  0.34828671123E+02  0.10566000000E+00 0.  1.
         23    2    1    0    0    0  0.15815353227E+02  0.26432393237E+02 -0.47726596628E+01  0.93919900702E+02  0.88596685365E+02 0.  0.
         13    1    3    3    0    0  0.50387867581E+02  0.30593924274E+02 -0.41032727629E+01  0.59091229580E+02  0.10566000000E+00 0. -1.
         22    1    1    0    0    0 -0.15815353227E+02 -0.26432393237E+02  0.47726596628E+01  0.31170099298E+02  0.00000000000E+00 0. -1.
</event>
<event>
 5    1  0.1264731E-009  0.9118800E+02  0.7815553E-02  0.1125453E+00
         25   -1    0    0    0    0  0.00000000000E+00  0.00000000000E+00  0.99999998245E-14  0.12509000000E+03  0.12509000000E+03 0.  0.
        -13    1    3    3    0    0 -0.24789032510E+02  0.26061184887E+02 -0.13585918248E+01  0.35993588684E+02  0.10566000000E+00 0. -1.
         23    2    1    0    0    0  0.29330370382E+02  0.75558853570E+00 -0.14130483635E+00  0.95749558493E+02  0.91143383982E+02 0.  0.
         13    1    3    3    0    0  0.54119402893E+02 -0.25305596352E+02  0.12172869884E+01  0.59755969809E+02  0.10566000000E+00 0.  1.
         22    1    1    0    0    0 -0.29330370382E+02 -0.75558853570E+00  0.14130483635E+00  0.29340441507E+02  0.00000000000E+00 0.  1.
</event>
<event>
 5    1  0.1264731E-009  0.9118800E+02  0.7815553E-02  0.1125453E+00
         25   -1    0    0    0    0  0.00000000000E+00  0.00000000000E+00  0.99999998245E-14  0.12509000000E+03  0.12509000000E+03 0.  0.
        -13    1    3    3    0    0  0.22507977356E+02  0.39127220585E+02  0.19196685337E+02  0.49051731135E+02  0.10566000000E+00 0. -1.
         23    2    1    0    0    0  0.20935595573E+02 -0.68152952194E+01  0.20453567214E+02  0.95038447250E+02  0.90162135251E+02 0.  0.
         13    1    3    3    0    0 -0.15723817832E+01 -0.45942515805E+02  0.12568818770E+01  0.45986716115E+02  0.10566000000E+00 0.  1.
         22    1    1    0    0    0 -0.20935595573E+02  0.68152952194E+01 -0.20453567214E+02  0.30051552750E+02  0.00000000000E+00 0.  1.
</event>
<event>
 5    1  0.1264731E-009  0.9118800E+02  0.7815553E-02  0.1125453E+00
         25   -1    0    0    0    0  0.00000000000E+00  0.00000000000E+00  0.99999998245E-14  0.12509000000E+03  0.12509000000E+03 0.  0.
        -13    1    3    3    0    0  0.37860912520E+02 -0.39053282231E+02 -0.20441325757E+02  0.58107370553E+02  0.10566000000E+00 0.  1.
         23    2    1    0    0    0  0.88765734810E+01 -0.26561862716E+02  0.22718795187E+01  0.96992179012E+02  0.92833158113E+02 0.  0.
         13    1    3    3    0    0 -0.28984339039E+02  0.12491419515E+02  0.22713205275E+02  0.38884808459E+02  0.10566000000E+00 0. -1.
         22    1    1    0    0    0 -0.88765734810E+01  0.26561862716E+02 -0.22718795187E+01  0.28097820988E+02  0.00000000000E+00 0.  1.
</event>
<event>
 5    1  0.1264731E-009  0.9118800E+02  0.7815553E-02  0.1125453E+00
         25   -1    0    0    0    0  0.00000000000E+00  0.00000000000E+00  0.99999998245E-14  0.12509000000E+03  0.12509000000E+03 0.  0.
        -13    1    3    3    0    0 -0.36940085507E+02  0.18368341671E+01 -0.37021453282E+02  0.52331090607E+02  0.10566000000E+00 0.  1.
         23    2    1    0    0    0 -0.95083908868E+01  0.12814962800E+02 -0.39996753655E+02  0.82027567744E+02  0.69815104370E+02 0.  0.
         13    1    3    3    0    0  0.27431694620E+02  0.10978128633E+02 -0.29753003736E+01  0.29696477137E+02  0.10566000000E+00 0. -1.
         22    1    1    0    0    0  0.95083908868E+01 -0.12814962800E+02  0.39996753655E+02  0.43062432256E+02  0.00000000000E+00 0.  1.
</event>
<event>
 5    1  0.1264731E-009  0.9118800E+02  0.7815553E-02  0.1125453E+00
         25   -1    0    0    0    0  0.00000000000E+00  0.00000000000E+00  0.99999998245E-14  0.12509000000E+03  0.12509000000E+03 0.  0.
        -13    1    3    3    0    0  0.24969818455E+02  0.77614602566E+01 -0.28794100109E+02  0.38895288457E+02  0.10566000000E+00 0.  1.
         23    2    1    0    0    0 -0.27408123619E+02 -0.36038666478E+01 -0.10088082063E+02  0.95662759307E+02  0.91024178235E+02 0.  0.
         13    1    3    3    0    0 -0.52377942074E+02 -0.11365326904E+02  0.18706018045E+02  0.56767470850E+02  0.10566000000E+00 0. -1.
         22    1    1    0    0    0  0.27408123619E+02  0.36038666478E+01  0.10088082063E+02  0.29427240693E+02  0.00000000000E+00 0. -1.
</event>
<event>
 5    1  0.1264731E-009  0.9118800E+02  0.7815553E-02  0.1125453E+00
         25   -1    0    0    0    0  0.00000000000E+00  0.00000000000E+00  0.99999998245E-14  0.12509000000E+03  0.12509000000E+03 0.  0.
        -13    1    3    3    0    0 -0.41014429535E+02 -0.24766591997E+02 -0.32555224902E+02  0.57925998841E+02  0.10566000000E+00 0.  1.
         23    2    1    0    0    0 -0.16247128651E+02 -0.24077234090E+02 -0.39395538754E+01  0.95777844235E+02  0.91182196567E+02 0.  0.
         13    1    3    3    0    0  0.24767300884E+02  0.68935790690E+00  0.28615671027E+02  0.37851845394E+02  0.10566000000E+00 0. -1.
         22    1    1    0    0    0  0.16247128651E+02  0.24077234090E+02  0.39395538754E+01  0.29312155765E+02  0.00000000000E+00 0.  1.
</event>
<event>
 5    1  0.1264731E-009  0.9118800E+02  0.7815553E-02  0.1125453E+00
         25   -1    0    0    0    0  0.00000000000E+00  0.00000000000E+00  0.99999998245E-14  0.12509000000E+03  0.12509000000E+03 0.  0.
        -13    1    3    3    0    0  0.29490137830E+02 -0.42057580650E+01  0.25579406967E+02  0.39264154836E+02  0.10566000000E+00 0.  1.
         23    2    1    0    0    0  0.21469890903E+01 -0.80132544230E+01 -0.26017174737E+02  0.97782213750E+02  0.93891672346E+02 0.  0.
         13    1    3    3    0    0 -0.27343148740E+02 -0.38074963580E+01 -0.51596581704E+02  0.58518058914E+02  0.10566000000E+00 0. -1.
         22    1    1    0    0    0 -0.21469890903E+01  0.80132544230E+01  0.26017174737E+02  0.27307786250E+02  0.00000000000E+00 0. -1.
</event>
<event>
 5    1  0.1264731E-009  0.9118800E+02  0.7815553E-02  0.1125453E+00
         25   -1    0    0    0    0  0.00000000000E+00  0.00000000000E+00  0.99999998245E-14  0.12509000000E+03  0.12509000000E+03 0.  0.
        -13    1    3    3    0    0 -0.21799328278E+02 -0.27672431836E+02 -0.84594555332E+00  0.35237777810E+02  0.10566000000E+00 0.  1.
         23    2    1    0    0    0 -0.63458476284E+01  0.29331615352E+02 -0.58639189741E+01  0.94512246861E+02  0.89429110584E+02 0.  0.
         13    1    3    3    0    0  0.15453480649E+02  0.57004047188E+02 -0.50179734208E+01  0.59274469051E+02  0.10566000000E+00 0. -1.
         22    1    1    0    0    0  0.63458476284E+01 -0.29331615352E+02  0.58639189741E+01  0.30577753139E+02  0.00000000000E+00 0. -1.
</event>
<event>
 5    1  0.1264731E-009  0.9118800E+02  0.7815553E-02  0.1125453E+00
         25   -1    0    0    0    0  0.00000000000E+00  0.00000000000E+00  0.99999998245E-14  0.12509000000E+03  0.12509000000E+03 0.  0.
        -13    1    3    3    0    0 -0.51241968114E+02 -0.26322635121E+02  0.22421428107E+02  0.61817085165E+02  0.10566000000E+00 0.  1.
         23    2    1    0    0    0 -0.21575230787E+02 -0.10203575027E+02  0.16448625109E+02  0.96104472666E+02  0.91629192245E+02 0.  0.
         13    1    3    3    0    0  0.29666737327E+02  0.16119060094E+02 -0.59728029981E+01  0.34287387501E+02  0.10566000000E+00 0. -1.
         22    1    1    0    0    0  0.21575230787E+02  0.10203575027E+02 -0.16448625109E+02  0.28985527334E+02  0.00000000000E+00 0.  1.
</event>
<event>
 5    1  0.1264731E-009  0.9118800E+02  0.7815553E-02  0.1125453E+00
         25   -1    0    0    0    0  0.00000000000E+00  0.00000000000E+00  0.99999998245E-14  0.12509000000E+03  0.12509000000E+03 0.  0.
        -13    1    3    3    0    0  0.34413112225E+02 -0.36288010443E+02  0.27058780884E+02  0.56861857003E+02  0.10566000000E+00 0. -1.
         23    2    1    0    0    0  0.26693916263E+02 -0.13626175004E+01  0.13804115829E+02  0.95007189198E+02  0.90118757723E+02 0.  0.
         13    1    3    3    0    0 -0.77191959619E+01  0.34925392943E+02 -0.13254665055E+02  0.38145332195E+02  0.10566000000E+00 0.  1.
         22    1    1    0    0    0 -0.26693916263E+02  0.13626175004E+01 -0.13804115829E+02  0.30082810802E+02  0.00000000000E+00 0. -1.
</event>
<event>
 5    1  0.1264731E-009  0.9118800E+02  0.7815553E-02  0.1125453E+00
         25   -1    0    0    0    0  0.00000000000E+00  0.00000000000E+00  0.99999998245E-14  0.12509000000E+03  0.12509000000E+03 0.  0.
        -13    1    3    3    0    0  0.25848231250E+02  0.25771950451E+02  0.17282980326E+02  0.40386099859E+02  0.10566000000E+00 0. -1.
         23    2    1    0    0    0  0.30625980399E+02 -0.19596073895E+02  0.14020589777E+02  0.86121631735E+02  0.76801052906E+02 0.  0.
         13    1    3    3    0    0  0.47777491489E+01 -0.45368024345E+02 -0.32623905487E+01  0.45735531877E+02  0.10566000000E+00 0.  1.
         22    1    1    0    0    0 -0.30625980399E+02  0.19596073895E+02 -0.14020589777E+02  0.38968368265E+02  0.00000000000E+00 0.  1.
</event>
<event>
 5    1  0.1264731E-009  0.9118800E+02  0.7815553E-02  0.1125453E+00
         25   -1    0    0    0    0  0.00000000000E+00  0.00000000000E+00  0.99999998245E-14  0.12509000000E+03  0.12509000000E+03 0.  0.
        -13    1    3    3    0    0 -0.15087097941E+02 -0.27791270911E+02 -0.93512089943E+01  0.32976226844E+02  0.10566000000E+00 0.  1.
         23    2    1    0    0    0  0.20019972409E+02  0.76414958081E+01  0.23951476419E+02  0.92951783246E+02  0.87219086400E+02 0.  0.
         13    1    3    3    0    0  0.35107070350E+02  0.35432766719E+02  0.33302685414E+02  0.59975556402E+02  0.10566000000E+00 0. -1.
         22    1    1    0    0    0 -0.20019972409E+02 -0.76414958081E+01 -0.23951476419E+02  0.32138216754E+02  0.00000000000E+00 0. -1.
</event>
<event>
 5    1  0.1264731E-009  0.9118800E+02  0.7815553E-02  0.1125453E+00
         25   -1    0    0    0    0  0.00000000000E+00  0.00000000000E+00  0.99999998245E-14  0.12509000000E+03  0.12509000000E+03 0.  0.
        -13    1    3    3    0    0  0.28397476184E+02  0.37177928003E+02 -0.69727144815E+01  0.47299523206E+02  0.10566000000E+00 0.  1.
         23    2    1    0    0    0  0.73685876969E+01  0.98664729268E+01  0.26824678570E+02  0.95573788302E+02  0.90901827580E+02 0.  0.
         13    1    3    3    0    0 -0.21028888488E+02 -0.27311455077E+02  0.33797393051E+02  0.48274265095E+02  0.10566000000E+00 0. -1.
         22    1    1    0    0    0 -0.73685876969E+01 -0.98664729268E+01 -0.26824678570E+02  0.29516211698E+02  0.00000000000E+00 0. -1.
</event>
<event>
 5    1  0.1264731E-009  0.9118800E+02  0.7815553E-02  0.1125453E+00
         25   -1    0    0    0    0  0.00000000000E+00  0.00000000000E+00  0.99999998245E-14  0.12509000000E+03  0.12509000000E+03 0.  0.
        -13    1    3    3    0    0 -0.81763078566E+01 -0.55382241490E+02  0.23036061458E+02  0.60536897626E+02  0.10566000000E+00 0. -1.
         23    2    1    0    0    0 -0.11190204039E+02 -0.26864312932E+02  0.23553103643E+01  0.95893091557E+02  0.91340163924E+02 0.  0.
         13    1    3    3    0    0 -0.30138961822E+01  0.28517928558E+02 -0.20680751093E+02  0.35356193931E+02  0.10566000000E+00 0.  1.
         22    1    1    0    0    0  0.11190204039E+02  0.26864312932E+02 -0.23553103643E+01  0.29196908443E+02  0.00000000000E+00 0. -1.
</event>
<event>
 5    1  0.1264731E-009  0.9118800E+02  0.7815553E-02  0.1125453E+00
         25   -1    0    0    0    0  0.00000000000E+00  0.00000000000E+00  0.99999998245E-14  0.12509000000E+03  0.12509000000E+03 0.  0.
        -13    1    3    3    0    0 -0.48574637877E+02  0.25498070300E+02  0.26759410205E+02  0.61038710934E+02  0.10566000000E+00 0.  1.
         23    2    1    0    0    0 -0.17038800290E+02  0.19840532238E+02  0.11804492972E+02  0.96396560173E+02  0.92027079297E+02 0.  0.
         13    1    3    3    0    0  0.31535837588E+02 -0.56575380617E+01 -0.14954917233E+02  0.35357849239E+02  0.10566000000E+00 0. -1.
         22    1    1    0    0    0  0.17038800290E+02 -0.19840532238E+02 -0.11804492972E+02  0.28693439827E+02  0.00000000000E+00 0.  1.
</event>
<event>
 5    1  0.1264731E-009  0.9118800E+02  0.7815553E-02  0.1125453E+00
         25   -1    0    0    0    0  0.00000000000E+00  0.00000000000E+00  0.99999998245E-14  0.12509000000E+03  0.12509000000E+03 0.  0.
        -13    1    3    3    0    0  0.13218999299E+02 -0.50458268239E+02  0.21327046302E+02  0.56352753652E+02  0.10566000000E+00 0. -1.
         23    2    1    0    0    0  0.12767699759E+02 -0.28564733745E+02 -0.78485718868E+01  0.92832314843E+02  0.87047575655E+02 0.  0.
         13    1    3    3    0    0 -0.45129953999E+00  0.21893534495E+02 -0.29175618188E+02  0.36479561191E+02  0.10566000000E+00 0.  1.
         22    1    1    0    0    0 -0.12767699759E+02  0.28564733745E+02  0.78485718868E+01  0.32257685157E+02  0.00000000000E+00 0. -1.
</event>
<event>
 5    1  0.1264731E-009  0.9118800E+02  0.7815553E-02  0.1125453E+00
         25   -1    0    0    0    0  0.00000000000E+00  0.00000000000E+00  0.99999998245E-14  0.12509000000E+03  0.12509000000E+03 0.  0.
        -13    1    3    3    0    0 -0.31012249249E+02  0.33038805779E+02 -0.36225216639E+02  0.58013789528E+02  0.10566000000E+00 0.  1.
         23    2    1    0    0    0 -0.54865684853E+01  0.38680575571E+01 -0.26189248620E+02  0.98054078594E+02  0.94253176512E+02 0.  0.
         13    1    3    3    0    0  0.25525680764E+02 -0.29170748222E+02  0.10035968019E+02  0.40040289065E+02  0.10566000000E+00 0. -1.
         22    1    1    0    0    0  0.54865684853E+01 -0.38680575571E+01  0.26189248620E+02  0.27035921406E+02  0.00000000000E+00 0.  1.
</event>
<event>
 5    1  0.1264731E-009  0.9118800E+02  0.7815553E-02  0.1125453E+00
         25   -1    0    0    0    0  0.00000000000E+00  0.00000000000E+00  0.99999998245E-14  0.12509000000E+03  0.12509000000E+03 0.  0.
        -13    1    3    3    0    0  0.37326878377E+02  0.37851711621E+01 -0.48212378963E+02  0.61090654109E+02  0.10566000000E+00 0.  1.
         23    2    1    0    0    0  0.26297393500E+02  0.53846926225E+01 -0.19438016127E+02  0.91948118784E+02  0.85767547811E+02 0.  0.
         13    1    3    3    0    0 -0.11029484877E+02  0.15995214605E+01  0.28774362836E+02  0.30857464676E+02  0.10566000000E+00 0. -1.
         22    1    1    0    0    0 -0.26297393500E+02 -0.53846926225E+01  0.19438016127E+02  0.33141881216E+02  0.00000000000E+00 0.  1.
</event>
<event>
 5    1  0.1264731E-009  0.9118800E+02  0.7815553E-02  0.1125453E+00
         25   -1    0    0    0    0  0.00000000000E+00  0.00000000000E+00  0.99999998245E-14  0.12509000000E+03  0.12509000000E+03 0.  0.
        -13    1    3    3    0    0 -0.31365108025E+02 -0.78421642773E+01 -0.17026161301E+02  0.36539990074E+02  0.10566000000E+00 0. -1.
         23    2    1    0    0    0  0.14696256456E+02  0.25515530719E+02 -0.10693049220E+02  0.93763277169E+02  0.88375271328E+02 0.  0.
         13    1    3    3    0    0  0.46061364480E+02  0.33357694997E+02  0.63331120813E+01  0.57223287095E+02  0.10566000000E+00 0.  1.
         22    1    1    0    0    0 -0.14696256456E+02 -0.25515530719E+02  0.10693049220E+02  0.31326722831E+02  0.00000000000E+00 0.  1.
</event>
<event>
 5    1  0.1264731E-009  0.9118800E+02  0.7815553E-02  0.1125453E+00
         25   -1    0    0    0    0  0.00000000000E+00  0.00000000000E+00  0.99999998245E-14  0.12509000000E+03  0.12509000000E+03 0.  0.
        -13    1    3    3    0    0  0.29088910820E+01 -0.36997589998E+02  0.92499075652E+01  0.38247290976E+02  0.10566000000E+00 0. -1.
         23    2    1    0    0    0 -0.33095189386E+02 -0.34523409307E+02 -0.49088269644E+01  0.77014497581E+02  0.60166260518E+02 0.  0.
         13    1    3    3    0    0 -0.36004080468E+02  0.24741806906E+01 -0.14158734530E+02  0.38767206605E+02  0.10566000000E+00 0.  1.
         22    1    1    0    0    0  0.33095189386E+02  0.34523409307E+02  0.49088269644E+01  0.48075502419E+02  0.00000000000E+00 0. -1.
</event>
<event>
 5    1  0.1264731E-009  0.9118800E+02  0.7815553E-02  0.1125453E+00
         25   -1    0    0    0    0  0.00000000000E+00  0.00000000000E+00  0.99999998245E-14  0.12509000000E+03  0.12509000000E+03 0.  0.
        -13    1    3    3    0    0  0.37847082838E+02 -0.10295927317E+02  0.79755926242E+01  0.40025354969E+02  0.10566000000E+00 0.  1.
         23    2    1    0    0    0 -0.16998939285E+02 -0.22167813190E+02  0.75863509660E+01  0.96143003619E+02  0.91681778700E+02 0.  0.
         13    1    3    3    0    0 -0.54846022123E+02 -0.11871885873E+02 -0.38924165815E+00  0.56117648650E+02  0.10566000000E+00 0. -1.
         22    1    1    0    0    0  0.16998939285E+02  0.22167813190E+02 -0.75863509660E+01  0.28946996381E+02  0.00000000000E+00 0. -1.
</event>
<event>
 5    1  0.1264731E-009  0.9118800E+02  0.7815553E-02  0.1125453E+00
         25   -1    0    0    0    0  0.00000000000E+00  0.00000000000E+00  0.99999998245E-14  0.12509000000E+03  0.12509000000E+03 0.  0.
        -13    1    3    3    0    0  0.21240718780E+02 -0.24642113990E+02 -0.44308224934E+01  0.32833599683E+02  0.10566000000E+00 0.  1.
         23    2    1    0    0    0 -0.19887078652E+02  0.20241658192E+02  0.92777434359E+01  0.95235399904E+02  0.90434972482E+02 0.  0.
         13    1    3    3    0    0 -0.41127797432E+02  0.44883772182E+02  0.13708565929E+02  0.62401800220E+02  0.10566000000E+00 0. -1.
         22    1    1    0    0    0  0.19887078652E+02 -0.20241658192E+02 -0.92777434359E+01  0.29854600096E+02  0.00000000000E+00 0. -1.
</event>
<event>
 5    1  0.1264731E-009  0.9118800E+02  0.7815553E-02  0.1125453E+00
         25   -1    0    0    0    0  0.00000000000E+00  0.00000000000E+00  0.99999998245E-14  0.12509000000E+03  0.12509000000E+03 0.  0.
        -13    1    3    3    0    0 -0.67621479468E+01  0.20125901596E+02 -0.39419582550E+02  0.44773800513E+02  0.10566000000E+00 0. -1.
         23    2    1    0    0    0 -0.13821795752E+02  0.24241055644E+02  0.10438230794E+02  0.95296922303E+02  0.90520030500E+02 0.  0.
         13    1    3    3    0    0 -0.70596478056E+01  0.41151540482E+01  0.49857813344E+02  0.50523121790E+02  0.10566000000E+00 0.  1.
         22    1    1    0    0    0  0.13821795752E+02 -0.24241055644E+02 -0.10438230794E+02  0.29793077697E+02  0.00000000000E+00 0.  1.
</event>
<event>
 4    1  0.1264731E-009  0.9118800E+02  0.7815553E-02  0.1125453E+00
         25   -1    0    0    0    0  0.00000000000E+00  0.00000000000E+00  0.99999998245E-14  0.12509000000E+03  0.12509000000E+03 0.  0.
        -13    1    1    0    0    0  0.23886139699E+02 -0.32077288234E+02 -0.96707485161E+01  0.41146502051E+02  0.10566000000E+00 0.  1.
         13    1    1    0    0    0  0.26510864369E+02  0.11416264050E+02  0.47643931413E+01  0.29255215270E+02  0.10566000000E+00 0. -1.
         22    1    1    0    0    0 -0.50397004068E+02  0.20661024183E+02  0.49063553749E+01  0.54688282679E+02  0.00000000000E+00 0.  1.
</event>
<event>
 5    1  0.1264731E-009  0.9118800E+02  0.7815553E-02  0.1125453E+00
         25   -1    0    0    0    0  0.00000000000E+00  0.00000000000E+00  0.99999998245E-14  0.12509000000E+03  0.12509000000E+03 0.  0.
        -13    1    3    3    0    0  0.13805782533E+02 -0.16461129207E+02 -0.32788010587E+02  0.39199913373E+02  0.10566000000E+00 0. -1.
         23    2    1    0    0    0 -0.28863579482E+02 -0.70082571908E+00  0.15251195479E+01  0.96177660648E+02  0.91729052327E+02 0.  0.
         13    1    3    3    0    0 -0.42669362015E+02  0.15760303488E+02  0.34313130135E+02  0.56977747275E+02  0.10566000000E+00 0.  1.
         22    1    1    0    0    0  0.28863579482E+02  0.70082571908E+00 -0.15251195479E+01  0.28912339352E+02  0.00000000000E+00 0.  1.
</event>
<event>
 5    1  0.1264731E-009  0.9118800E+02  0.7815553E-02  0.1125453E+00
         25   -1    0    0    0    0  0.00000000000E+00  0.00000000000E+00  0.99999998245E-14  0.12509000000E+03  0.12509000000E+03 0.  0.
        -13    1    3    3    0    0 -0.38988933066E+01  0.48828809537E+02 -0.18629824507E+02  0.52407399621E+02  0.10566000000E+00 0. -1.
         23    2    1    0    0    0 -0.10871284808E+02  0.21500244305E+02  0.15316095736E+02  0.96541302531E+02  0.92223613935E+02 0.  0.
         13    1    3    3    0    0 -0.69723915017E+01 -0.27328565232E+02  0.33945920243E+02  0.44133902910E+02  0.10566000000E+00 0.  1.
         22    1    1    0    0    0  0.10871284808E+02 -0.21500244305E+02 -0.15316095736E+02  0.28548697469E+02  0.00000000000E+00 0. -1.
</event>
<event>
 5    1  0.1264731E-009  0.9118800E+02  0.7815553E-02  0.1125453E+00
         25   -1    0    0    0    0  0.00000000000E+00  0.00000000000E+00  0.99999998245E-14  0.12509000000E+03  0.12509000000E+03 0.  0.
        -13    1    3    3    0    0  0.69678598109E+01  0.17068019050E+01 -0.41462616307E+02  0.42078782755E+02  0.10566000000E+00 0.  1.
         23    2    1    0    0    0 -0.10293501586E+02 -0.23413567798E+02  0.63102900929E+01  0.98746668909E+02  0.95167922787E+02 0.  0.
         13    1    3    3    0    0 -0.17261361397E+02 -0.25120369703E+02  0.47772906400E+02  0.56667886154E+02  0.10566000000E+00 0. -1.
         22    1    1    0    0    0  0.10293501586E+02  0.23413567798E+02 -0.63102900929E+01  0.26343331091E+02  0.00000000000E+00 0. -1.
</event>
<event>
 5    1  0.1264731E-009  0.9118800E+02  0.7815553E-02  0.1125453E+00
         25   -1    0    0    0    0  0.00000000000E+00  0.00000000000E+00  0.99999998245E-14  0.12509000000E+03  0.12509000000E+03 0.  0.
        -13    1    3    3    0    0  0.24354547038E+02  0.41545758574E+01  0.18149366099E+02  0.30656404157E+02  0.10566000000E+00 0. -1.
         23    2    1    0    0    0 -0.28628530508E+02  0.21520677323E+02  0.14232624447E+02  0.86550411131E+02  0.77496282213E+02 0.  0.
         13    1    3    3    0    0 -0.52983077547E+02  0.17366101466E+02 -0.39167416512E+01  0.55894006974E+02  0.10566000000E+00 0.  1.
         22    1    1    0    0    0  0.28628530508E+02 -0.21520677323E+02 -0.14232624447E+02  0.38539588869E+02  0.00000000000E+00 0.  1.
</event>
<event>
 5    1  0.1264731E-009  0.9118800E+02  0.7815553E-02  0.1125453E+00
         25   -1    0    0    0    0  0.00000000000E+00  0.00000000000E+00  0.99999998245E-14  0.12509000000E+03  0.12509000000E+03 0.  0.
        -13    1    3    3    0    0  0.66066890921E+01  0.11597780511E+02  0.47762445465E+02  0.49592531841E+02  0.10566000000E+00 0. -1.
         23    2    1    0    0    0 -0.24763677325E+02  0.76493662440E+01  0.14906654318E+02  0.95190821724E+02  0.90373290739E+02 0.  0.
         13    1    3    3    0    0 -0.31370366417E+02 -0.39484142666E+01 -0.32855791147E+02  0.45598289883E+02  0.10566000000E+00 0.  1.
         22    1    1    0    0    0  0.24763677325E+02 -0.76493662440E+01 -0.14906654318E+02  0.29899178276E+02  0.00000000000E+00 0. -1.
</event>
<event>
 5    1  0.1264731E-009  0.9118800E+02  0.7815553E-02  0.1125453E+00
         25   -1    0    0    0    0  0.00000000000E+00  0.00000000000E+00  0.99999998245E-14  0.12509000000E+03  0.12509000000E+03 0.  0.
        -13    1    3    3    0    0 -0.24780757831E+02  0.43901321087E+02  0.11029552318E+02  0.51604981738E+02  0.10566000000E+00 0.  1.
         23    2    1    0    0    0 -0.27806738515E+02 -0.75976803425E+00  0.58183379507E+01  0.96670904117E+02  0.92399235343E+02 0.  0.
         13    1    3    3    0    0 -0.30259806844E+01 -0.44661089121E+02 -0.52112143677E+01  0.45065922378E+02  0.10566000000E+00 0. -1.
         22    1    1    0    0    0  0.27806738515E+02  0.75976803425E+00 -0.58183379507E+01  0.28419095883E+02  0.00000000000E+00 0.  1.
</event>
<event>
 5    1  0.1264731E-009  0.9118800E+02  0.7815553E-02  0.1125453E+00
         25   -1    0    0    0    0  0.00000000000E+00  0.00000000000E+00  0.99999998245E-14  0.12509000000E+03  0.12509000000E+03 0.  0.
        -13    1    3    3    0    0  0.14717228496E+02 -0.27560314482E+02  0.23710428248E+02  0.39221974972E+02  0.10566000000E+00 0.  1.
         23    2    1    0    0    0 -0.19825727390E+02 -0.85872286720E+01 -0.18264445542E+02  0.96798836472E+02  0.92572268032E+02 0.  0.
         13    1    3    3    0    0 -0.34542955885E+02  0.18973085810E+02 -0.41974873790E+02  0.57576861500E+02  0.10566000000E+00 0. -1.
         22    1    1    0    0    0  0.19825727390E+02  0.85872286720E+01  0.18264445542E+02  0.28291163528E+02  0.00000000000E+00 0. -1.
</event>
<event>
 5    1  0.1264731E-009  0.9118800E+02  0.7815553E-02  0.1125453E+00
         25   -1    0    0    0    0  0.00000000000E+00  0.00000000000E+00  0.99999998245E-14  0.12509000000E+03  0.12509000000E+03 0.  0.
        -13    1    3    3    0    0 -0.30519559371E+02  0.16632784330E+02 -0.47343478759E+02  0.58732522198E+02  0.10566000000E+00 0. -1.
         23    2    1    0    0    0 -0.25746061585E+02  0.64185136111E+00 -0.14595483235E+02  0.95487638757E+02  0.90783199790E+02 0.  0.
         13    1    3    3    0    0  0.47734977860E+01 -0.15990932969E+02  0.32747995524E+02  0.36755116558E+02  0.10566000000E+00 0.  1.
         22    1    1    0    0    0  0.25746061585E+02 -0.64185136111E+00  0.14595483235E+02  0.29602361243E+02  0.00000000000E+00 0. -1.
</event>
<event>
 5    1  0.1264731E-009  0.9118800E+02  0.7815553E-02  0.1125453E+00
         25   -1    0    0    0    0  0.00000000000E+00  0.00000000000E+00  0.99999998245E-14  0.12509000000E+03  0.12509000000E+03 0.  0.
        -13    1    3    3    0    0  0.41459090275E+02  0.20403628796E+02 -0.13336250942E+02  0.48093980784E+02  0.10566000000E+00 0.  1.
         23    2    1    0    0    0  0.17104868083E+02  0.17124319399E+01  0.23454001394E+02  0.96010812999E+02  0.91501240953E+02 0.  0.
         13    1    3    3    0    0 -0.24354222192E+02 -0.18691196857E+02  0.36790252336E+02  0.47916832214E+02  0.10566000000E+00 0. -1.
         22    1    1    0    0    0 -0.17104868083E+02 -0.17124319399E+01 -0.23454001394E+02  0.29079187001E+02  0.00000000000E+00 0. -1.
</event>
<event>
 5    1  0.1264731E-009  0.9118800E+02  0.7815553E-02  0.1125453E+00
         25   -1    0    0    0    0  0.00000000000E+00  0.00000000000E+00  0.99999998245E-14  0.12509000000E+03  0.12509000000E+03 0.  0.
        -13    1    3    3    0    0 -0.51315095906E+02 -0.31040814050E+02  0.14290953465E+01  0.59990204886E+02  0.10566000000E+00 0.  1.
         23    2    1    0    0    0 -0.19459288993E+02 -0.18568102537E+02 -0.10493171679E+02  0.96218820394E+02  0.91785164304E+02 0.  0.
         13    1    3    3    0    0  0.31855806913E+02  0.12472711513E+02 -0.11922267025E+02  0.36228615508E+02  0.10566000000E+00 0. -1.
         22    1    1    0    0    0  0.19459288993E+02  0.18568102537E+02  0.10493171679E+02  0.28871179606E+02  0.00000000000E+00 0.  1.
</event>
<event>
 5    1  0.1264731E-009  0.9118800E+02  0.7815553E-02  0.1125453E+00
         25   -1    0    0    0    0  0.00000000000E+00  0.00000000000E+00  0.99999998245E-14  0.12509000000E+03  0.12509000000E+03 0.  0.
        -13    1    3    3    0    0  0.30325097589E+02  0.29605323624E+01 -0.48639613987E+02  0.57395117462E+02  0.10566000000E+00 0.  1.
         23    2    1    0    0    0  0.25926184888E+02 -0.10185309700E+02 -0.15741631664E+02  0.93094585266E+02  0.87423653790E+02 0.  0.
         13    1    3    3    0    0 -0.43989127004E+01 -0.13145842063E+02  0.32897982324E+02  0.35699467804E+02  0.10566000000E+00 0. -1.
         22    1    1    0    0    0 -0.25926184888E+02  0.10185309700E+02  0.15741631664E+02  0.31995414734E+02  0.00000000000E+00 0.  1.
</event>
<event>
 5    1  0.1264731E-009  0.9118800E+02  0.7815553E-02  0.1125453E+00
         25   -1    0    0    0    0  0.00000000000E+00  0.00000000000E+00  0.99999998245E-14  0.12509000000E+03  0.12509000000E+03 0.  0.
        -13    1    3    3    0    0 -0.78452953070E+01  0.35423310472E+02 -0.46729966086E+02  0.59161308959E+02  0.10566000000E+00 0.  1.
         23    2    1    0    0    0 -0.16599953793E+02  0.20521068321E+02 -0.16562274111E+02  0.93929421786E+02  0.88610127199E+02 0.  0.
         13    1    3    3    0    0 -0.87546584858E+01 -0.14902242152E+02  0.30167691976E+02  0.34768112827E+02  0.10566000000E+00 0. -1.
         22    1    1    0    0    0  0.16599953793E+02 -0.20521068321E+02  0.16562274111E+02  0.31160578214E+02  0.00000000000E+00 0.  1.
</event>
<event>
 5    1  0.1264731E-009  0.9118800E+02  0.7815553E-02  0.1125453E+00
         25   -1    0    0    0    0  0.00000000000E+00  0.00000000000E+00  0.99999998245E-14  0.12509000000E+03  0.12509000000E+03 0.  0.
        -13    1    3    3    0    0  0.70549058113E+00  0.33792314569E+02  0.12356471588E+02  0.35987661705E+02  0.10566000000E+00 0. -1.
         23    2    1    0    0    0 -0.48834635771E+01 -0.67411952237E+01 -0.29450414789E+02  0.94485770541E+02  0.89392068853E+02 0.  0.
         13    1    3    3    0    0 -0.55889541583E+01 -0.40533509793E+02 -0.41806886377E+02  0.58498108835E+02  0.10566000000E+00 0.  1.
         22    1    1    0    0    0  0.48834635771E+01  0.67411952237E+01  0.29450414789E+02  0.30604229459E+02  0.00000000000E+00 0.  1.
</event>
<event>
 5    1  0.1264731E-009  0.9118800E+02  0.7815553E-02  0.1125453E+00
         25   -1    0    0    0    0  0.00000000000E+00  0.00000000000E+00  0.99999998245E-14  0.12509000000E+03  0.12509000000E+03 0.  0.
        -13    1    3    3    0    0 -0.22907252102E+02  0.74108557559E+01 -0.46631471342E+02  0.52480170212E+02  0.10566000000E+00 0.  1.
         23    2    1    0    0    0  0.11905504613E+02 -0.75522760058E+01 -0.25718520025E+02  0.95760489516E+02  0.91158385062E+02 0.  0.
         13    1    3    3    0    0  0.34812756715E+02 -0.14963131762E+02  0.20912951318E+02  0.43280319304E+02  0.10566000000E+00 0. -1.
         22    1    1    0    0    0 -0.11905504613E+02  0.75522760058E+01  0.25718520025E+02  0.29329510484E+02  0.00000000000E+00 0.  1.
</event>
<event>
 5    1  0.1264731E-009  0.9118800E+02  0.7815553E-02  0.1125453E+00
         25   -1    0    0    0    0  0.00000000000E+00  0.00000000000E+00  0.99999998245E-14  0.12509000000E+03  0.12509000000E+03 0.  0.
        -13    1    3    3    0    0  0.44740595173E+02 -0.88624208841E+01 -0.71343994884E+01  0.46164642102E+02  0.10566000000E+00 0.  1.
         23    2    1    0    0    0  0.91055275256E+01 -0.11747592060E+02  0.26149562274E+02  0.95011500073E+02  0.90124741266E+02 0.  0.
         13    1    3    3    0    0 -0.35635067647E+02 -0.28851711756E+01  0.33283961763E+02  0.48846857971E+02  0.10566000000E+00 0. -1.
         22    1    1    0    0    0 -0.91055275256E+01  0.11747592060E+02 -0.26149562274E+02  0.30078499927E+02  0.00000000000E+00 0. -1.
</event>
<event>
 5    1  0.1264731E-009  0.9118800E+02  0.7815553E-02  0.1125453E+00
         25   -1    0    0    0    0  0.00000000000E+00  0.00000000000E+00  0.99999998245E-14  0.12509000000E+03  0.12509000000E+03 0.  0.
        -13    1    3    3    0    0  0.10402508301E+02 -0.16289323910E+02 -0.33433892236E+02  0.38618526208E+02  0.10566000000E+00 0.  1.
         23    2    1    0    0    0 -0.27606847750E+02 -0.45214296657E+01  0.79296454267E+01  0.96013194029E+02  0.91504495967E+02 0.  0.
         13    1    3    3    0    0 -0.38009356050E+02  0.11767894244E+02  0.41363537662E+02  0.57394667821E+02  0.10566000000E+00 0. -1.
         22    1    1    0    0    0  0.27606847750E+02  0.45214296657E+01 -0.79296454267E+01  0.29076805971E+02  0.00000000000E+00 0. -1.
</event>
<event>
 5    1  0.1264731E-009  0.9118800E+02  0.7815553E-02  0.1125453E+00
         25   -1    0    0    0    0  0.00000000000E+00  0.00000000000E+00  0.99999998245E-14  0.12509000000E+03  0.12509000000E+03 0.  0.
        -13    1    3    3    0    0 -0.33087271230E+02  0.19196751535E+02  0.44320024886E+02  0.58545354699E+02  0.10566000000E+00 0. -1.
         23    2    1    0    0    0 -0.21404187105E+02 -0.48454718515E+01  0.26551525173E+02  0.90642920122E+02  0.83842338089E+02 0.  0.
         13    1    3    3    0    0  0.11683084124E+02 -0.24042223386E+02 -0.17768499713E+02  0.32097565423E+02  0.10566000000E+00 0.  1.
         22    1    1    0    0    0  0.21404187105E+02  0.48454718515E+01 -0.26551525173E+02  0.34447079878E+02  0.00000000000E+00 0. -1.
</event>
<event>
 5    1  0.1264731E-009  0.9118800E+02  0.7815553E-02  0.1125453E+00
         25   -1    0    0    0    0  0.00000000000E+00  0.00000000000E+00  0.99999998245E-14  0.12509000000E+03  0.12509000000E+03 0.  0.
        -13    1    3    3    0    0  0.33445029268E+02  0.16634898527E+02  0.48947254170E+02  0.61572190854E+02  0.10566000000E+00 0.  1.
         23    2    1    0    0    0  0.19756564811E+02  0.12971016097E+01  0.21538240838E+02  0.95834228875E+02  0.91259516106E+02 0.  0.
         13    1    3    3    0    0 -0.13688464457E+02 -0.15337796917E+02 -0.27409013332E+02  0.34262038021E+02  0.10566000000E+00 0. -1.
         22    1    1    0    0    0 -0.19756564811E+02 -0.12971016097E+01 -0.21538240838E+02  0.29255771125E+02  0.00000000000E+00 0.  1.
</event>
<event>
 5    1  0.1264731E-009  0.9118800E+02  0.7815553E-02  0.1125453E+00
         25   -1    0    0    0    0  0.00000000000E+00  0.00000000000E+00  0.99999998245E-14  0.12509000000E+03  0.12509000000E+03 0.  0.
        -13    1    3    3    0    0 -0.45082777730E+02 -0.12670504462E+02  0.14095122200E+02  0.48904827625E+02  0.10566000000E+00 0.  1.
         23    2    1    0    0    0 -0.18105116732E+02  0.20956007760E+02 -0.64408265264E+01  0.96657030415E+02  0.92380451229E+02 0.  0.
         13    1    3    3    0    0  0.26977660998E+02  0.33626512222E+02 -0.20535948726E+02  0.47752202790E+02  0.10566000000E+00 0. -1.
         22    1    1    0    0    0  0.18105116732E+02 -0.20956007760E+02  0.64408265264E+01  0.28432969585E+02  0.00000000000E+00 0.  1.
</event>
<event>
 5    1  0.1264731E-009  0.9118800E+02  0.7815553E-02  0.1125453E+00
         25   -1    0    0    0    0  0.00000000000E+00  0.00000000000E+00  0.99999998245E-14  0.12509000000E+03  0.12509000000E+03 0.  0.
        -13    1    3    3    0    0 -0.20379588793E+02  0.23533539061E+01  0.30015510551E+02  0.36356676851E+02  0.10566000000E+00 0.  1.
         23    2    1    0    0    0  0.25190628135E+02 -0.15672708859E+02 -0.27304711262E+01  0.95296426508E+02  0.90519345357E+02 0.  0.
         13    1    3    3    0    0  0.45570216928E+02 -0.18026062766E+02 -0.32745981677E+02  0.58939749658E+02  0.10566000000E+00 0. -1.
         22    1    1    0    0    0 -0.25190628135E+02  0.15672708859E+02  0.27304711262E+01  0.29793573492E+02  0.00000000000E+00 0. -1.
</event>
<event>
 5    1  0.1264731E-009  0.9118800E+02  0.7815553E-02  0.1125453E+00
         25   -1    0    0    0    0  0.00000000000E+00  0.00000000000E+00  0.99999998245E-14  0.12509000000E+03  0.12509000000E+03 0.  0.
        -13    1    3    3    0    0 -0.43221484168E+02 -0.19123283863E+02 -0.35821982022E+02  0.59304487514E+02  0.10566000000E+00 0. -1.
         23    2    1    0    0    0 -0.28271275061E+02 -0.44490204239E+01 -0.58384621125E+01  0.95881329778E+02  0.91324054793E+02 0.  0.
         13    1    3    3    0    0  0.14950209107E+02  0.14674263439E+02  0.29983519909E+02  0.36576842264E+02  0.10566000000E+00 0.  1.
         22    1    1    0    0    0  0.28271275061E+02  0.44490204239E+01  0.58384621125E+01  0.29208670222E+02  0.00000000000E+00 0. -1.
</event>
<event>
 5    1  0.1264731E-009  0.9118800E+02  0.7815553E-02  0.1125453E+00
         25   -1    0    0    0    0  0.00000000000E+00  0.00000000000E+00  0.99999998245E-14  0.12509000000E+03  0.12509000000E+03 0.  0.
        -13    1    3    3    0    0 -0.29898039671E+02  0.12208546425E+02 -0.54476261917E+01  0.32751017956E+02  0.10566000000E+00 0.  1.
         23    2    1    0    0    0  0.16927683926E+02 -0.26063376502E+02  0.32205601991E+01  0.93845511114E+02  0.88491592089E+02 0.  0.
         13    1    3    3    0    0  0.46825723597E+02 -0.38271922927E+02  0.86681863909E+01  0.61094493158E+02  0.10566000000E+00 0. -1.
         22    1    1    0    0    0 -0.16927683926E+02  0.26063376502E+02 -0.32205601991E+01  0.31244488886E+02  0.00000000000E+00 0. -1.
</event>
<event>
 5    1  0.1264731E-009  0.9118800E+02  0.7815553E-02  0.1125453E+00
         25   -1    0    0    0    0  0.00000000000E+00  0.00000000000E+00  0.99999998245E-14  0.12509000000E+03  0.12509000000E+03 0.  0.
        -13    1    3    3    0    0  0.20401072842E+02  0.14811781392E+02  0.33686977872E+02  0.42076314992E+02  0.10566000000E+00 0. -1.
         23    2    1    0    0    0 -0.26341375251E+02  0.10719224906E+02  0.81033559203E+01  0.95519166230E+02  0.90826631047E+02 0.  0.
         13    1    3    3    0    0 -0.46742448093E+02 -0.40925564859E+01 -0.25583621951E+02  0.53442851238E+02  0.10566000000E+00 0.  1.
         22    1    1    0    0    0  0.26341375251E+02 -0.10719224906E+02 -0.81033559203E+01  0.29570833770E+02  0.00000000000E+00 0.  1.
</event>
<event>
 5    1  0.1264731E-009  0.9118800E+02  0.7815553E-02  0.1125453E+00
         25   -1    0    0    0    0  0.00000000000E+00  0.00000000000E+00  0.99999998245E-14  0.12509000000E+03  0.12509000000E+03 0.  0.
        -13    1    3    3    0    0 -0.90754053944E+01  0.30186716937E+02 -0.17665755070E+02  0.36134345556E+02  0.10566000000E+00 0.  1.
         23    2    1    0    0    0  0.23245615822E+02 -0.78529453472E+01  0.15503055000E+02  0.96066352402E+02  0.91577136579E+02 0.  0.
         13    1    3    3    0    0  0.32321021216E+02 -0.38039662284E+02  0.33168810069E+02  0.59932006846E+02  0.10566000000E+00 0. -1.
         22    1    1    0    0    0 -0.23245615822E+02  0.78529453472E+01 -0.15503055000E+02  0.29023647598E+02  0.00000000000E+00 0. -1.
</event>
<event>
 5    1  0.1264731E-009  0.9118800E+02  0.7815553E-02  0.1125453E+00
         25   -1    0    0    0    0  0.00000000000E+00  0.00000000000E+00  0.99999998245E-14  0.12509000000E+03  0.12509000000E+03 0.  0.
        -13    1    3    3    0    0 -0.20419382098E+02 -0.65304316697E+01  0.37760126144E+02  0.43421607450E+02  0.10566000000E+00 0.  1.
         23    2    1    0    0    0 -0.22582944191E+02 -0.12321392577E+02 -0.14171035993E+02  0.95719532784E+02  0.91102165791E+02 0.  0.
         13    1    3    3    0    0 -0.21635620932E+01 -0.57909609071E+01 -0.51931162138E+02  0.52297925334E+02  0.10566000000E+00 0. -1.
         22    1    1    0    0    0  0.22582944191E+02  0.12321392577E+02  0.14171035993E+02  0.29370467216E+02  0.00000000000E+00 0. -1.
</event>
<event>
 5    1  0.1264731E-009  0.9118800E+02  0.7815553E-02  0.1125453E+00
         25   -1    0    0    0    0  0.00000000000E+00  0.00000000000E+00  0.99999998245E-14  0.12509000000E+03  0.12509000000E+03 0.  0.
        -13    1    3    3    0    0  0.46942864825E+02 -0.37595131843E+02 -0.10668217934E+02  0.61080672346E+02  0.10566000000E+00 0. -1.
         23    2    1    0    0    0  0.26788354627E+02 -0.10334082252E+02 -0.89019532456E+01  0.95029162167E+02  0.90149252304E+02 0.  0.
         13    1    3    3    0    0 -0.20154510198E+02  0.27261049592E+02  0.17662646887E+01  0.33948489821E+02  0.10566000000E+00 0.  1.
         22    1    1    0    0    0 -0.26788354627E+02  0.10334082252E+02  0.89019532456E+01  0.30060837833E+02  0.00000000000E+00 0. -1.
</event>
<event>
 5    1  0.1264731E-009  0.9118800E+02  0.7815553E-02  0.1125453E+00
         25   -1    0    0    0    0  0.00000000000E+00  0.00000000000E+00  0.99999998245E-14  0.12509000000E+03  0.12509000000E+03 0.  0.
        -13    1    3    3    0    0 -0.34170338959E+02 -0.15829571899E+02  0.19562754150E+02  0.42437011264E+02  0.10566000000E+00 0.  1.
         23    2    1    0    0    0  0.20884288674E+02 -0.14091862075E+02  0.71629244214E+01  0.98897604607E+02  0.95366108343E+02 0.  0.
         13    1    3    3    0    0  0.55054627633E+02  0.17377098242E+01 -0.12399829729E+02  0.56460593342E+02  0.10566000000E+00 0. -1.
         22    1    1    0    0    0 -0.20884288674E+02  0.14091862075E+02 -0.71629244214E+01  0.26192395393E+02  0.00000000000E+00 0. -1.
</event>
<event>
 5    1  0.1264731E-009  0.9118800E+02  0.7815553E-02  0.1125453E+00
         25   -1    0    0    0    0  0.00000000000E+00  0.00000000000E+00  0.99999998245E-14  0.12509000000E+03  0.12509000000E+03 0.  0.
        -13    1    3    3    0    0 -0.41193145381E+02 -0.21150266781E+02  0.41782299253E+02  0.62369709845E+02  0.10566000000E+00 0. -1.
         23    2    1    0    0    0 -0.18573597648E+02 -0.12135737340E+02  0.23100384904E+02  0.93060600489E+02  0.87375013192E+02 0.  0.
         13    1    3    3    0    0  0.22619547733E+02  0.90145294412E+01 -0.18681914350E+02  0.30690890643E+02  0.10566000000E+00 0.  1.
         22    1    1    0    0    0  0.18573597648E+02  0.12135737340E+02 -0.23100384904E+02  0.32029399511E+02  0.00000000000E+00 0. -1.
</event>
<event>
 5    1  0.1264731E-009  0.9118800E+02  0.7815553E-02  0.1125453E+00
         25   -1    0    0    0    0  0.00000000000E+00  0.00000000000E+00  0.99999998245E-14  0.12509000000E+03  0.12509000000E+03 0.  0.
        -13    1    3    3    0    0  0.23585206418E+01 -0.43569683378E+01 -0.45017542347E+02  0.45289469810E+02  0.10566000000E+00 0.  1.
         23    2    1    0    0    0 -0.94119470598E+01 -0.30769995035E+02 -0.86156938164E+01  0.91779228141E+02  0.85520869946E+02 0.  0.
         13    1    3    3    0    0 -0.11770467702E+02 -0.26413026697E+02  0.36401848531E+02  0.46489758331E+02  0.10566000000E+00 0. -1.
         22    1    1    0    0    0  0.94119470598E+01  0.30769995035E+02  0.86156938164E+01  0.33310771859E+02  0.00000000000E+00 0.  1.
</event>
<event>
 5    1  0.1264731E-009  0.9118800E+02  0.7815553E-02  0.1125453E+00
         25   -1    0    0    0    0  0.00000000000E+00  0.00000000000E+00  0.99999998245E-14  0.12509000000E+03  0.12509000000E+03 0.  0.
        -13    1    3    3    0    0  0.11440530474E+02  0.18048958618E+02 -0.46994592457E+02  0.51625124978E+02  0.10566000000E+00 0. -1.
         23    2    1    0    0    0 -0.66379739829E+01 -0.15189502083E+02 -0.24066974817E+02  0.95866671152E+02  0.91303974113E+02 0.  0.
         13    1    3    3    0    0 -0.18078504457E+02 -0.33238460701E+02  0.22927617640E+02  0.44241546174E+02  0.10566000000E+00 0.  1.
         22    1    1    0    0    0  0.66379739829E+01  0.15189502083E+02  0.24066974817E+02  0.29223328848E+02  0.00000000000E+00 0. -1.
</event>
<event>
 5    1  0.1264731E-009  0.9118800E+02  0.7815553E-02  0.1125453E+00
         25   -1    0    0    0    0  0.00000000000E+00  0.00000000000E+00  0.99999998245E-14  0.12509000000E+03  0.12509000000E+03 0.  0.
        -13    1    3    3    0    0 -0.12432334585E+02  0.24611343513E+02 -0.52934380459E+02  0.59685349721E+02  0.10566000000E+00 0.  1.
         23    2    1    0    0    0 -0.14716816311E+02  0.19582563974E+02 -0.18939834759E+02  0.94125845970E+02  0.88886984675E+02 0.  0.
         13    1    3    3    0    0 -0.22844817258E+01 -0.50287795387E+01  0.33994545700E+02  0.34440496248E+02  0.10566000000E+00 0. -1.
         22    1    1    0    0    0  0.14716816311E+02 -0.19582563974E+02  0.18939834759E+02  0.30964154030E+02  0.00000000000E+00 0. -1.
</event>
<event>
 5    1  0.1264731E-009  0.9118800E+02  0.7815553E-02  0.1125453E+00
         25   -1    0    0    0    0  0.00000000000E+00  0.00000000000E+00  0.99999998245E-14  0.12509000000E+03  0.12509000000E+03 0.  0.
        -13    1    3    3    0    0 -0.35899658887E+01  0.34790541450E+02 -0.50580054005E+01  0.35339272943E+02  0.10566000000E+00 0. -1.
         23    2    1    0    0    0  0.29312683171E+02 -0.11084891734E+02 -0.10459640480E+02  0.92051956801E+02  0.85918859703E+02 0.  0.
         13    1    3    3    0    0  0.32902649059E+02 -0.45875433184E+02 -0.54016350792E+01  0.56712683859E+02  0.10566000000E+00 0.  1.
         22    1    1    0    0    0 -0.29312683171E+02  0.11084891734E+02  0.10459640480E+02  0.33038043199E+02  0.00000000000E+00 0.  1.
</event>
<event>
 5    1  0.1264731E-009  0.9118800E+02  0.7815553E-02  0.1125453E+00
         25   -1    0    0    0    0  0.00000000000E+00  0.00000000000E+00  0.99999998245E-14  0.12509000000E+03  0.12509000000E+03 0.  0.
        -13    1    3    3    0    0  0.21297579007E+02 -0.24912825603E+02  0.21383629772E+02  0.39134467383E+02  0.10566000000E+00 0.  1.
         23    2    1    0    0    0 -0.70239659735E+01  0.24046414329E+02  0.14584569290E+02  0.96102488871E+02  0.91626483976E+02 0.  0.
         13    1    3    3    0    0 -0.28321544980E+02  0.48959239932E+02 -0.67990604824E+01  0.56968021488E+02  0.10566000000E+00 0. -1.
         22    1    1    0    0    0  0.70239659735E+01 -0.24046414329E+02 -0.14584569290E+02  0.28987511129E+02  0.00000000000E+00 0. -1.
</event>
<event>
 5    1  0.1264731E-009  0.9118800E+02  0.7815553E-02  0.1125453E+00
         25   -1    0    0    0    0  0.00000000000E+00  0.00000000000E+00  0.99999998245E-14  0.12509000000E+03  0.12509000000E+03 0.  0.
        -13    1    3    3    0    0 -0.39063436650E+02 -0.82331656723E+01  0.76757041415E+01  0.40652978956E+02  0.10566000000E+00 0. -1.
         23    2    1    0    0    0  0.44948208466E+01  0.15063728568E+02 -0.21828158798E+02  0.98190411726E+02  0.94433940433E+02 0.  0.
         13    1    3    3    0    0  0.43558257497E+02  0.23296894240E+02 -0.29503862939E+02  0.57537432770E+02  0.10566000000E+00 0.  1.
         22    1    1    0    0    0 -0.44948208466E+01 -0.15063728568E+02  0.21828158798E+02  0.26899588274E+02  0.00000000000E+00 0.  1.
</event>
<event>
 5    1  0.1264731E-009  0.9118800E+02  0.7815553E-02  0.1125453E+00
         25   -1    0    0    0    0  0.00000000000E+00  0.00000000000E+00  0.99999998245E-14  0.12509000000E+03  0.12509000000E+03 0.  0.
        -13    1    3    3    0    0 -0.25017770418E+01 -0.35655115904E+01  0.39590229749E+02  0.39829250770E+02  0.10566000000E+00 0. -1.
         23    2    1    0    0    0  0.18389361341E+02  0.22634650668E+02 -0.48902388559E+01  0.95519567851E+02  0.90827184175E+02 0.  0.
         13    1    3    3    0    0  0.20891138383E+02  0.26200162258E+02 -0.44480468605E+02  0.55690317082E+02  0.10566000000E+00 0.  1.
         22    1    1    0    0    0 -0.18389361341E+02 -0.22634650668E+02  0.48902388559E+01  0.29570432149E+02  0.00000000000E+00 0.  1.
</event>
<event>
 5    1  0.1264731E-009  0.9118800E+02  0.7815553E-02  0.1125453E+00
         25   -1    0    0    0    0  0.00000000000E+00  0.00000000000E+00  0.99999998245E-14  0.12509000000E+03  0.12509000000E+03 0.  0.
        -13    1    3    3    0    0 -0.38482537418E+01  0.35100861915E+02 -0.41045841603E+02  0.54144730501E+02  0.10566000000E+00 0.  1.
         23    2    1    0    0    0  0.43073537264E+00  0.42378489362E+02 -0.17357801171E+02  0.79292454705E+02  0.64729268636E+02 0.  0.
         13    1    3    3    0    0  0.42789891145E+01  0.72776274464E+01  0.23688040433E+02  0.25147724204E+02  0.10566000000E+00 0. -1.
         22    1    1    0    0    0 -0.43073537264E+00 -0.42378489362E+02  0.17357801171E+02  0.45797545295E+02  0.00000000000E+00 0.  1.
</event>
<event>
 5    1  0.1264731E-009  0.9118800E+02  0.7815553E-02  0.1125453E+00
         25   -1    0    0    0    0  0.00000000000E+00  0.00000000000E+00  0.99999998245E-14  0.12509000000E+03  0.12509000000E+03 0.  0.
        -13    1    3    3    0    0  0.19986956461E+02  0.29359573386E+02 -0.24915245369E+01  0.35604519889E+02  0.10566000000E+00 0.  1.
         23    2    1    0    0    0  0.31687837300E+01 -0.28477437141E+02 -0.55057759765E+01  0.95912625452E+02  0.91366911601E+02 0.  0.
         13    1    3    3    0    0 -0.16818172731E+02 -0.57837010527E+02 -0.30142514396E+01  0.60308105562E+02  0.10566000000E+00 0. -1.
         22    1    1    0    0    0 -0.31687837300E+01  0.28477437141E+02  0.55057759765E+01  0.29177374548E+02  0.00000000000E+00 0. -1.
</event>
<event>
 5    1  0.1264731E-009  0.9118800E+02  0.7815553E-02  0.1125453E+00
         25   -1    0    0    0    0  0.00000000000E+00  0.00000000000E+00  0.99999998245E-14  0.12509000000E+03  0.12509000000E+03 0.  0.
        -13    1    3    3    0    0  0.14848613461E+02 -0.27481314331E+02  0.44759160517E+02  0.54581110041E+02  0.10566000000E+00 0.  1.
         23    2    1    0    0    0  0.23734806281E+01  0.91203864887E+01  0.25748758088E+02  0.97670784055E+02  0.93743099238E+02 0.  0.
         13    1    3    3    0    0 -0.12475132832E+02  0.36601700820E+02 -0.19010402429E+02  0.43089674014E+02  0.10566000000E+00 0. -1.
         22    1    1    0    0    0 -0.23734806281E+01 -0.91203864887E+01 -0.25748758088E+02  0.27419215945E+02  0.00000000000E+00 0.  1.
</event>
<event>
 5    1  0.1264731E-009  0.9118800E+02  0.7815553E-02  0.1125453E+00
         25   -1    0    0    0    0  0.00000000000E+00  0.00000000000E+00  0.99999998245E-14  0.12509000000E+03  0.12509000000E+03 0.  0.
        -13    1    3    3    0    0  0.23542612618E+02 -0.15376342566E+02 -0.19554293220E+02  0.34250081269E+02  0.10566000000E+00 0. -1.
         23    2    1    0    0    0 -0.30321936076E+02 -0.91716868179E+01  0.35991044328E+01  0.93207509520E+02  0.87585082244E+02 0.  0.
         13    1    3    3    0    0 -0.53864548694E+02  0.62046557482E+01  0.23153397653E+02  0.58957428250E+02  0.10566000000E+00 0.  1.
         22    1    1    0    0    0  0.30321936076E+02  0.91716868179E+01 -0.35991044328E+01  0.31882490480E+02  0.00000000000E+00 0.  1.
</event>
<event>
 5    1  0.1264731E-009  0.9118800E+02  0.7815553E-02  0.1125453E+00
         25   -1    0    0    0    0  0.00000000000E+00  0.00000000000E+00  0.99999998245E-14  0.12509000000E+03  0.12509000000E+03 0.  0.
        -13    1    3    3    0    0 -0.23218799523E+02 -0.18366014090E+02  0.37575692248E+02  0.47836878418E+02  0.10566000000E+00 0. -1.
         23    2    1    0    0    0  0.97787186877E+01  0.12716618781E+02  0.25860546574E+02  0.94658049660E+02  0.89632821912E+02 0.  0.
         13    1    3    3    0    0  0.32997518211E+02  0.31082632871E+02 -0.11715145673E+02  0.46821171242E+02  0.10566000000E+00 0.  1.
         22    1    1    0    0    0 -0.97787186877E+01 -0.12716618781E+02 -0.25860546574E+02  0.30431950340E+02  0.00000000000E+00 0.  1.
</event>
<event>
 5    1  0.1264731E-009  0.9118800E+02  0.7815553E-02  0.1125453E+00
         25   -1    0    0    0    0  0.00000000000E+00  0.00000000000E+00  0.99999998245E-14  0.12509000000E+03  0.12509000000E+03 0.  0.
        -13    1    3    3    0    0 -0.14825461711E+02 -0.30859284184E+02 -0.48984949472E+02  0.59763083706E+02  0.10566000000E+00 0.  1.
         23    2    1    0    0    0  0.55114668675E+01 -0.84558881426E+01 -0.24177820969E+02  0.98889898127E+02  0.95355999358E+02 0.  0.
         13    1    3    3    0    0  0.20336928579E+02  0.22403396041E+02  0.24807128502E+02  0.39126814421E+02  0.10566000000E+00 0. -1.
         22    1    1    0    0    0 -0.55114668675E+01  0.84558881426E+01  0.24177820969E+02  0.26200101873E+02  0.00000000000E+00 0.  1.
</event>
<event>
 5    1  0.1264731E-009  0.9118800E+02  0.7815553E-02  0.1125453E+00
         25   -1    0    0    0    0  0.00000000000E+00  0.00000000000E+00  0.99999998245E-14  0.12509000000E+03  0.12509000000E+03 0.  0.
        -13    1    3    3    0    0  0.39146621878E+02 -0.23150833627E+01  0.22506283197E+01  0.39279690774E+02  0.10566000000E+00 0.  1.
         23    2    1    0    0    0 -0.13846262436E+02 -0.24257915761E+02 -0.35733359092E+01  0.96930912834E+02  0.92750566968E+02 0.  0.
         13    1    3    3    0    0 -0.52992884314E+02 -0.21942832398E+02 -0.58239642289E+01  0.57651222060E+02  0.10566000000E+00 0. -1.
         22    1    1    0    0    0  0.13846262436E+02  0.24257915761E+02  0.35733359092E+01  0.28159087166E+02  0.00000000000E+00 0. -1.
</event>
<event>
 5    1  0.1264731E-009  0.9118800E+02  0.7815553E-02  0.1125453E+00
         25   -1    0    0    0    0  0.00000000000E+00  0.00000000000E+00  0.99999998245E-14  0.12509000000E+03  0.12509000000E+03 0.  0.
        -13    1    3    3    0    0  0.37860042827E+02 -0.42972859536E+02 -0.16309841211E+02  0.59548900778E+02  0.10566000000E+00 0.  1.
         23    2    1    0    0    0  0.86761407150E+01 -0.27377692926E+02 -0.15828907574E+00  0.96369997509E+02  0.91990966278E+02 0.  0.
         13    1    3    3    0    0 -0.29183902112E+02  0.15595166610E+02  0.16151552135E+02  0.36821096731E+02  0.10566000000E+00 0. -1.
         22    1    1    0    0    0 -0.86761407150E+01  0.27377692926E+02  0.15828907574E+00  0.28720002491E+02  0.00000000000E+00 0.  1.
</event>
<event>
 5    1  0.1264731E-009  0.9118800E+02  0.7815553E-02  0.1125453E+00
         25   -1    0    0    0    0  0.00000000000E+00  0.00000000000E+00  0.99999998245E-14  0.12509000000E+03  0.12509000000E+03 0.  0.
        -13    1    3    3    0    0  0.57020347836E+02  0.18620068494E+01 -0.87818253280E+00  0.57057598139E+02  0.10566000000E+00 0. -1.
         23    2    1    0    0    0  0.18308652141E+02  0.17952437620E+02  0.35095631389E+01  0.99209238938E+02  0.95774001157E+02 0.  0.
         13    1    3    3    0    0 -0.38711695695E+02  0.16090430770E+02  0.43877456717E+01  0.42151640799E+02  0.10566000000E+00 0.  1.
         22    1    1    0    0    0 -0.18308652141E+02 -0.17952437620E+02 -0.35095631389E+01  0.25880761062E+02  0.00000000000E+00 0. -1.
</event>
<event>
 5    1  0.1264731E-009  0.9118800E+02  0.7815553E-02  0.1125453E+00
         25   -1    0    0    0    0  0.00000000000E+00  0.00000000000E+00  0.99999998245E-14  0.12509000000E+03  0.12509000000E+03 0.  0.
        -13    1    3    3    0    0  0.47417360603E+02  0.90287147500E+01  0.92238344691E+01  0.49142792584E+02  0.10566000000E+00 0.  1.
         23    2    1    0    0    0  0.16934504964E+02  0.10728137422E+01 -0.24496800332E+02  0.95290308488E+02  0.90510890381E+02 0.  0.
         13    1    3    3    0    0 -0.30482855639E+02 -0.79559010078E+01 -0.33720634801E+02  0.46147515905E+02  0.10566000000E+00 0. -1.
         22    1    1    0    0    0 -0.16934504964E+02 -0.10728137422E+01  0.24496800332E+02  0.29799691512E+02  0.00000000000E+00 0. -1.
</event>
<event>
 5    1  0.1264731E-009  0.9118800E+02  0.7815553E-02  0.1125453E+00
         25   -1    0    0    0    0  0.00000000000E+00  0.00000000000E+00  0.99999998245E-14  0.12509000000E+03  0.12509000000E+03 0.  0.
        -13    1    3    3    0    0  0.24143516133E+02 -0.10493624899E+02  0.28471428722E+02  0.38777041562E+02  0.10566000000E+00 0.  1.
         23    2    1    0    0    0  0.16283271327E+02  0.21978377301E+01 -0.25488737778E+02  0.94764249073E+02  0.89780909625E+02 0.  0.
         13    1    3    3    0    0 -0.78602448066E+01  0.12691462629E+02 -0.53960166500E+02  0.55987207511E+02  0.10566000000E+00 0. -1.
         22    1    1    0    0    0 -0.16283271327E+02 -0.21978377301E+01  0.25488737778E+02  0.30325750927E+02  0.00000000000E+00 0. -1.
</event>
<event>
 5    1  0.1264731E-009  0.9118800E+02  0.7815553E-02  0.1125453E+00
         25   -1    0    0    0    0  0.00000000000E+00  0.00000000000E+00  0.99999998245E-14  0.12509000000E+03  0.12509000000E+03 0.  0.
        -13    1    3    3    0    0 -0.11032296235E+02  0.29662367748E+02  0.14902217731E+02  0.34980778693E+02  0.10566000000E+00 0. -1.
         23    2    1    0    0    0  0.20598471677E+02 -0.11443605664E+02 -0.17144035524E+02  0.95949459509E+02  0.91417327023E+02 0.  0.
         13    1    3    3    0    0  0.31630767912E+02 -0.41105973412E+02 -0.32046253255E+02  0.60968680817E+02  0.10566000000E+00 0.  1.
         22    1    1    0    0    0 -0.20598471677E+02  0.11443605664E+02  0.17144035524E+02  0.29140540491E+02  0.00000000000E+00 0.  1.
</event>
<event>
 5    1  0.1264731E-009  0.9118800E+02  0.7815553E-02  0.1125453E+00
         25   -1    0    0    0    0  0.00000000000E+00  0.00000000000E+00  0.99999998245E-14  0.12509000000E+03  0.12509000000E+03 0.  0.
        -13    1    3    3    0    0 -0.32546796530E+02 -0.22816041807E+02  0.21106353871E+02  0.45003945003E+02  0.10566000000E+00 0. -1.
         23    2    1    0    0    0 -0.21067045759E+02  0.20755110136E+02 -0.16260283537E+01  0.95471779561E+02  0.90761344804E+02 0.  0.
         13    1    3    3    0    0  0.11479750771E+02  0.43571151943E+02 -0.22732382224E+02  0.50467834558E+02  0.10566000000E+00 0.  1.
         22    1    1    0    0    0  0.21067045759E+02 -0.20755110136E+02  0.16260283537E+01  0.29618220439E+02  0.00000000000E+00 0.  1.
</event>
<event>
 5    1  0.1264731E-009  0.9118800E+02  0.7815553E-02  0.1125453E+00
         25   -1    0    0    0    0  0.00000000000E+00  0.00000000000E+00  0.99999998245E-14  0.12509000000E+03  0.12509000000E+03 0.  0.
        -13    1    3    3    0    0  0.97396461099E+01  0.10602555371E+02  0.36572052104E+02  0.39303957127E+02  0.10566000000E+00 0.  1.
         23    2    1    0    0    0 -0.26363992499E+02  0.14203473315E+02 -0.52666565752E+01  0.94683809410E+02  0.89668764562E+02 0.  0.
         13    1    3    3    0    0 -0.36103638609E+02  0.36009179443E+01 -0.41838708679E+02  0.55379852283E+02  0.10566000000E+00 0. -1.
         22    1    1    0    0    0  0.26363992499E+02 -0.14203473315E+02  0.52666565752E+01  0.30406190590E+02  0.00000000000E+00 0. -1.
</event>
<event>
 5    1  0.1264731E-009  0.9118800E+02  0.7815553E-02  0.1125453E+00
         25   -1    0    0    0    0  0.00000000000E+00  0.00000000000E+00  0.99999998245E-14  0.12509000000E+03  0.12509000000E+03 0.  0.
        -13    1    3    3    0    0 -0.29490045696E+02 -0.73610630540E+01  0.40990305441E+02  0.51030033790E+02  0.10566000000E+00 0. -1.
         23    2    1    0    0    0 -0.94416442099E+01 -0.27121454619E+02  0.63279062608E+01  0.95683192222E+02  0.91052253844E+02 0.  0.
         13    1    3    3    0    0  0.20048401486E+02 -0.19760391565E+02 -0.34662399180E+02  0.44653158432E+02  0.10566000000E+00 0.  1.
         22    1    1    0    0    0  0.94416442099E+01  0.27121454619E+02 -0.63279062608E+01  0.29406807778E+02  0.00000000000E+00 0. -1.
</event>
<event>
 5    1  0.1264731E-009  0.9118800E+02  0.7815553E-02  0.1125453E+00
         25   -1    0    0    0    0  0.00000000000E+00  0.00000000000E+00  0.99999998245E-14  0.12509000000E+03  0.12509000000E+03 0.  0.
        -13    1    3    3    0    0  0.30227250703E+02 -0.29718691463E+02  0.10062630483E+02  0.43567820735E+02  0.10566000000E+00 0. -1.
         23    2    1    0    0    0 -0.12857723356E+02 -0.56870321040E+01  0.26100930396E+02  0.95443382123E+02  0.90722198163E+02 0.  0.
         13    1    3    3    0    0 -0.43084974058E+02  0.24031659359E+02  0.16038299913E+02  0.51875561388E+02  0.10566000000E+00 0.  1.
         22    1    1    0    0    0  0.12857723356E+02  0.56870321040E+01 -0.26100930396E+02  0.29646617877E+02  0.00000000000E+00 0.  1.
</event>
<event>
 5    1  0.1264731E-009  0.9118800E+02  0.7815553E-02  0.1125453E+00
         25   -1    0    0    0    0  0.00000000000E+00  0.00000000000E+00  0.99999998245E-14  0.12509000000E+03  0.12509000000E+03 0.  0.
        -13    1    3    3    0    0  0.47131186398E+01 -0.40295679690E+02 -0.42824464821E+02  0.58990687742E+02  0.10566000000E+00 0. -1.
         23    2    1    0    0    0  0.16916234183E+02 -0.18045255492E+02 -0.17924730528E+02  0.94543540480E+02  0.89472872186E+02 0.  0.
         13    1    3    3    0    0  0.12203115543E+02  0.22250424198E+02  0.24899734292E+02  0.35552852738E+02  0.10566000000E+00 0.  1.
         22    1    1    0    0    0 -0.16916234183E+02  0.18045255492E+02  0.17924730528E+02  0.30546459520E+02  0.00000000000E+00 0. -1.
</event>
<event>
 5    1  0.1264731E-009  0.9118800E+02  0.7815553E-02  0.1125453E+00
         25   -1    0    0    0    0  0.00000000000E+00  0.00000000000E+00  0.99999998245E-14  0.12509000000E+03  0.12509000000E+03 0.  0.
        -13    1    3    3    0    0  0.73728099357E+01  0.31373991392E+02 -0.14423703249E+02  0.35309206189E+02  0.10566000000E+00 0.  1.
         23    2    1    0    0    0 -0.29078205512E+02 -0.54392119359E+01  0.11636754210E+02  0.93300990723E+02  0.87718491546E+02 0.  0.
         13    1    3    3    0    0 -0.36451015448E+02 -0.36813203328E+02  0.26060457459E+02  0.57991784534E+02  0.10566000000E+00 0. -1.
         22    1    1    0    0    0  0.29078205512E+02  0.54392119359E+01 -0.11636754210E+02  0.31789009277E+02  0.00000000000E+00 0. -1.
</event>
<event>
 5    1  0.1264731E-009  0.9118800E+02  0.7815553E-02  0.1125453E+00
         25   -1    0    0    0    0  0.00000000000E+00  0.00000000000E+00  0.99999998245E-14  0.12509000000E+03  0.12509000000E+03 0.  0.
        -13    1    3    3    0    0  0.10051112150E+01 -0.26441838107E+02 -0.13584436153E+02  0.29744396458E+02  0.10566000000E+00 0. -1.
         23    2    1    0    0    0 -0.15716510055E+01  0.33918524961E+02 -0.45503228100E+01  0.90831543233E+02  0.84123286823E+02 0.  0.
         13    1    3    3    0    0 -0.25767622205E+01  0.60360363067E+02  0.90341133429E+01  0.61087146775E+02  0.10566000000E+00 0.  1.
         22    1    1    0    0    0  0.15716510055E+01 -0.33918524961E+02  0.45503228100E+01  0.34258456767E+02  0.00000000000E+00 0.  1.
</event>
<event>
 5    1  0.1264731E-009  0.9118800E+02  0.7815553E-02  0.1125453E+00
         25   -1    0    0    0    0  0.00000000000E+00  0.00000000000E+00  0.99999998245E-14  0.12509000000E+03  0.12509000000E+03 0.  0.
        -13    1    3    3    0    0  0.17104716819E+02  0.35276964280E+02  0.42867113894E+02  0.58091618706E+02  0.10566000000E+00 0.  1.
         23    2    1    0    0    0 -0.72749435640E+01  0.22977383530E+02  0.18221769029E+02  0.94875469981E+02  0.89935738057E+02 0.  0.
         13    1    3    3    0    0 -0.24379660383E+02 -0.12299580751E+02 -0.24645344865E+02  0.36783851275E+02  0.10566000000E+00 0. -1.
         22    1    1    0    0    0  0.72749435640E+01 -0.22977383530E+02 -0.18221769029E+02  0.30214530019E+02  0.00000000000E+00 0.  1.
</event>
<event>
 5    1  0.1264731E-009  0.9118800E+02  0.7815553E-02  0.1125453E+00
         25   -1    0    0    0    0  0.00000000000E+00  0.00000000000E+00  0.99999998245E-14  0.12509000000E+03  0.12509000000E+03 0.  0.
        -13    1    3    3    0    0 -0.28213340316E+02 -0.33090799017E+02  0.30727296089E+02  0.53246327951E+02  0.10566000000E+00 0. -1.
         23    2    1    0    0    0  0.10278199557E+02 -0.19753129483E+02  0.19472570844E+02  0.95509456973E+02  0.90813258094E+02 0.  0.
         13    1    3    3    0    0  0.38491539873E+02  0.13337669534E+02 -0.11254725245E+02  0.42263129022E+02  0.10566000000E+00 0.  1.
         22    1    1    0    0    0 -0.10278199557E+02  0.19753129483E+02 -0.19472570844E+02  0.29580543027E+02  0.00000000000E+00 0. -1.
</event>
<event>
 5    1  0.1264731E-009  0.9118800E+02  0.7815553E-02  0.1125453E+00
         25   -1    0    0    0    0  0.00000000000E+00  0.00000000000E+00  0.99999998245E-14  0.12509000000E+03  0.12509000000E+03 0.  0.
        -13    1    3    3    0    0 -0.42736961010E+02 -0.14945764611E+02  0.39808337594E+02  0.60287134798E+02  0.10566000000E+00 0.  1.
         23    2    1    0    0    0 -0.18261281145E+02  0.34360579817E+01  0.23998037443E+02  0.94738942611E+02  0.89745643696E+02 0.  0.
         13    1    3    3    0    0  0.24475679865E+02  0.18381822593E+02 -0.15810300151E+02  0.34451807813E+02  0.10566000000E+00 0. -1.
         22    1    1    0    0    0  0.18261281145E+02 -0.34360579817E+01 -0.23998037443E+02  0.30351057389E+02  0.00000000000E+00 0.  1.
</event>
<event>
 5    1  0.1264731E-009  0.9118800E+02  0.7815553E-02  0.1125453E+00
         25   -1    0    0    0    0  0.00000000000E+00  0.00000000000E+00  0.99999998245E-14  0.12509000000E+03  0.12509000000E+03 0.  0.
        -13    1    3    3    0    0  0.47971412848E+02 -0.37996518624E+02  0.61237350706E+01  0.61502058286E+02  0.10566000000E+00 0. -1.
         23    2    1    0    0    0  0.26436160769E+02 -0.11012703924E+02  0.74864437969E+00  0.96441950985E+02  0.92088757172E+02 0.  0.
         13    1    3    3    0    0 -0.21535252079E+02  0.26983814700E+02 -0.53750906909E+01  0.34939892699E+02  0.10566000000E+00 0.  1.
         22    1    1    0    0    0 -0.26436160769E+02  0.11012703924E+02 -0.74864437969E+00  0.28648049015E+02  0.00000000000E+00 0. -1.
</event>
<event>
 5    1  0.1264731E-009  0.9118800E+02  0.7815553E-02  0.1125453E+00
         25   -1    0    0    0    0  0.00000000000E+00  0.00000000000E+00  0.99999998245E-14  0.12509000000E+03  0.12509000000E+03 0.  0.
        -13    1    3    3    0    0  0.34154452716E+02 -0.39170114498E+01  0.43479348395E+02  0.55428643497E+02  0.10566000000E+00 0. -1.
         23    2    1    0    0    0  0.12841008530E+02 -0.22257302701E+02  0.15578062371E+02  0.95040789514E+02  0.90165384824E+02 0.  0.
         13    1    3    3    0    0 -0.21313444186E+02 -0.18340291252E+02 -0.27901286024E+02  0.39612146017E+02  0.10566000000E+00 0.  1.
         22    1    1    0    0    0 -0.12841008530E+02  0.22257302701E+02 -0.15578062371E+02  0.30049210486E+02  0.00000000000E+00 0. -1.
</event>
<event>
 5    1  0.1264731E-009  0.9118800E+02  0.7815553E-02  0.1125453E+00
         25   -1    0    0    0    0  0.00000000000E+00  0.00000000000E+00  0.99999998245E-14  0.12509000000E+03  0.12509000000E+03 0.  0.
        -13    1    3    3    0    0  0.14633263199E+00 -0.39970503843E+02 -0.25056924439E+02  0.47175451424E+02  0.10566000000E+00 0.  1.
         23    2    1    0    0    0 -0.15471860540E+02 -0.18561460065E+02  0.16047869910E+02  0.96082407943E+02  0.91599065056E+02 0.  0.
         13    1    3    3    0    0 -0.15618193172E+02  0.21409043778E+02  0.41104794349E+02  0.48906956519E+02  0.10566000000E+00 0. -1.
         22    1    1    0    0    0  0.15471860540E+02  0.18561460065E+02 -0.16047869910E+02  0.29007592057E+02  0.00000000000E+00 0.  1.
</event>
<event>
 5    1  0.1264731E-009  0.9118800E+02  0.7815553E-02  0.1125453E+00
         25   -1    0    0    0    0  0.00000000000E+00  0.00000000000E+00  0.99999998245E-14  0.12509000000E+03  0.12509000000E+03 0.  0.
        -13    1    3    3    0    0  0.34565590175E+02 -0.19118679377E+01 -0.58144242537E+01  0.35103474993E+02  0.10566000000E+00 0. -1.
         23    2    1    0    0    0 -0.16506532614E+02  0.13771811944E+02  0.21136423212E+02  0.94942416193E+02  0.90028804186E+02 0.  0.
         13    1    3    3    0    0 -0.51072122789E+02  0.15683679882E+02  0.26950847466E+02  0.59838941200E+02  0.10566000000E+00 0.  1.
         22    1    1    0    0    0  0.16506532614E+02 -0.13771811944E+02 -0.21136423212E+02  0.30147583807E+02  0.00000000000E+00 0.  1.
</event>
<event>
 5    1  0.1264731E-009  0.9118800E+02  0.7815553E-02  0.1125453E+00
         25   -1    0    0    0    0  0.00000000000E+00  0.00000000000E+00  0.99999998245E-14  0.12509000000E+03  0.12509000000E+03 0.  0.
        -13    1    3    3    0    0 -0.32788157083E+02  0.26898607798E+02  0.25611188515E+02  0.49543339487E+02  0.10566000000E+00 0.  1.
         23    2    1    0    0    0  0.10862178401E+02  0.24832933198E+02  0.66343803524E+01  0.97185224540E+02  0.93092917966E+02 0.  0.
         13    1    3    3    0    0  0.43650335483E+02 -0.20656746010E+01 -0.18976808162E+02  0.47641885053E+02  0.10566000000E+00 0. -1.
         22    1    1    0    0    0 -0.10862178401E+02 -0.24832933198E+02 -0.66343803524E+01  0.27904775460E+02  0.00000000000E+00 0. -1.
</event>
<event>
 5    1  0.1264731E-009  0.9118800E+02  0.7815553E-02  0.1125453E+00
         25   -1    0    0    0    0  0.00000000000E+00  0.00000000000E+00  0.99999998245E-14  0.12509000000E+03  0.12509000000E+03 0.  0.
        -13    1    3    3    0    0  0.10416696071E+01  0.22667756477E+02 -0.23220958347E+02  0.32467465713E+02  0.10566000000E+00 0.  1.
         23    2    1    0    0    0 -0.96345929272E+01 -0.21607501158E+02  0.19134090968E+02  0.94662661563E+02  0.89639257973E+02 0.  0.
         13    1    3    3    0    0 -0.10676262534E+02 -0.44275257635E+02  0.42355049315E+02  0.62195195850E+02  0.10566000000E+00 0. -1.
         22    1    1    0    0    0  0.96345929272E+01  0.21607501158E+02 -0.19134090968E+02  0.30427338437E+02  0.00000000000E+00 0. -1.
</event>
<event>
 5    1  0.1264731E-009  0.9118800E+02  0.7815553E-02  0.1125453E+00
         25   -1    0    0    0    0  0.00000000000E+00  0.00000000000E+00  0.99999998245E-14  0.12509000000E+03  0.12509000000E+03 0.  0.
        -13    1    3    3    0    0 -0.28617772805E+02  0.60483578893E+01 -0.27381191441E+02  0.40066199748E+02  0.10566000000E+00 0. -1.
         23    2    1    0    0    0 -0.75519159534E+01 -0.14043801838E+02  0.22316285806E+02  0.97662342120E+02  0.93731833715E+02 0.  0.
         13    1    3    3    0    0  0.21065856851E+02 -0.20092159727E+02  0.49697477247E+02  0.57596142372E+02  0.10566000000E+00 0.  1.
         22    1    1    0    0    0  0.75519159534E+01  0.14043801838E+02 -0.22316285806E+02  0.27427657880E+02  0.00000000000E+00 0.  1.
</event>
<event>
 5    1  0.1264731E-009  0.9118800E+02  0.7815553E-02  0.1125453E+00
         25   -1    0    0    0    0  0.00000000000E+00  0.00000000000E+00  0.99999998245E-14  0.12509000000E+03  0.12509000000E+03 0.  0.
        -13    1    3    3    0    0 -0.34378789564E+02 -0.17314775195E+02  0.14386079504E+02  0.41093467358E+02  0.10566000000E+00 0.  1.
         23    2    1    0    0    0  0.17068010950E+02  0.11548760460E+02  0.14162833086E+02  0.10008446647E+03  0.96910390167E+02 0.  0.
         13    1    3    3    0    0  0.51446800514E+02  0.28863535655E+02 -0.22324641841E+00  0.58990999115E+02  0.10566000000E+00 0. -1.
         22    1    1    0    0    0 -0.17068010950E+02 -0.11548760460E+02 -0.14162833086E+02  0.25005533527E+02  0.00000000000E+00 0. -1.
</event>
<event>
 5    1  0.1264731E-009  0.9118800E+02  0.7815553E-02  0.1125453E+00
         25   -1    0    0    0    0  0.00000000000E+00  0.00000000000E+00  0.99999998245E-14  0.12509000000E+03  0.12509000000E+03 0.  0.
        -13    1    3    3    0    0  0.35287684524E+02  0.42202233034E+02 -0.26839394753E+01  0.55076890320E+02  0.10566000000E+00 0.  1.
         23    2    1    0    0    0 -0.16822368576E+01  0.28531230981E+02  0.69971926087E+01  0.95665150526E+02  0.91027464309E+02 0.  0.
         13    1    3    3    0    0 -0.36969921382E+02 -0.13671002052E+02  0.96811320840E+01  0.40588260206E+02  0.10566000000E+00 0. -1.
         22    1    1    0    0    0  0.16822368576E+01 -0.28531230981E+02 -0.69971926087E+01  0.29424849474E+02  0.00000000000E+00 0. -1.
</event>
<event>
 5    1  0.1264731E-009  0.9118800E+02  0.7815553E-02  0.1125453E+00
         25   -1    0    0    0    0  0.00000000000E+00  0.00000000000E+00  0.99999998245E-14  0.12509000000E+03  0.12509000000E+03 0.  0.
        -13    1    3    3    0    0  0.33914616698E+02 -0.11012262444E+02 -0.23486104541E+02  0.42697534126E+02  0.10566000000E+00 0. -1.
         23    2    1    0    0    0 -0.65432929092E+01  0.12757854006E+02 -0.31665932575E+02  0.90329263431E+02  0.83373059349E+02 0.  0.
         13    1    3    3    0    0 -0.40457909607E+02  0.23770116451E+02 -0.81798280341E+01  0.47631729305E+02  0.10566000000E+00 0.  1.
         22    1    1    0    0    0  0.65432929092E+01 -0.12757854006E+02  0.31665932575E+02  0.34760736569E+02  0.00000000000E+00 0.  1.
</event>
<event>
 5    1  0.1264731E-009  0.9118800E+02  0.7815553E-02  0.1125453E+00
         25   -1    0    0    0    0  0.00000000000E+00  0.00000000000E+00  0.99999998245E-14  0.12509000000E+03  0.12509000000E+03 0.  0.
        -13    1    3    3    0    0  0.42242611800E+02  0.12800341393E+02  0.28068397777E+02  0.52308059697E+02  0.10566000000E+00 0.  1.
         23    2    1    0    0    0  0.26161368846E+02  0.12287819642E+02 -0.10689695955E+02  0.94273164811E+02  0.89094064182E+02 0.  0.
         13    1    3    3    0    0 -0.16081242954E+02 -0.51252175090E+00 -0.38758093732E+02  0.41965105114E+02  0.10566000000E+00 0. -1.
         22    1    1    0    0    0 -0.26161368846E+02 -0.12287819642E+02  0.10689695955E+02  0.30816835189E+02  0.00000000000E+00 0. -1.
</event>
<event>
 5    1  0.1264731E-009  0.9118800E+02  0.7815553E-02  0.1125453E+00
         25   -1    0    0    0    0  0.00000000000E+00  0.00000000000E+00  0.99999998245E-14  0.12509000000E+03  0.12509000000E+03 0.  0.
        -13    1    3    3    0    0 -0.20321075325E+02 -0.49012191972E+02 -0.25915951206E+02  0.59049036869E+02  0.10566000000E+00 0.  1.
         23    2    1    0    0    0 -0.20360505133E+02 -0.13901268451E+02 -0.49470873853E+01  0.99945038131E+02  0.96730251419E+02 0.  0.
         13    1    3    3    0    0 -0.39429807814E-01  0.35110923521E+02  0.20968863821E+02  0.40896001261E+02  0.10566000000E+00 0. -1.
         22    1    1    0    0    0  0.20360505133E+02  0.13901268451E+02  0.49470873853E+01  0.25144961869E+02  0.00000000000E+00 0.  1.
</event>
<event>
 5    1  0.1264731E-009  0.9118800E+02  0.7815553E-02  0.1125453E+00
         25   -1    0    0    0    0  0.00000000000E+00  0.00000000000E+00  0.99999998245E-14  0.12509000000E+03  0.12509000000E+03 0.  0.
        -13    1    3    3    0    0 -0.17028441331E+01 -0.52920574747E+01 -0.49634063117E+02  0.49944538600E+02  0.10566000000E+00 0. -1.
         23    2    1    0    0    0 -0.25532145245E+02 -0.96676081236E+01 -0.10771449181E+02  0.95740771644E+02  0.91131323648E+02 0.  0.
         13    1    3    3    0    0 -0.23829301112E+02 -0.43755506489E+01  0.38862613936E+02  0.45796233044E+02  0.10566000000E+00 0.  1.
         22    1    1    0    0    0  0.25532145245E+02  0.96676081236E+01  0.10771449181E+02  0.29349228356E+02  0.00000000000E+00 0. -1.
</event>
<event>
 5    1  0.1264731E-009  0.9118800E+02  0.7815553E-02  0.1125453E+00
         25   -1    0    0    0    0  0.00000000000E+00  0.00000000000E+00  0.99999998245E-14  0.12509000000E+03  0.12509000000E+03 0.  0.
        -13    1    3    3    0    0 -0.19618995451E+01  0.35278409023E+02  0.25714750218E+01  0.35426527360E+02  0.10566000000E+00 0.  1.
         23    2    1    0    0    0 -0.92115993024E+01 -0.22054602783E+02  0.17917082648E+02  0.95218928439E+02  0.90412186218E+02 0.  0.
         13    1    3    3    0    0 -0.72496997574E+01 -0.57333011805E+02  0.15345607626E+02  0.59792401078E+02  0.10566000000E+00 0. -1.
         22    1    1    0    0    0  0.92115993024E+01  0.22054602783E+02 -0.17917082648E+02  0.29871071561E+02  0.00000000000E+00 0. -1.
</event>
<event>
 5    1  0.1264731E-009  0.9118800E+02  0.7815553E-02  0.1125453E+00
         25   -1    0    0    0    0  0.00000000000E+00  0.00000000000E+00  0.99999998245E-14  0.12509000000E+03  0.12509000000E+03 0.  0.
        -13    1    3    3    0    0  0.66888673325E+01  0.14243664864E+02  0.33049538344E+02  0.36604727615E+02  0.10566000000E+00 0.  1.
         23    2    1    0    0    0  0.19616138456E+02 -0.16677572386E+01 -0.22130534291E+02  0.95470161207E+02  0.90759114312E+02 0.  0.
         13    1    3    3    0    0  0.12927271123E+02 -0.15911422103E+02 -0.55180072635E+02  0.58865433593E+02  0.10566000000E+00 0. -1.
         22    1    1    0    0    0 -0.19616138456E+02  0.16677572386E+01  0.22130534291E+02  0.29619838793E+02  0.00000000000E+00 0. -1.
</event>
<event>
 5    1  0.1264731E-009  0.9118800E+02  0.7815553E-02  0.1125453E+00
         25   -1    0    0    0    0  0.00000000000E+00  0.00000000000E+00  0.99999998245E-14  0.12509000000E+03  0.12509000000E+03 0.  0.
        -13    1    3    3    0    0  0.31516032051E+02  0.23357479748E+02 -0.65172859842E+01  0.39765793304E+02  0.10566000000E+00 0. -1.
         23    2    1    0    0    0  0.32871874755E+01 -0.19039563737E+02  0.20077319929E+02  0.97225876753E+02  0.93147526785E+02 0.  0.
         13    1    3    3    0    0 -0.28228844576E+02 -0.42397043485E+02  0.26594605913E+02  0.57460083450E+02  0.10566000000E+00 0.  1.
         22    1    1    0    0    0 -0.32871874755E+01  0.19039563737E+02 -0.20077319929E+02  0.27864123247E+02  0.00000000000E+00 0.  1.
</event>
<event>
 5    1  0.1264731E-009  0.9118800E+02  0.7815553E-02  0.1125453E+00
         25   -1    0    0    0    0  0.00000000000E+00  0.00000000000E+00  0.99999998245E-14  0.12509000000E+03  0.12509000000E+03 0.  0.
        -13    1    3    3    0    0 -0.23970115316E+02  0.19176180624E+02  0.48483006703E+02  0.57383842975E+02  0.10566000000E+00 0. -1.
         23    2    1    0    0    0 -0.10979787550E+02  0.20906013374E+02  0.76508933654E+01  0.10026756460E+03  0.97146442096E+02 0.  0.
         13    1    3    3    0    0  0.12990327766E+02  0.17298327500E+01 -0.40832113338E+02  0.42883721626E+02  0.10566000000E+00 0.  1.
         22    1    1    0    0    0  0.10979787550E+02 -0.20906013374E+02 -0.76508933654E+01  0.24822435399E+02  0.00000000000E+00 0. -1.
</event>
<event>
 5    1  0.1264731E-009  0.9118800E+02  0.7815553E-02  0.1125453E+00
         25   -1    0    0    0    0  0.00000000000E+00  0.00000000000E+00  0.99999998245E-14  0.12509000000E+03  0.12509000000E+03 0.  0.
        -13    1    3    3    0    0  0.49158556695E+01  0.36098356738E+02 -0.73433393648E+01  0.37164402231E+02  0.10566000000E+00 0. -1.
         23    2    1    0    0    0 -0.18017710683E+02 -0.51503669751E+01  0.24608618950E+02  0.94158651746E+02  0.88933140020E+02 0.  0.
         13    1    3    3    0    0 -0.22933566352E+02 -0.41248723713E+02  0.31951958314E+02  0.56994249515E+02  0.10566000000E+00 0.  1.
         22    1    1    0    0    0  0.18017710683E+02  0.51503669751E+01 -0.24608618950E+02  0.30931348254E+02  0.00000000000E+00 0.  1.
</event>
<event>
 5    1  0.1264731E-009  0.9118800E+02  0.7815553E-02  0.1125453E+00
         25   -1    0    0    0    0  0.00000000000E+00  0.00000000000E+00  0.99999998245E-14  0.12509000000E+03  0.12509000000E+03 0.  0.
        -13    1    3    3    0    0  0.15076738814E+02 -0.16325551641E+02  0.56800999676E+01  0.22937009163E+02  0.10566000000E+00 0.  1.
         23    2    1    0    0    0 -0.15749161598E+02  0.59947934981E+01 -0.39580115511E+02  0.82071873774E+02  0.69894443848E+02 0.  0.
         13    1    3    3    0    0 -0.30825900413E+02  0.22320345139E+02 -0.45260215479E+02  0.59134864611E+02  0.10566000000E+00 0. -1.
         22    1    1    0    0    0  0.15749161598E+02 -0.59947934981E+01  0.39580115511E+02  0.43018126226E+02  0.00000000000E+00 0. -1.
</event>
<event>
 5    1  0.1264731E-009  0.9118800E+02  0.7815553E-02  0.1125453E+00
         25   -1    0    0    0    0  0.00000000000E+00  0.00000000000E+00  0.99999998245E-14  0.12509000000E+03  0.12509000000E+03 0.  0.
        -13    1    3    3    0    0 -0.19099602553E+02  0.69211679062E+01 -0.33489307714E+02  0.39169404872E+02  0.10566000000E+00 0. -1.
         23    2    1    0    0    0 -0.20278159138E+02 -0.18555048522E+02  0.14868182466E+02  0.93840097384E+02  0.88483939014E+02 0.  0.
         13    1    3    3    0    0 -0.11785565856E+01 -0.25476216428E+02  0.48357490180E+02  0.54670692511E+02  0.10566000000E+00 0.  1.
         22    1    1    0    0    0  0.20278159138E+02  0.18555048522E+02 -0.14868182466E+02  0.31249902616E+02  0.00000000000E+00 0.  1.
</event>
<event>
 5    1  0.1264731E-009  0.9118800E+02  0.7815553E-02  0.1125453E+00
         25   -1    0    0    0    0  0.00000000000E+00  0.00000000000E+00  0.99999998245E-14  0.12509000000E+03  0.12509000000E+03 0.  0.
        -13    1    3    3    0    0 -0.49504184311E+02 -0.57632827220E+01  0.15697920466E+02  0.52252421599E+02  0.10566000000E+00 0. -1.
         23    2    1    0    0    0 -0.11154193236E+02 -0.88911264990E+01  0.28842379054E+02  0.92913129633E+02  0.87163631587E+02 0.  0.
         13    1    3    3    0    0  0.38349991075E+02 -0.31278437770E+01  0.13144458588E+02  0.40660708033E+02  0.10566000000E+00 0.  1.
         22    1    1    0    0    0  0.11154193236E+02  0.88911264990E+01 -0.28842379054E+02  0.32176870367E+02  0.00000000000E+00 0. -1.
</event>
<event>
 5    1  0.1264731E-009  0.9118800E+02  0.7815553E-02  0.1125453E+00
         25   -1    0    0    0    0  0.00000000000E+00  0.00000000000E+00  0.99999998245E-14  0.12509000000E+03  0.12509000000E+03 0.  0.
        -13    1    3    3    0    0  0.69521899680E+00 -0.87262840722E+01  0.39128823833E+02  0.40096226527E+02  0.10566000000E+00 0. -1.
         23    2    1    0    0    0 -0.56630655218E+00 -0.27573371195E+02 -0.12305895780E+02  0.94889891174E+02  0.89955793998E+02 0.  0.
         13    1    3    3    0    0 -0.12615255490E+01 -0.18847087123E+02 -0.51434719613E+02  0.54793664647E+02  0.10566000000E+00 0.  1.
         22    1    1    0    0    0  0.56630655218E+00  0.27573371195E+02  0.12305895780E+02  0.30200108826E+02  0.00000000000E+00 0.  1.
</event>
<event>
 5    1  0.1264731E-009  0.9118800E+02  0.7815553E-02  0.1125453E+00
         25   -1    0    0    0    0  0.00000000000E+00  0.00000000000E+00  0.99999998245E-14  0.12509000000E+03  0.12509000000E+03 0.  0.
        -13    1    3    3    0    0 -0.26787100732E+02 -0.20556503295E+02  0.16890249571E+02  0.37754606182E+02  0.10566000000E+00 0.  1.
         23    2    1    0    0    0  0.14944277002E+02 -0.14164798854E+02 -0.21859335111E+02  0.95059957157E+02  0.90191972932E+02 0.  0.
         13    1    3    3    0    0  0.41731377734E+02  0.63917044415E+01 -0.38749584682E+02  0.57305350975E+02  0.10566000000E+00 0. -1.
         22    1    1    0    0    0 -0.14944277002E+02  0.14164798854E+02  0.21859335111E+02  0.30030042843E+02  0.00000000000E+00 0. -1.
</event>
<event>
 5    1  0.1264731E-009  0.9118800E+02  0.7815553E-02  0.1125453E+00
         25   -1    0    0    0    0  0.00000000000E+00  0.00000000000E+00  0.99999998245E-14  0.12509000000E+03  0.12509000000E+03 0.  0.
        -13    1    3    3    0    0  0.55425497433E+01  0.31339790433E+02 -0.95722289340E+01  0.33234636343E+02  0.10566000000E+00 0.  1.
         23    2    1    0    0    0  0.83275016115E+01 -0.29356355477E+02 -0.13838828109E+01  0.94544001545E+02  0.89473516788E+02 0.  0.
         13    1    3    3    0    0  0.27849518682E+01 -0.60696145910E+02  0.81883461232E+01  0.61309365202E+02  0.10566000000E+00 0. -1.
         22    1    1    0    0    0 -0.83275016115E+01  0.29356355477E+02  0.13838828109E+01  0.30545998455E+02  0.00000000000E+00 0. -1.
</event>
<event>
 5    1  0.1264731E-009  0.9118800E+02  0.7815553E-02  0.1125453E+00
         25   -1    0    0    0    0  0.00000000000E+00  0.00000000000E+00  0.99999998245E-14  0.12509000000E+03  0.12509000000E+03 0.  0.
        -13    1    3    3    0    0 -0.18096340322E+02 -0.33546085047E+02  0.21702969003E+02  0.43861684676E+02  0.10566000000E+00 0.  1.
         23    2    1    0    0    0  0.24581496935E+02 -0.45614887751E+01  0.15126321895E+02  0.95869069394E+02  0.91307259738E+02 0.  0.
         13    1    3    3    0    0  0.42677837257E+02  0.28984596272E+02 -0.65766471074E+01  0.52007384718E+02  0.10566000000E+00 0. -1.
         22    1    1    0    0    0 -0.24581496935E+02  0.45614887751E+01 -0.15126321895E+02  0.29220930606E+02  0.00000000000E+00 0.  1.
</event>
<event>
 5    1  0.1264731E-009  0.9118800E+02  0.7815553E-02  0.1125453E+00
         25   -1    0    0    0    0  0.00000000000E+00  0.00000000000E+00  0.99999998245E-14  0.12509000000E+03  0.12509000000E+03 0.  0.
        -13    1    3    3    0    0  0.14388338430E+02  0.54211443236E+02  0.75122335669E-01  0.56088516364E+02  0.10566000000E+00 0.  1.
         23    2    1    0    0    0  0.90600765975E+01  0.25487172010E+02  0.19998968813E+02  0.91450147465E+02  0.85038166683E+02 0.  0.
         13    1    3    3    0    0 -0.53282618322E+01 -0.28724271226E+02  0.19923846477E+02  0.35361631101E+02  0.10566000000E+00 0. -1.
         22    1    1    0    0    0 -0.90600765975E+01 -0.25487172010E+02 -0.19998968813E+02  0.33639852535E+02  0.00000000000E+00 0.  1.
</event>
<event>
 5    1  0.1264731E-009  0.9118800E+02  0.7815553E-02  0.1125453E+00
         25   -1    0    0    0    0  0.00000000000E+00  0.00000000000E+00  0.99999998245E-14  0.12509000000E+03  0.12509000000E+03 0.  0.
        -13    1    3    3    0    0 -0.58514278593E+02  0.17913334965E+01  0.22423138354E+00  0.58542216551E+02  0.10566000000E+00 0.  1.
         23    2    1    0    0    0 -0.24670255117E+02 -0.13875498819E+02 -0.54487631343E+01  0.96265705131E+02  0.91849039242E+02 0.  0.
         13    1    3    3    0    0  0.33844023476E+02 -0.15666832315E+02 -0.56729945178E+01  0.37723488580E+02  0.10566000000E+00 0. -1.
         22    1    1    0    0    0  0.24670255117E+02  0.13875498819E+02  0.54487631343E+01  0.28824294869E+02  0.00000000000E+00 0.  1.
</event>
<event>
 5    1  0.1264731E-009  0.9118800E+02  0.7815553E-02  0.1125453E+00
         25   -1    0    0    0    0  0.00000000000E+00  0.00000000000E+00  0.99999998245E-14  0.12509000000E+03  0.12509000000E+03 0.  0.
        -13    1    3    3    0    0  0.11544655407E+02  0.10757696694E+02 -0.18333048847E+02  0.24189232123E+02  0.10566000000E+00 0. -1.
         23    2    1    0    0    0  0.82537612837E+01  0.29355838429E+02  0.33757776347E+02  0.79598492121E+02  0.65318011749E+02 0.  0.
         13    1    3    3    0    0 -0.32908941233E+01  0.18598141735E+02  0.52090825194E+02  0.55409259998E+02  0.10566000000E+00 0.  1.
         22    1    1    0    0    0 -0.82537612837E+01 -0.29355838429E+02 -0.33757776347E+02  0.45491507879E+02  0.00000000000E+00 0.  1.
</event>
<event>
 5    1  0.1264731E-009  0.9118800E+02  0.7815553E-02  0.1125453E+00
         25   -1    0    0    0    0  0.00000000000E+00  0.00000000000E+00  0.99999998245E-14  0.12509000000E+03  0.12509000000E+03 0.  0.
        -13    1    3    3    0    0 -0.32146137368E+02  0.26782830035E+02  0.39222349776E+02  0.57350658395E+02  0.10566000000E+00 0. -1.
         23    2    1    0    0    0 -0.27717484690E+02  0.54818800503E+01  0.74295775332E+01  0.95875130691E+02  0.91315563275E+02 0.  0.
         13    1    3    3    0    0  0.44286526773E+01 -0.21300949985E+02 -0.31792772242E+02  0.38524472296E+02  0.10566000000E+00 0.  1.
         22    1    1    0    0    0  0.27717484690E+02 -0.54818800503E+01 -0.74295775332E+01  0.29214869309E+02  0.00000000000E+00 0. -1.
</event>
<event>
 5    1  0.1264731E-009  0.9118800E+02  0.7815553E-02  0.1125453E+00
         25   -1    0    0    0    0  0.00000000000E+00  0.00000000000E+00  0.99999998245E-14  0.12509000000E+03  0.12509000000E+03 0.  0.
        -13    1    3    3    0    0 -0.50016156511E+02  0.21993352258E+02  0.17124192561E+02  0.57258821072E+02  0.10566000000E+00 0.  1.
         23    2    1    0    0    0 -0.24123221017E+02  0.18126512238E+02 -0.83437970365E+01  0.93783144726E+02  0.88403388213E+02 0.  0.
         13    1    3    3    0    0  0.25892935494E+02 -0.38668400197E+01 -0.25467989597E+02  0.36524323654E+02  0.10566000000E+00 0. -1.
         22    1    1    0    0    0  0.24123221017E+02 -0.18126512238E+02  0.83437970365E+01  0.31306855274E+02  0.00000000000E+00 0.  1.
</event>
<event>
 5    1  0.1264731E-009  0.9118800E+02  0.7815553E-02  0.1125453E+00
         25   -1    0    0    0    0  0.00000000000E+00  0.00000000000E+00  0.99999998245E-14  0.12509000000E+03  0.12509000000E+03 0.  0.
        -13    1    3    3    0    0 -0.21476283409E+02 -0.38029186017E+02  0.79649231949E+01  0.44394829696E+02  0.10566000000E+00 0.  1.
         23    2    1    0    0    0  0.77991060271E+01 -0.12175869338E+02 -0.25465704915E+02  0.95805533541E+02  0.91220174750E+02 0.  0.
         13    1    3    3    0    0  0.29275389436E+02  0.25853316679E+02 -0.33430628110E+02  0.51410703845E+02  0.10566000000E+00 0. -1.
         22    1    1    0    0    0 -0.77991060271E+01  0.12175869338E+02  0.25465704915E+02  0.29284466459E+02  0.00000000000E+00 0. -1.
</event>
<event>
 5    1  0.1264731E-009  0.9118800E+02  0.7815553E-02  0.1125453E+00
         25   -1    0    0    0    0  0.00000000000E+00  0.00000000000E+00  0.99999998245E-14  0.12509000000E+03  0.12509000000E+03 0.  0.
        -13    1    3    3    0    0  0.32581939664E+02 -0.85581603031E+01  0.16166122433E+02  0.37365486463E+02  0.10566000000E+00 0. -1.
         23    2    1    0    0    0 -0.25426607290E+02 -0.11836264291E+02  0.35613195403E+01  0.96818238337E+02  0.92598481452E+02 0.  0.
         13    1    3    3    0    0 -0.58008546954E+02 -0.32781039881E+01 -0.12604802893E+02  0.59452751875E+02  0.10566000000E+00 0.  1.
         22    1    1    0    0    0  0.25426607290E+02  0.11836264291E+02 -0.35613195403E+01  0.28271761663E+02  0.00000000000E+00 0.  1.
</event>
<event>
 5    1  0.1264731E-009  0.9118800E+02  0.7815553E-02  0.1125453E+00
         25   -1    0    0    0    0  0.00000000000E+00  0.00000000000E+00  0.99999998245E-14  0.12509000000E+03  0.12509000000E+03 0.  0.
        -13    1    3    3    0    0 -0.30162905351E+02  0.23215900767E+02  0.59664219396E+00  0.38067651012E+02  0.10566000000E+00 0.  1.
         23    2    1    0    0    0  0.20471526334E+02 -0.76211971158E+01 -0.14026720384E+02  0.99130128647E+02  0.95670619758E+02 0.  0.
         13    1    3    3    0    0  0.50634431685E+02 -0.30837097883E+02 -0.14623362578E+02  0.61062477635E+02  0.10566000000E+00 0. -1.
         22    1    1    0    0    0 -0.20471526334E+02  0.76211971158E+01  0.14026720384E+02  0.25959871353E+02  0.00000000000E+00 0. -1.
</event>
<event>
 5    1  0.1264731E-009  0.9118800E+02  0.7815553E-02  0.1125453E+00
         25   -1    0    0    0    0  0.00000000000E+00  0.00000000000E+00  0.99999998245E-14  0.12509000000E+03  0.12509000000E+03 0.  0.
        -13    1    3    3    0    0  0.98458811734E+01 -0.35392294506E+02 -0.20996622105E+02  0.42313416198E+02  0.10566000000E+00 0. -1.
         23    2    1    0    0    0  0.16060654564E+02  0.17346210203E+02 -0.17772481687E+02  0.95514727580E+02  0.90820517758E+02 0.  0.
         13    1    3    3    0    0  0.62147733906E+01  0.52738504709E+02  0.32241404176E+01  0.53201311382E+02  0.10566000000E+00 0.  1.
         22    1    1    0    0    0 -0.16060654564E+02 -0.17346210203E+02  0.17772481687E+02  0.29575272420E+02  0.00000000000E+00 0.  1.
</event>
<event>
 5    1  0.1264731E-009  0.9118800E+02  0.7815553E-02  0.1125453E+00
         25   -1    0    0    0    0  0.00000000000E+00  0.00000000000E+00  0.99999998245E-14  0.12509000000E+03  0.12509000000E+03 0.  0.
        -13    1    3    3    0    0  0.70275172532E+01  0.51216158618E+02  0.24044513222E+02  0.57014302437E+02  0.10566000000E+00 0. -1.
         23    2    1    0    0    0  0.12558398971E+02  0.13280257098E+02  0.23452783706E+02  0.95355984515E+02  0.90601612049E+02 0.  0.
         13    1    3    3    0    0  0.55308817175E+01 -0.37935901519E+02 -0.59172951600E+00  0.38341682077E+02  0.10566000000E+00 0.  1.
         22    1    1    0    0    0 -0.12558398971E+02 -0.13280257098E+02 -0.23452783706E+02  0.29734015485E+02  0.00000000000E+00 0. -1.
</event>
<event>
 5    1  0.1264731E-009  0.9118800E+02  0.7815553E-02  0.1125453E+00
         25   -1    0    0    0    0  0.00000000000E+00  0.00000000000E+00  0.99999998245E-14  0.12509000000E+03  0.12509000000E+03 0.  0.
        -13    1    3    3    0    0  0.42517397643E+02 -0.96639361075E+01  0.32191360162E+01  0.43720644599E+02  0.10566000000E+00 0. -1.
         23    2    1    0    0    0  0.54992325530E+01  0.21963060728E+02 -0.17339371727E+02  0.96572086207E+02  0.92265358761E+02 0.  0.
         13    1    3    3    0    0 -0.37018165090E+02  0.31626996835E+02 -0.20558507743E+02  0.52851441608E+02  0.10566000000E+00 0.  1.
         22    1    1    0    0    0 -0.54992325530E+01 -0.21963060728E+02  0.17339371727E+02  0.28517913793E+02  0.00000000000E+00 0.  1.
</event>
<event>
 5    1  0.1264731E-009  0.9118800E+02  0.7815553E-02  0.1125453E+00
         25   -1    0    0    0    0  0.00000000000E+00  0.00000000000E+00  0.99999998245E-14  0.12509000000E+03  0.12509000000E+03 0.  0.
        -13    1    3    3    0    0 -0.45521101778E+02  0.13587117671E+02 -0.35187940212E+01  0.47635843113E+02  0.10566000000E+00 0. -1.
         23    2    1    0    0    0  0.32819206740E+01  0.24345251731E+02 -0.11011895656E+02  0.98169299209E+02  0.94405970024E+02 0.  0.
         13    1    3    3    0    0  0.48803022452E+02  0.10758134059E+02 -0.74931016350E+01  0.50533456096E+02  0.10566000000E+00 0.  1.
         22    1    1    0    0    0 -0.32819206740E+01 -0.24345251731E+02  0.11011895656E+02  0.26920700791E+02  0.00000000000E+00 0.  1.
</event>
<event>
 5    1  0.1264731E-009  0.9118800E+02  0.7815553E-02  0.1125453E+00
         25   -1    0    0    0    0  0.00000000000E+00  0.00000000000E+00  0.99999998245E-14  0.12509000000E+03  0.12509000000E+03 0.  0.
        -13    1    3    3    0    0  0.41090315998E+01 -0.34345808656E+02  0.32555322355E+01  0.34743752922E+02  0.10566000000E+00 0. -1.
         23    2    1    0    0    0  0.81142546127E+01  0.25679471865E+02  0.12129474761E+02  0.95553572302E+02  0.90874004085E+02 0.  0.
         13    1    3    3    0    0  0.40052230129E+01  0.60025280521E+02  0.88739425254E+01  0.60809819380E+02  0.10566000000E+00 0.  1.
         22    1    1    0    0    0 -0.81142546127E+01 -0.25679471865E+02 -0.12129474761E+02  0.29536427698E+02  0.00000000000E+00 0.  1.
</event>
<event>
 5    1  0.1264731E-009  0.9118800E+02  0.7815553E-02  0.1125453E+00
         25   -1    0    0    0    0  0.00000000000E+00  0.00000000000E+00  0.99999998245E-14  0.12509000000E+03  0.12509000000E+03 0.  0.
        -13    1    3    3    0    0 -0.32208603924E+02  0.29222499324E+01  0.15922275655E+01  0.32380241878E+02  0.10566000000E+00 0. -1.
         23    2    1    0    0    0  0.29734431169E+02 -0.35316172282E+01  0.49085957451E+01  0.94746911341E+02  0.89756750048E+02 0.  0.
         13    1    3    3    0    0  0.61943035094E+02 -0.64538671606E+01  0.33163681796E+01  0.62366669463E+02  0.10566000000E+00 0.  1.
         22    1    1    0    0    0 -0.29734431169E+02  0.35316172282E+01 -0.49085957451E+01  0.30343088659E+02  0.00000000000E+00 0.  1.
</event>
<event>
 5    1  0.1264731E-009  0.9118800E+02  0.7815553E-02  0.1125453E+00
         25   -1    0    0    0    0  0.00000000000E+00  0.00000000000E+00  0.99999998245E-14  0.12509000000E+03  0.12509000000E+03 0.  0.
        -13    1    3    3    0    0  0.28388507038E+02 -0.17704755787E+02 -0.11579824440E+02  0.35404367067E+02  0.10566000000E+00 0.  1.
         23    2    1    0    0    0 -0.28211865921E+02 -0.12178667415E+02 -0.11517842436E+02  0.92273997606E+02  0.86241524923E+02 0.  0.
         13    1    3    3    0    0 -0.56600372959E+02  0.55260883716E+01  0.61982004703E-01  0.56869630539E+02  0.10566000000E+00 0. -1.
         22    1    1    0    0    0  0.28211865921E+02  0.12178667415E+02  0.11517842436E+02  0.32816002394E+02  0.00000000000E+00 0. -1.
</event>
<event>
 5    1  0.1264731E-009  0.9118800E+02  0.7815553E-02  0.1125453E+00
         25   -1    0    0    0    0  0.00000000000E+00  0.00000000000E+00  0.99999998245E-14  0.12509000000E+03  0.12509000000E+03 0.  0.
        -13    1    3    3    0    0  0.18694028113E+02 -0.39475164715E+02  0.13668472266E+02  0.45766730433E+02  0.10566000000E+00 0.  1.
         23    2    1    0    0    0 -0.11973659649E+02 -0.10788707083E+02  0.30169213462E+02  0.90885524170E+02  0.84203517366E+02 0.  0.
         13    1    3    3    0    0 -0.30667687763E+02  0.28686457632E+02  0.16500741196E+02  0.45118793737E+02  0.10566000000E+00 0. -1.
         22    1    1    0    0    0  0.11973659649E+02  0.10788707083E+02 -0.30169213462E+02  0.34204475830E+02  0.00000000000E+00 0. -1.
</event>
<event>
 5    1  0.1264731E-009  0.9118800E+02  0.7815553E-02  0.1125453E+00
         25   -1    0    0    0    0  0.00000000000E+00  0.00000000000E+00  0.99999998245E-14  0.12509000000E+03  0.12509000000E+03 0.  0.
        -13    1    3    3    0    0 -0.14302081814E+02  0.59210715207E+01  0.33842828560E+02  0.37215008279E+02  0.10566000000E+00 0. -1.
         23    2    1    0    0    0  0.27873938293E+02 -0.70527938041E+01 -0.48843945569E+01  0.95925712822E+02  0.91384827700E+02 0.  0.
         13    1    3    3    0    0  0.42176020107E+02 -0.12973865325E+02 -0.38727223117E+02  0.58710704543E+02  0.10566000000E+00 0.  1.
         22    1    1    0    0    0 -0.27873938293E+02  0.70527938041E+01  0.48843945569E+01  0.29164287178E+02  0.00000000000E+00 0.  1.
</event>
<event>
 5    1  0.1264731E-009  0.9118800E+02  0.7815553E-02  0.1125453E+00
         25   -1    0    0    0    0  0.00000000000E+00  0.00000000000E+00  0.99999998245E-14  0.12509000000E+03  0.12509000000E+03 0.  0.
        -13    1    3    3    0    0 -0.24434113841E+02  0.19938256409E+01 -0.34534570779E+02  0.42351493513E+02  0.10566000000E+00 0.  1.
         23    2    1    0    0    0  0.25005768661E+02 -0.34164659799E+01 -0.14601782882E+02  0.95932277704E+02  0.91393813445E+02 0.  0.
         13    1    3    3    0    0  0.49439882502E+02 -0.54102916208E+01  0.19932787897E+02  0.53580784192E+02  0.10566000000E+00 0. -1.
         22    1    1    0    0    0 -0.25005768661E+02  0.34164659799E+01  0.14601782882E+02  0.29157722296E+02  0.00000000000E+00 0.  1.
</event>
<event>
 5    1  0.1264731E-009  0.9118800E+02  0.7815553E-02  0.1125453E+00
         25   -1    0    0    0    0  0.00000000000E+00  0.00000000000E+00  0.99999998245E-14  0.12509000000E+03  0.12509000000E+03 0.  0.
        -13    1    3    3    0    0 -0.26026600734E+02 -0.93941626471E+01  0.23681731228E+02  0.36420733046E+02  0.10566000000E+00 0.  1.
         23    2    1    0    0    0  0.22563862374E+01  0.14163660653E+02 -0.24286698758E+02  0.96884605152E+02  0.92688092099E+02 0.  0.
         13    1    3    3    0    0  0.28282986972E+02  0.23557823300E+02 -0.47968429986E+02  0.60463872106E+02  0.10566000000E+00 0. -1.
         22    1    1    0    0    0 -0.22563862374E+01 -0.14163660653E+02  0.24286698758E+02  0.28205394848E+02  0.00000000000E+00 0. -1.
</event>
<event>
 5    1  0.1264731E-009  0.9118800E+02  0.7815553E-02  0.1125453E+00
         25   -1    0    0    0    0  0.00000000000E+00  0.00000000000E+00  0.99999998245E-14  0.12509000000E+03  0.12509000000E+03 0.  0.
        -13    1    3    3    0    0 -0.10515817441E+02 -0.17228016546E+02 -0.33596587844E+02  0.39193479679E+02  0.10566000000E+00 0.  1.
         23    2    1    0    0    0  0.29285805734E+02  0.74830505084E+01 -0.40206020297E+01  0.94597054864E+02  0.89547658182E+02 0.  0.
         13    1    3    3    0    0  0.39801623175E+02  0.24711067055E+02  0.29575985814E+02  0.55403575185E+02  0.10566000000E+00 0. -1.
         22    1    1    0    0    0 -0.29285805734E+02 -0.74830505084E+01  0.40206020297E+01  0.30492945136E+02  0.00000000000E+00 0. -1.
</event>
<event>
 5    1  0.1264731E-009  0.9118800E+02  0.7815553E-02  0.1125453E+00
         25   -1    0    0    0    0  0.00000000000E+00  0.00000000000E+00  0.99999998245E-14  0.12509000000E+03  0.12509000000E+03 0.  0.
        -13    1    3    3    0    0 -0.34807249007E+02 -0.27808069900E+02  0.32609869343E+02  0.55210941648E+02  0.10566000000E+00 0.  1.
         23    2    1    0    0    0 -0.36051791939E+01 -0.11731887881E+01  0.28385745759E+02  0.96452188435E+02  0.92102662299E+02 0.  0.
         13    1    3    3    0    0  0.31202069813E+02  0.26634881112E+02 -0.42241235843E+01  0.41241246787E+02  0.10566000000E+00 0. -1.
         22    1    1    0    0    0  0.36051791939E+01  0.11731887881E+01 -0.28385745759E+02  0.28637811565E+02  0.00000000000E+00 0.  1.
</event>
<event>
 5    1  0.1264731E-009  0.9118800E+02  0.7815553E-02  0.1125453E+00
         25   -1    0    0    0    0  0.00000000000E+00  0.00000000000E+00  0.99999998245E-14  0.12509000000E+03  0.12509000000E+03 0.  0.
        -13    1    3    3    0    0  0.50564100764E+02 -0.14058984369E+02  0.24089511259E+02  0.57746853111E+02  0.10566000000E+00 0.  1.
         23    2    1    0    0    0  0.27973783040E+02 -0.13788253649E+01 -0.49346508376E+01  0.96650863659E+02  0.92372100605E+02 0.  0.
         13    1    3    3    0    0 -0.22590317724E+02  0.12680159004E+02 -0.29024162096E+02  0.38904010548E+02  0.10566000000E+00 0. -1.
         22    1    1    0    0    0 -0.27973783040E+02  0.13788253649E+01  0.49346508376E+01  0.28439136341E+02  0.00000000000E+00 0.  1.
</event>
<event>
 5    1  0.1264731E-009  0.9118800E+02  0.7815553E-02  0.1125453E+00
         25   -1    0    0    0    0  0.00000000000E+00  0.00000000000E+00  0.99999998245E-14  0.12509000000E+03  0.12509000000E+03 0.  0.
        -13    1    3    3    0    0 -0.52283328936E+01 -0.24901877768E+02  0.30479725463E+02  0.39704707650E+02  0.10566000000E+00 0.  1.
         23    2    1    0    0    0 -0.17542452281E+02  0.17681422031E+02 -0.85393846289E+01  0.98759572603E+02  0.95184882065E+02 0.  0.
         13    1    3    3    0    0 -0.12314119387E+02  0.42583299800E+02 -0.39019110092E+02  0.59054864952E+02  0.10566000000E+00 0. -1.
         22    1    1    0    0    0  0.17542452281E+02 -0.17681422031E+02  0.85393846289E+01  0.26330427397E+02  0.00000000000E+00 0. -1.
</event>
<event>
 5    1  0.1264731E-009  0.9118800E+02  0.7815553E-02  0.1125453E+00
         25   -1    0    0    0    0  0.00000000000E+00  0.00000000000E+00  0.99999998245E-14  0.12509000000E+03  0.12509000000E+03 0.  0.
        -13    1    3    3    0    0  0.25231803988E+02  0.43805648509E+02  0.19043553420E+02  0.54020800297E+02  0.10566000000E+00 0.  1.
         23    2    1    0    0    0 -0.13618979474E-01  0.24230354043E+02 -0.11545086481E+02  0.98249745449E+02  0.94512502964E+02 0.  0.
         13    1    3    3    0    0 -0.25245422968E+02 -0.19575294467E+02 -0.30588639901E+02  0.44228945152E+02  0.10566000000E+00 0. -1.
         22    1    1    0    0    0  0.13618979474E-01 -0.24230354043E+02  0.11545086481E+02  0.26840254551E+02  0.00000000000E+00 0.  1.
</event>
<event>
 5    1  0.1264731E-009  0.9118800E+02  0.7815553E-02  0.1125453E+00
         25   -1    0    0    0    0  0.00000000000E+00  0.00000000000E+00  0.99999998245E-14  0.12509000000E+03  0.12509000000E+03 0.  0.
        -13    1    3    3    0    0  0.35306804792E+02 -0.99781419497E+01  0.27431006736E+02  0.45810534553E+02  0.10566000000E+00 0.  1.
         23    2    1    0    0    0 -0.61029609149E+01  0.15594641223E+02  0.25580509721E+02  0.94515477201E+02  0.89433628944E+02 0.  0.
         13    1    3    3    0    0 -0.41409765707E+02  0.25572783173E+02 -0.18504970153E+01  0.48704942648E+02  0.10566000000E+00 0. -1.
         22    1    1    0    0    0  0.61029609149E+01 -0.15594641223E+02 -0.25580509721E+02  0.30574522799E+02  0.00000000000E+00 0. -1.
</event>
<event>
 5    1  0.1264731E-009  0.9118800E+02  0.7815553E-02  0.1125453E+00
         25   -1    0    0    0    0  0.00000000000E+00  0.00000000000E+00  0.99999998245E-14  0.12509000000E+03  0.12509000000E+03 0.  0.
        -13    1    3    3    0    0 -0.48949860656E+02  0.14253317606E+02 -0.13118388040E+02  0.52643605403E+02  0.10566000000E+00 0.  1.
         23    2    1    0    0    0 -0.14034833205E+02 -0.13183295383E+02 -0.19709734103E+02  0.97535518719E+02  0.93562428213E+02 0.  0.
         13    1    3    3    0    0  0.34915027451E+02 -0.27436612989E+02 -0.65913460635E+01  0.44891913316E+02  0.10566000000E+00 0. -1.
         22    1    1    0    0    0  0.14034833205E+02  0.13183295383E+02  0.19709734103E+02  0.27554481281E+02  0.00000000000E+00 0.  1.
</event>
<event>
 5    1  0.1264731E-009  0.9118800E+02  0.7815553E-02  0.1125453E+00
         25   -1    0    0    0    0  0.00000000000E+00  0.00000000000E+00  0.99999998245E-14  0.12509000000E+03  0.12509000000E+03 0.  0.
        -13    1    3    3    0    0 -0.24995571675E+02 -0.25108836605E+02 -0.46341548271E+02  0.58333374145E+02  0.10566000000E+00 0.  1.
         23    2    1    0    0    0 -0.24952565118E+02 -0.90778274041E+01 -0.12579309998E+02  0.95708432711E+02  0.91086923297E+02 0.  0.
         13    1    3    3    0    0  0.43006557286E-01  0.16031009201E+02  0.33762238273E+02  0.37375058566E+02  0.10566000000E+00 0. -1.
         22    1    1    0    0    0  0.24952565118E+02  0.90778274041E+01  0.12579309998E+02  0.29381567289E+02  0.00000000000E+00 0.  1.
</event>
<event>
 5    1  0.1264731E-009  0.9118800E+02  0.7815553E-02  0.1125453E+00
         25   -1    0    0    0    0  0.00000000000E+00  0.00000000000E+00  0.99999998245E-14  0.12509000000E+03  0.12509000000E+03 0.  0.
        -13    1    3    3    0    0  0.28543554259E+02  0.26107064400E+02  0.11408122358E+02  0.40329514268E+02  0.10566000000E+00 0. -1.
         23    2    1    0    0    0  0.47310970332E+01 -0.22671952331E+02  0.18992766260E+02  0.95137940440E+02  0.90300065556E+02 0.  0.
         13    1    3    3    0    0 -0.23812457226E+02 -0.48779016731E+02  0.75846439025E+01  0.54808426173E+02  0.10566000000E+00 0.  1.
         22    1    1    0    0    0 -0.47310970332E+01  0.22671952331E+02 -0.18992766260E+02  0.29952059560E+02  0.00000000000E+00 0.  1.
</event>
<event>
 5    1  0.1264731E-009  0.9118800E+02  0.7815553E-02  0.1125453E+00
         25   -1    0    0    0    0  0.00000000000E+00  0.00000000000E+00  0.99999998245E-14  0.12509000000E+03  0.12509000000E+03 0.  0.
        -13    1    3    3    0    0 -0.26350742404E+02  0.24508942735E+02 -0.12247752271E+02  0.38014056597E+02  0.10566000000E+00 0.  1.
         23    2    1    0    0    0  0.23253998901E+02  0.87285635104E+01  0.14281273091E+02  0.96438803743E+02  0.92084481975E+02 0.  0.
         13    1    3    3    0    0  0.49604741305E+02 -0.15780379224E+02  0.26529025362E+02  0.58424747146E+02  0.10566000000E+00 0. -1.
         22    1    1    0    0    0 -0.23253998901E+02 -0.87285635104E+01 -0.14281273091E+02  0.28651196257E+02  0.00000000000E+00 0. -1.
</event>
<event>
 5    1  0.1264731E-009  0.9118800E+02  0.7815553E-02  0.1125453E+00
         25   -1    0    0    0    0  0.00000000000E+00  0.00000000000E+00  0.99999998245E-14  0.12509000000E+03  0.12509000000E+03 0.  0.
        -13    1    3    3    0    0  0.46167012969E+02 -0.21049891329E+02  0.31475300524E+02  0.59709268280E+02  0.10566000000E+00 0.  1.
         23    2    1    0    0    0  0.12116817049E+02 -0.98144452054E+01  0.24208420203E+02  0.96294371880E+02  0.91888072442E+02 0.  0.
         13    1    3    3    0    0 -0.34050195920E+02  0.11235446124E+02 -0.72668803209E+01  0.36585103600E+02  0.10566000000E+00 0. -1.
         22    1    1    0    0    0 -0.12116817049E+02  0.98144452054E+01 -0.24208420203E+02  0.28795628120E+02  0.00000000000E+00 0.  1.
</event>
<event>
 5    1  0.1264731E-009  0.9118800E+02  0.7815553E-02  0.1125453E+00
         25   -1    0    0    0    0  0.00000000000E+00  0.00000000000E+00  0.99999998245E-14  0.12509000000E+03  0.12509000000E+03 0.  0.
        -13    1    3    3    0    0 -0.13732097620E+02  0.45459257309E+02  0.68270568310E+01  0.47976394707E+02  0.10566000000E+00 0.  1.
         23    2    1    0    0    0 -0.98294772475E+01  0.16168444010E+02 -0.26506860926E+02  0.92522364519E+02  0.86601022254E+02 0.  0.
         13    1    3    3    0    0  0.39026203725E+01 -0.29290813299E+02 -0.33333917757E+02  0.44545969812E+02  0.10566000000E+00 0. -1.
         22    1    1    0    0    0  0.98294772475E+01 -0.16168444010E+02  0.26506860926E+02  0.32567635481E+02  0.00000000000E+00 0. -1.
</event>
<event>
 5    1  0.1264731E-009  0.9118800E+02  0.7815553E-02  0.1125453E+00
         25   -1    0    0    0    0  0.00000000000E+00  0.00000000000E+00  0.99999998245E-14  0.12509000000E+03  0.12509000000E+03 0.  0.
        -13    1    3    3    0    0 -0.39426155424E+02 -0.75856311092E+01 -0.42382896964E+01  0.40372488088E+02  0.10566000000E+00 0.  1.
         23    2    1    0    0    0  0.44806336811E+01 -0.45906678840E+00  0.28900102191E+02  0.95841021776E+02  0.91268826704E+02 0.  0.
         13    1    3    3    0    0  0.43906789105E+02  0.71265643208E+01  0.33138391888E+02  0.55468533688E+02  0.10566000000E+00 0. -1.
         22    1    1    0    0    0 -0.44806336811E+01  0.45906678840E+00 -0.28900102191E+02  0.29248978224E+02  0.00000000000E+00 0. -1.
</event>
<event>
 5    1  0.1264731E-009  0.9118800E+02  0.7815553E-02  0.1125453E+00
         25   -1    0    0    0    0  0.00000000000E+00  0.00000000000E+00  0.99999998245E-14  0.12509000000E+03  0.12509000000E+03 0.  0.
        -13    1    3    3    0    0  0.17896587225E+02  0.27960674038E+01 -0.38220977759E+02  0.42296100673E+02  0.10566000000E+00 0.  1.
         23    2    1    0    0    0 -0.61261510186E+01  0.23186477097E+02  0.93444289260E+01  0.99351686177E+02  0.95959870508E+02 0.  0.
         13    1    3    3    0    0 -0.24022738243E+02  0.20390409693E+02  0.47565406685E+02  0.57055585505E+02  0.10566000000E+00 0. -1.
         22    1    1    0    0    0  0.61261510186E+01 -0.23186477097E+02 -0.93444289260E+01  0.25738313823E+02  0.00000000000E+00 0.  1.
</event>
<event>
 5    1  0.1264731E-009  0.9118800E+02  0.7815553E-02  0.1125453E+00
         25   -1    0    0    0    0  0.00000000000E+00  0.00000000000E+00  0.99999998245E-14  0.12509000000E+03  0.12509000000E+03 0.  0.
        -13    1    3    3    0    0 -0.35209279656E+02 -0.17364240214E+02 -0.24424337661E+02  0.46236021091E+02  0.10566000000E+00 0. -1.
         23    2    1    0    0    0 -0.18947270593E+02  0.21718871928E+02  0.21010610892E+01  0.96191506640E+02  0.91747932027E+02 0.  0.
         13    1    3    3    0    0  0.16262009063E+02  0.39083112142E+02  0.26525398751E+02  0.49955485549E+02  0.10566000000E+00 0.  1.
         22    1    1    0    0    0  0.18947270593E+02 -0.21718871928E+02 -0.21010610892E+01  0.28898493360E+02  0.00000000000E+00 0. -1.
</event>
<event>
 5    1  0.1264731E-009  0.9118800E+02  0.7815553E-02  0.1125453E+00
         25   -1    0    0    0    0  0.00000000000E+00  0.00000000000E+00  0.99999998245E-14  0.12509000000E+03  0.12509000000E+03 0.  0.
        -13    1    3    3    0    0 -0.28679270439E+02 -0.41222256223E+02 -0.36891833156E+02  0.62312065274E+02  0.10566000000E+00 0.  1.
         23    2    1    0    0    0 -0.97159927395E+01 -0.20142367199E+02 -0.14563122331E+02  0.98402924414E+02  0.94715022726E+02 0.  0.
         13    1    3    3    0    0  0.18963277699E+02  0.21079889025E+02  0.22328710824E+02  0.36090859141E+02  0.10566000000E+00 0. -1.
         22    1    1    0    0    0  0.97159927395E+01  0.20142367199E+02  0.14563122331E+02  0.26687075586E+02  0.00000000000E+00 0.  1.
</event>
<event>
 5    1  0.1264731E-009  0.9118800E+02  0.7815553E-02  0.1125453E+00
         25   -1    0    0    0    0  0.00000000000E+00  0.00000000000E+00  0.99999998245E-14  0.12509000000E+03  0.12509000000E+03 0.  0.
        -13    1    3    3    0    0 -0.16454351472E+02  0.18389781941E+02  0.37771735272E+02  0.45118121766E+02  0.10566000000E+00 0.  1.
         23    2    1    0    0    0  0.22319097266E+02  0.44299478330E+01  0.30614930377E+02  0.86945006848E+02  0.78130619563E+02 0.  0.
         13    1    3    3    0    0  0.38773448738E+02 -0.13959834108E+02 -0.71568048957E+01  0.41826885082E+02  0.10566000000E+00 0. -1.
         22    1    1    0    0    0 -0.22319097266E+02 -0.44299478330E+01 -0.30614930377E+02  0.38144993152E+02  0.00000000000E+00 0.  1.
</event>
<event>
 5    1  0.1264731E-009  0.9118800E+02  0.7815553E-02  0.1125453E+00
         25   -1    0    0    0    0  0.00000000000E+00  0.00000000000E+00  0.99999998245E-14  0.12509000000E+03  0.12509000000E+03 0.  0.
        -13    1    3    3    0    0 -0.41303847526E+02  0.64770714564E+01  0.45186299157E+02  0.61561132792E+02  0.10566000000E+00 0.  1.
         23    2    1    0    0    0 -0.15897410633E+02  0.72740062820E+00  0.28353755186E+02  0.92575507697E+02  0.86677750408E+02 0.  0.
         13    1    3    3    0    0  0.25406436893E+02 -0.57496708282E+01 -0.16832543971E+02  0.31014374905E+02  0.10566000000E+00 0. -1.
         22    1    1    0    0    0  0.15897410633E+02 -0.72740062820E+00 -0.28353755186E+02  0.32514492303E+02  0.00000000000E+00 0.  1.
</event>
<event>
 5    1  0.1264731E-009  0.9118800E+02  0.7815553E-02  0.1125453E+00
         25   -1    0    0    0    0  0.00000000000E+00  0.00000000000E+00  0.99999998245E-14  0.12509000000E+03  0.12509000000E+03 0.  0.
        -13    1    3    3    0    0 -0.31495466115E+02  0.23363874430E+02  0.32857472736E+02  0.51161115047E+02  0.10566000000E+00 0. -1.
         23    2    1    0    0    0  0.62383898260E+01  0.24315711545E+02  0.24890578284E+02  0.89738730958E+02  0.82482286650E+02 0.  0.
         13    1    3    3    0    0  0.37733855942E+02  0.95183711543E+00 -0.79668944520E+01  0.38577615911E+02  0.10566000000E+00 0.  1.
         22    1    1    0    0    0 -0.62383898260E+01 -0.24315711545E+02 -0.24890578284E+02  0.35351269042E+02  0.00000000000E+00 0. -1.
</event>
<event>
 5    1  0.1264731E-009  0.9118800E+02  0.7815553E-02  0.1125453E+00
         25   -1    0    0    0    0  0.00000000000E+00  0.00000000000E+00  0.99999998245E-14  0.12509000000E+03  0.12509000000E+03 0.  0.
        -13    1    3    3    0    0 -0.30244161857E+02  0.42199539046E+02  0.17513845227E+02  0.54792849541E+02  0.10566000000E+00 0.  1.
         23    2    1    0    0    0 -0.12907542587E+02  0.56201797290E+01  0.25414782137E+02  0.96036562563E+02  0.91536436035E+02 0.  0.
         13    1    3    3    0    0  0.17336619271E+02 -0.36579359317E+02  0.79009369097E+01  0.41243713022E+02  0.10566000000E+00 0. -1.
         22    1    1    0    0    0  0.12907542587E+02 -0.56201797290E+01 -0.25414782137E+02  0.29053437437E+02  0.00000000000E+00 0.  1.
</event>
<event>
 5    1  0.1264731E-009  0.9118800E+02  0.7815553E-02  0.1125453E+00
         25   -1    0    0    0    0  0.00000000000E+00  0.00000000000E+00  0.99999998245E-14  0.12509000000E+03  0.12509000000E+03 0.  0.
        -13    1    3    3    0    0 -0.25528064966E+02 -0.26878778010E+02  0.36896511548E+02  0.52302146578E+02  0.10566000000E+00 0. -1.
         23    2    1    0    0    0  0.12571791378E+02 -0.20565433887E+02  0.15077057618E+02  0.96659300469E+02  0.92383525000E+02 0.  0.
         13    1    3    3    0    0  0.38099856344E+02  0.63133441238E+01 -0.21819453930E+02  0.44357153891E+02  0.10566000000E+00 0.  1.
         22    1    1    0    0    0 -0.12571791378E+02  0.20565433887E+02 -0.15077057618E+02  0.28430699531E+02  0.00000000000E+00 0. -1.
</event>
<event>
 5    1  0.1264731E-009  0.9118800E+02  0.7815553E-02  0.1125453E+00
         25   -1    0    0    0    0  0.00000000000E+00  0.00000000000E+00  0.99999998245E-14  0.12509000000E+03  0.12509000000E+03 0.  0.
        -13    1    3    3    0    0 -0.42661307372E+02 -0.93832119980E+00  0.37585763666E+02  0.56864473864E+02  0.10566000000E+00 0. -1.
         23    2    1    0    0    0 -0.18461222780E+02  0.17933872110E+02  0.12626653924E+02  0.96421674191E+02  0.92061209796E+02 0.  0.
         13    1    3    3    0    0  0.24200084592E+02  0.18872193310E+02 -0.24959109742E+02  0.39557200327E+02  0.10566000000E+00 0.  1.
         22    1    1    0    0    0  0.18461222780E+02 -0.17933872110E+02 -0.12626653924E+02  0.28668325809E+02  0.00000000000E+00 0. -1.
</event>
<event>
 5    1  0.1264731E-009  0.9118800E+02  0.7815553E-02  0.1125453E+00
         25   -1    0    0    0    0  0.00000000000E+00  0.00000000000E+00  0.99999998245E-14  0.12509000000E+03  0.12509000000E+03 0.  0.
        -13    1    3    3    0    0  0.39351529508E+02 -0.13663691819E+02  0.38567696932E+02  0.56768985894E+02  0.10566000000E+00 0. -1.
         23    2    1    0    0    0  0.14259972486E+02 -0.23196482943E+02  0.97068182979E+01  0.96182458463E+02  0.91735594828E+02 0.  0.
         13    1    3    3    0    0 -0.25091557022E+02 -0.95327911235E+01 -0.28860878635E+02  0.39413472569E+02  0.10566000000E+00 0.  1.
         22    1    1    0    0    0 -0.14259972486E+02  0.23196482943E+02 -0.97068182979E+01  0.28907541537E+02  0.00000000000E+00 0. -1.
</event>
<event>
 5    1  0.1264731E-009  0.9118800E+02  0.7815553E-02  0.1125453E+00
         25   -1    0    0    0    0  0.00000000000E+00  0.00000000000E+00  0.99999998245E-14  0.12509000000E+03  0.12509000000E+03 0.  0.
        -13    1    3    3    0    0  0.13019591632E+02 -0.52305596780E+02  0.31086098468E+02  0.62223322820E+02  0.10566000000E+00 0.  1.
         23    2    1    0    0    0  0.66170001080E+01 -0.26826886319E+02  0.10766526066E+02  0.95435580371E+02  0.90711440277E+02 0.  0.
         13    1    3    3    0    0 -0.64025915245E+01  0.25478710461E+02 -0.20319572402E+02  0.33212257551E+02  0.10566000000E+00 0. -1.
         22    1    1    0    0    0 -0.66170001080E+01  0.26826886319E+02 -0.10766526066E+02  0.29654419629E+02  0.00000000000E+00 0.  1.
</event>
<event>
 5    1  0.1264731E-009  0.9118800E+02  0.7815553E-02  0.1125453E+00
         25   -1    0    0    0    0  0.00000000000E+00  0.00000000000E+00  0.99999998245E-14  0.12509000000E+03  0.12509000000E+03 0.  0.
        -13    1    3    3    0    0  0.51073741125E+02 -0.92843036328E+01  0.34377043961E+02  0.62261686791E+02  0.10566000000E+00 0. -1.
         23    2    1    0    0    0  0.21061524480E+02 -0.70791349547E+01  0.17808852066E+02  0.96614445975E+02  0.92322770723E+02 0.  0.
         13    1    3    3    0    0 -0.30012216645E+02  0.22051686781E+01 -0.16568191895E+02  0.34352759184E+02  0.10566000000E+00 0.  1.
         22    1    1    0    0    0 -0.21061524480E+02  0.70791349547E+01 -0.17808852066E+02  0.28475554025E+02  0.00000000000E+00 0. -1.
</event>
<event>
 5    1  0.1264731E-009  0.9118800E+02  0.7815553E-02  0.1125453E+00
         25   -1    0    0    0    0  0.00000000000E+00  0.00000000000E+00  0.99999998245E-14  0.12509000000E+03  0.12509000000E+03 0.  0.
        -13    1    3    3    0    0 -0.81548349230E+01 -0.51766794956E+02  0.30135075278E+02  0.60451933953E+02  0.10566000000E+00 0.  1.
         23    2    1    0    0    0  0.75540417585E+01 -0.24180226463E+02  0.15325798958E+02  0.95482112328E+02  0.90775584615E+02 0.  0.
         13    1    3    3    0    0  0.15708876681E+02  0.27586568493E+02 -0.14809276319E+02  0.35030178375E+02  0.10566000000E+00 0. -1.
         22    1    1    0    0    0 -0.75540417585E+01  0.24180226463E+02 -0.15325798958E+02  0.29607887672E+02  0.00000000000E+00 0.  1.
</event>
<event>
 5    1  0.1264731E-009  0.9118800E+02  0.7815553E-02  0.1125453E+00
         25   -1    0    0    0    0  0.00000000000E+00  0.00000000000E+00  0.99999998245E-14  0.12509000000E+03  0.12509000000E+03 0.  0.
        -13    1    3    3    0    0 -0.18949155829E+02 -0.39496476538E+02  0.86171735897E+01  0.44646489338E+02  0.10566000000E+00 0.  1.
         23    2    1    0    0    0 -0.61169832377E+01 -0.70146286173E+01 -0.28200247480E+02  0.95393595226E+02  0.90653524773E+02 0.  0.
         13    1    3    3    0    0  0.12832172591E+02  0.32481847920E+02 -0.36817421069E+02  0.50747105888E+02  0.10566000000E+00 0. -1.
         22    1    1    0    0    0  0.61169832377E+01  0.70146286173E+01  0.28200247480E+02  0.29696404774E+02  0.00000000000E+00 0. -1.
</event>
<event>
 5    1  0.1264731E-009  0.9118800E+02  0.7815553E-02  0.1125453E+00
         25   -1    0    0    0    0  0.00000000000E+00  0.00000000000E+00  0.99999998245E-14  0.12509000000E+03  0.12509000000E+03 0.  0.
        -13    1    3    3    0    0 -0.26058878340E+02 -0.52382565526E+02 -0.18776897707E+02  0.61445759520E+02  0.10566000000E+00 0.  1.
         23    2    1    0    0    0 -0.50515094134E+01 -0.28458847166E+02 -0.10455380405E+02  0.94353397898E+02  0.89206642051E+02 0.  0.
         13    1    3    3    0    0  0.21007368927E+02  0.23923718359E+02  0.83215173022E+01  0.32907638378E+02  0.10566000000E+00 0. -1.
         22    1    1    0    0    0  0.50515094134E+01  0.28458847166E+02  0.10455380405E+02  0.30736602102E+02  0.00000000000E+00 0.  1.
</event>
<event>
 5    1  0.1264731E-009  0.9118800E+02  0.7815553E-02  0.1125453E+00
         25   -1    0    0    0    0  0.00000000000E+00  0.00000000000E+00  0.99999998245E-14  0.12509000000E+03  0.12509000000E+03 0.  0.
        -13    1    3    3    0    0 -0.41852816516E+02 -0.45192120447E+02 -0.24311132791E+01  0.61643389561E+02  0.10566000000E+00 0.  1.
         23    2    1    0    0    0 -0.14719149682E+02 -0.25083156700E+02 -0.52619919559E+01  0.95534853633E+02  0.90848233786E+02 0.  0.
         13    1    3    3    0    0  0.27133666833E+02  0.20108963747E+02 -0.28308786769E+01  0.33891464072E+02  0.10566000000E+00 0. -1.
         22    1    1    0    0    0  0.14719149682E+02  0.25083156700E+02  0.52619919559E+01  0.29555146367E+02  0.00000000000E+00 0.  1.
</event>
<event>
 5    1  0.1264731E-009  0.9118800E+02  0.7815553E-02  0.1125453E+00
         25   -1    0    0    0    0  0.00000000000E+00  0.00000000000E+00  0.99999998245E-14  0.12509000000E+03  0.12509000000E+03 0.  0.
        -13    1    3    3    0    0  0.41136056363E+02 -0.16550258322E+02  0.42951879861E+02  0.61732984144E+02  0.10566000000E+00 0.  1.
         23    2    1    0    0    0  0.18216577533E+02 -0.13863798764E+02  0.16296586344E+02  0.96989691467E+02  0.92829806157E+02 0.  0.
         13    1    3    3    0    0 -0.22919478830E+02  0.26864595588E+01 -0.26655293517E+02  0.35256707323E+02  0.10566000000E+00 0. -1.
         22    1    1    0    0    0 -0.18216577533E+02  0.13863798764E+02 -0.16296586344E+02  0.28100308533E+02  0.00000000000E+00 0.  1.
</event>
<event>
 4    1  0.1264731E-009  0.9118800E+02  0.7815553E-02  0.1125453E+00
         25   -1    0    0    0    0  0.00000000000E+00  0.00000000000E+00  0.99999998245E-14  0.12509000000E+03  0.12509000000E+03 0.  0.
        -13    1    1    0    0    0  0.34308676694E+02  0.98338404808E+01  0.36426234865E+02  0.50996778973E+02  0.10566000000E+00 0.  1.
         13    1    1    0    0    0 -0.10390217569E+02  0.65099971635E+01  0.12324302871E+02  0.17384944334E+02  0.10566000000E+00 0. -1.
         22    1    1    0    0    0 -0.23918459125E+02 -0.16343837644E+02 -0.48750537737E+02  0.56708276693E+02  0.00000000000E+00 0.  1.
</event>
<event>
 5    1  0.1264731E-009  0.9118800E+02  0.7815553E-02  0.1125453E+00
         25   -1    0    0    0    0  0.00000000000E+00  0.00000000000E+00  0.99999998245E-14  0.12509000000E+03  0.12509000000E+03 0.  0.
        -13    1    3    3    0    0  0.49372571239E+02  0.32379864243E+02 -0.99770313068E+01  0.59880370046E+02  0.10566000000E+00 0.  1.
         23    2    1    0    0    0  0.14401381776E+02  0.20125464998E+02 -0.13138399072E+02  0.97071226496E+02  0.92939611280E+02 0.  0.
         13    1    3    3    0    0 -0.34971189463E+02 -0.12254399244E+02 -0.31613677654E+01  0.37190856450E+02  0.10566000000E+00 0. -1.
         22    1    1    0    0    0 -0.14401381776E+02 -0.20125464998E+02  0.13138399072E+02  0.28018773504E+02  0.00000000000E+00 0.  1.
</event>
<event>
 5    1  0.1264731E-009  0.9118800E+02  0.7815553E-02  0.1125453E+00
         25   -1    0    0    0    0  0.00000000000E+00  0.00000000000E+00  0.99999998245E-14  0.12509000000E+03  0.12509000000E+03 0.  0.
        -13    1    3    3    0    0  0.46139210582E+02 -0.10097939641E+02  0.16540806512E+02  0.50044026439E+02  0.10566000000E+00 0. -1.
         23    2    1    0    0    0  0.14937459373E+01 -0.22079282271E+02  0.18404871558E+02  0.96306927204E+02  0.91905162792E+02 0.  0.
         13    1    3    3    0    0 -0.44645464645E+02 -0.11981342630E+02  0.18640650461E+01  0.46262900764E+02  0.10566000000E+00 0.  1.
         22    1    1    0    0    0 -0.14937459373E+01  0.22079282271E+02 -0.18404871558E+02  0.28783072796E+02  0.00000000000E+00 0. -1.
</event>
<event>
 5    1  0.1264731E-009  0.9118800E+02  0.7815553E-02  0.1125453E+00
         25   -1    0    0    0    0  0.00000000000E+00  0.00000000000E+00  0.99999998245E-14  0.12509000000E+03  0.12509000000E+03 0.  0.
        -13    1    3    3    0    0 -0.10769071660E+02 -0.17462231633E+02 -0.48579735157E+02  0.52734279838E+02  0.10566000000E+00 0. -1.
         23    2    1    0    0    0 -0.19411589056E+02 -0.15381137566E+02 -0.19027729423E+01  0.10025031950E+03  0.97124234012E+02 0.  0.
         13    1    3    3    0    0 -0.86425173961E+01  0.20810940668E+01  0.46676962215E+02  0.47516039661E+02  0.10566000000E+00 0.  1.
         22    1    1    0    0    0  0.19411589056E+02  0.15381137566E+02  0.19027729423E+01  0.24839680501E+02  0.00000000000E+00 0.  1.
</event>
<event>
 5    1  0.1264731E-009  0.9118800E+02  0.7815553E-02  0.1125453E+00
         25   -1    0    0    0    0  0.00000000000E+00  0.00000000000E+00  0.99999998245E-14  0.12509000000E+03  0.12509000000E+03 0.  0.
        -13    1    3    3    0    0  0.76339341298E+01 -0.42676275983E+01 -0.48737811053E+02  0.49516411278E+02  0.10566000000E+00 0.  1.
         23    2    1    0    0    0  0.64898772285E+01  0.24749679472E+02 -0.10739394257E+02  0.97341131025E+02  0.93302176073E+02 0.  0.
         13    1    3    3    0    0 -0.11440569012E+01  0.29017307070E+02  0.37998416797E+02  0.47824719747E+02  0.10566000000E+00 0. -1.
         22    1    1    0    0    0 -0.64898772285E+01 -0.24749679472E+02  0.10739394257E+02  0.27748868975E+02  0.00000000000E+00 0. -1.
</event>
<event>
 5    1  0.1264731E-009  0.9118800E+02  0.7815553E-02  0.1125453E+00
         25   -1    0    0    0    0  0.00000000000E+00  0.00000000000E+00  0.99999998245E-14  0.12509000000E+03  0.12509000000E+03 0.  0.
        -13    1    3    3    0    0 -0.12635980352E+02 -0.13710319450E+02  0.42977037791E+02  0.46847388403E+02  0.10566000000E+00 0.  1.
         23    2    1    0    0    0 -0.76805436386E+01 -0.29477467839E+02 -0.17978168841E+01  0.94575347678E+02  0.89517330066E+02 0.  0.
         13    1    3    3    0    0  0.49554367139E+01 -0.15767148388E+02 -0.44774854675E+02  0.47727959275E+02  0.10566000000E+00 0. -1.
         22    1    1    0    0    0  0.76805436386E+01  0.29477467839E+02  0.17978168841E+01  0.30514652322E+02  0.00000000000E+00 0.  1.
</event>
<event>
 5    1  0.1264731E-009  0.9118800E+02  0.7815553E-02  0.1125453E+00
         25   -1    0    0    0    0  0.00000000000E+00  0.00000000000E+00  0.99999998245E-14  0.12509000000E+03  0.12509000000E+03 0.  0.
        -13    1    3    3    0    0  0.36117378938E+02  0.37643602651E+02 -0.23257057310E+02  0.57117490847E+02  0.10566000000E+00 0.  1.
         23    2    1    0    0    0  0.29387347947E+02  0.61927824346E+01 -0.35246430535E+01  0.94851119691E+02  0.89901863298E+02 0.  0.
         13    1    3    3    0    0 -0.67300309909E+01 -0.31450820216E+02  0.19732414256E+02  0.37733628845E+02  0.10566000000E+00 0. -1.
         22    1    1    0    0    0 -0.29387347947E+02 -0.61927824346E+01  0.35246430535E+01  0.30238880309E+02  0.00000000000E+00 0.  1.
</event>
<event>
 5    1  0.1264731E-009  0.9118800E+02  0.7815553E-02  0.1125453E+00
         25   -1    0    0    0    0  0.00000000000E+00  0.00000000000E+00  0.99999998245E-14  0.12509000000E+03  0.12509000000E+03 0.  0.
        -13    1    3    3    0    0 -0.48979624091E+02 -0.38478612030E+01 -0.37314304002E+01  0.49272145770E+02  0.10566000000E+00 0.  1.
         23    2    1    0    0    0 -0.11512979215E+02  0.99752190787E+01 -0.25969952720E+02  0.94981992256E+02  0.90083776134E+02 0.  0.
         13    1    3    3    0    0  0.37466644876E+02  0.13823080282E+02 -0.22238522319E+02  0.45709846486E+02  0.10566000000E+00 0. -1.
         22    1    1    0    0    0  0.11512979215E+02 -0.99752190787E+01  0.25969952720E+02  0.30108007744E+02  0.00000000000E+00 0.  1.
</event>
<event>
 5    1  0.1264731E-009  0.9118800E+02  0.7815553E-02  0.1125453E+00
         25   -1    0    0    0    0  0.00000000000E+00  0.00000000000E+00  0.99999998245E-14  0.12509000000E+03  0.12509000000E+03 0.  0.
        -13    1    3    3    0    0 -0.14660251676E+02  0.17817676038E+02  0.51888509765E+02  0.56787508910E+02  0.10566000000E+00 0.  1.
         23    2    1    0    0    0 -0.55540648588E+01 -0.10253452790E+02  0.28010609151E+02  0.94749018546E+02  0.89759686719E+02 0.  0.
         13    1    3    3    0    0  0.91061868171E+01 -0.28071128829E+02 -0.23877900614E+02  0.37961509636E+02  0.10566000000E+00 0. -1.
         22    1    1    0    0    0  0.55540648588E+01  0.10253452790E+02 -0.28010609151E+02  0.30340981454E+02  0.00000000000E+00 0. -1.
</event>
<event>
 5    1  0.1264731E-009  0.9118800E+02  0.7815553E-02  0.1125453E+00
         25   -1    0    0    0    0  0.00000000000E+00  0.00000000000E+00  0.99999998245E-14  0.12509000000E+03  0.12509000000E+03 0.  0.
        -13    1    3    3    0    0 -0.12969377407E+02  0.30295451465E+02 -0.48953167322E+02  0.59012226569E+02  0.10566000000E+00 0. -1.
         23    2    1    0    0    0 -0.98958227646E+01  0.24450216869E+02 -0.12786068815E+02  0.95777477609E+02  0.91181693603E+02 0.  0.
         13    1    3    3    0    0  0.30735546424E+01 -0.58452345956E+01  0.36167098507E+02  0.36765251040E+02  0.10566000000E+00 0.  1.
         22    1    1    0    0    0  0.98958227646E+01 -0.24450216869E+02  0.12786068815E+02  0.29312522391E+02  0.00000000000E+00 0. -1.
</event>
<event>
 5    1  0.1264731E-009  0.9118800E+02  0.7815553E-02  0.1125453E+00
         25   -1    0    0    0    0  0.00000000000E+00  0.00000000000E+00  0.99999998245E-14  0.12509000000E+03  0.12509000000E+03 0.  0.
        -13    1    3    3    0    0  0.72990053803E+01  0.28174874582E+02  0.44822372523E+02  0.53443009645E+02  0.10566000000E+00 0. -1.
         23    2    1    0    0    0 -0.72670233411E+01  0.28924728016E+02  0.63357324510E+01  0.94600804787E+02  0.89552896332E+02 0.  0.
         13    1    3    3    0    0 -0.14566028721E+02  0.74985343403E+00 -0.38486640072E+02  0.41157795142E+02  0.10566000000E+00 0.  1.
         22    1    1    0    0    0  0.72670233411E+01 -0.28924728016E+02 -0.63357324510E+01  0.30489195213E+02  0.00000000000E+00 0. -1.
</event>
<event>
 5    1  0.1264731E-009  0.9118800E+02  0.7815553E-02  0.1125453E+00
         25   -1    0    0    0    0  0.00000000000E+00  0.00000000000E+00  0.99999998245E-14  0.12509000000E+03  0.12509000000E+03 0.  0.
        -13    1    3    3    0    0 -0.41620590245E+02  0.74636413967E+01  0.25341271352E+02  0.49296761283E+02  0.10566000000E+00 0.  1.
         23    2    1    0    0    0 -0.67641664171E+01  0.28761816046E+02  0.43438671750E+01  0.95225887899E+02  0.90421814484E+02 0.  0.
         13    1    3    3    0    0  0.34856423828E+02  0.21298174649E+02 -0.20997404177E+02  0.45929126615E+02  0.10566000000E+00 0. -1.
         22    1    1    0    0    0  0.67641664171E+01 -0.28761816046E+02 -0.43438671750E+01  0.29864112101E+02  0.00000000000E+00 0.  1.
</event>
<event>
 5    1  0.1264731E-009  0.9118800E+02  0.7815553E-02  0.1125453E+00
         25   -1    0    0    0    0  0.00000000000E+00  0.00000000000E+00  0.99999998245E-14  0.12509000000E+03  0.12509000000E+03 0.  0.
        -13    1    3    3    0    0 -0.23240977838E+02 -0.26428620916E+02  0.17647556238E+02  0.39370832600E+02  0.10566000000E+00 0.  1.
         23    2    1    0    0    0  0.19189901953E+02 -0.15718542514E+02 -0.16856426316E+02  0.95098934266E+02  0.90246015284E+02 0.  0.
         13    1    3    3    0    0  0.42430879791E+02  0.10710078402E+02 -0.34503982553E+02  0.55728101666E+02  0.10566000000E+00 0. -1.
         22    1    1    0    0    0 -0.19189901953E+02  0.15718542514E+02  0.16856426316E+02  0.29991065734E+02  0.00000000000E+00 0. -1.
</event>
<event>
 5    1  0.1264731E-009  0.9118800E+02  0.7815553E-02  0.1125453E+00
         25   -1    0    0    0    0  0.00000000000E+00  0.00000000000E+00  0.99999998245E-14  0.12509000000E+03  0.12509000000E+03 0.  0.
        -13    1    3    3    0    0  0.46453902381E+02 -0.51935773145E+01  0.18739615161E+02  0.50359930819E+02  0.10566000000E+00 0. -1.
         23    2    1    0    0    0  0.23322531399E+02  0.22353594543E+02 -0.34128729463E+01  0.92605059464E+02  0.86720387896E+02 0.  0.
         13    1    3    3    0    0 -0.23131370981E+02  0.27547171857E+02 -0.22152488108E+02  0.42245128645E+02  0.10566000000E+00 0.  1.
         22    1    1    0    0    0 -0.23322531399E+02 -0.22353594543E+02  0.34128729463E+01  0.32484940536E+02  0.00000000000E+00 0.  1.
</event>
<event>
 5    1  0.1264731E-009  0.9118800E+02  0.7815553E-02  0.1125453E+00
         25   -1    0    0    0    0  0.00000000000E+00  0.00000000000E+00  0.99999998245E-14  0.12509000000E+03  0.12509000000E+03 0.  0.
        -13    1    3    3    0    0  0.10520035951E+02 -0.34657373641E+02  0.23922726501E+01  0.36297917800E+02  0.10566000000E+00 0. -1.
         23    2    1    0    0    0 -0.16175423457E+02  0.10943087150E+02 -0.22995694657E+02  0.94920521166E+02  0.89998377125E+02 0.  0.
         13    1    3    3    0    0 -0.26695459408E+02  0.45600460791E+02 -0.25387967307E+02  0.58622603366E+02  0.10566000000E+00 0.  1.
         22    1    1    0    0    0  0.16175423457E+02 -0.10943087150E+02  0.22995694657E+02  0.30169478834E+02  0.00000000000E+00 0.  1.
</event>
<event>
 5    1  0.1264731E-009  0.9118800E+02  0.7815553E-02  0.1125453E+00
         25   -1    0    0    0    0  0.00000000000E+00  0.00000000000E+00  0.99999998245E-14  0.12509000000E+03  0.12509000000E+03 0.  0.
        -13    1    3    3    0    0 -0.29411086467E+02  0.19739949740E+02 -0.18242299519E+02  0.39843070648E+02  0.10566000000E+00 0. -1.
         23    2    1    0    0    0  0.15786664521E+02 -0.12767788485E+02 -0.21379944475E+02  0.95605474817E+02  0.90945420939E+02 0.  0.
         13    1    3    3    0    0  0.45197750988E+02 -0.32507738225E+02 -0.31376449562E+01  0.55762404169E+02  0.10566000000E+00 0.  1.
         22    1    1    0    0    0 -0.15786664521E+02  0.12767788485E+02  0.21379944475E+02  0.29484525183E+02  0.00000000000E+00 0.  1.
</event>
<event>
 5    1  0.1264731E-009  0.9118800E+02  0.7815553E-02  0.1125453E+00
         25   -1    0    0    0    0  0.00000000000E+00  0.00000000000E+00  0.99999998245E-14  0.12509000000E+03  0.12509000000E+03 0.  0.
        -13    1    3    3    0    0 -0.29794778961E+02 -0.28599200454E+02  0.32053606580E+02  0.52278943933E+02  0.10566000000E+00 0. -1.
         23    2    1    0    0    0 -0.41909815182E+02 -0.10164882163E+02  0.18537651466E+02  0.78149591397E+02  0.62481650711E+02 0.  0.
         13    1    3    3    0    0 -0.12115036221E+02  0.18434318291E+02 -0.13515955114E+02  0.25870647463E+02  0.10566000000E+00 0.  1.
         22    1    1    0    0    0  0.41909815182E+02  0.10164882163E+02 -0.18537651466E+02  0.46940408603E+02  0.00000000000E+00 0. -1.
</event>
<event>
 5    1  0.1264731E-009  0.9118800E+02  0.7815553E-02  0.1125453E+00
         25   -1    0    0    0    0  0.00000000000E+00  0.00000000000E+00  0.99999998245E-14  0.12509000000E+03  0.12509000000E+03 0.  0.
        -13    1    3    3    0    0 -0.38237800320E+02 -0.11810870891E+02  0.11455806964E+02  0.41627787856E+02  0.10566000000E+00 0.  1.
         23    2    1    0    0    0  0.96921424932E+00  0.26728738409E+02  0.97192895515E+01  0.96632497956E+02  0.92347226481E+02 0.  0.
         13    1    3    3    0    0  0.39207014570E+02  0.38539609300E+02 -0.17365174129E+01  0.55004710100E+02  0.10566000000E+00 0. -1.
         22    1    1    0    0    0 -0.96921424932E+00 -0.26728738409E+02 -0.97192895515E+01  0.28457502044E+02  0.00000000000E+00 0. -1.
</event>
<event>
 5    1  0.1264731E-009  0.9118800E+02  0.7815553E-02  0.1125453E+00
         25   -1    0    0    0    0  0.00000000000E+00  0.00000000000E+00  0.99999998245E-14  0.12509000000E+03  0.12509000000E+03 0.  0.
        -13    1    3    3    0    0 -0.17269876438E+02 -0.54511117621E+02 -0.97747990652E+01  0.58010933774E+02  0.10566000000E+00 0.  1.
         23    2    1    0    0    0  0.81770751907E+01 -0.27254179844E+02  0.28754322259E+00  0.96634112055E+02  0.92349412851E+02 0.  0.
         13    1    3    3    0    0  0.25446951629E+02  0.27256937777E+02  0.10062342288E+02  0.38623178281E+02  0.10566000000E+00 0. -1.
         22    1    1    0    0    0 -0.81770751907E+01  0.27254179844E+02 -0.28754322259E+00  0.28455887945E+02  0.00000000000E+00 0.  1.
</event>
<event>
 5    1  0.1264731E-009  0.9118800E+02  0.7815553E-02  0.1125453E+00
         25   -1    0    0    0    0  0.00000000000E+00  0.00000000000E+00  0.99999998245E-14  0.12509000000E+03  0.12509000000E+03 0.  0.
        -13    1    3    3    0    0 -0.42148077976E+02  0.25340377456E+02 -0.34420124235E+02  0.60027921196E+02  0.10566000000E+00 0. -1.
         23    2    1    0    0    0 -0.14246933561E+02  0.44023601059E+01 -0.24695144472E+02  0.96242018253E+02  0.91816774211E+02 0.  0.
         13    1    3    3    0    0  0.27901144415E+02 -0.20938017350E+02  0.97249797627E+01  0.36214097057E+02  0.10566000000E+00 0.  1.
         22    1    1    0    0    0  0.14246933561E+02 -0.44023601059E+01  0.24695144472E+02  0.28847981747E+02  0.00000000000E+00 0. -1.
</event>
<event>
 5    1  0.1264731E-009  0.9118800E+02  0.7815553E-02  0.1125453E+00
         25   -1    0    0    0    0  0.00000000000E+00  0.00000000000E+00  0.99999998245E-14  0.12509000000E+03  0.12509000000E+03 0.  0.
        -13    1    3    3    0    0  0.18465926396E+02 -0.43104469364E+02  0.44148662427E+01  0.47100827220E+02  0.10566000000E+00 0.  1.
         23    2    1    0    0    0 -0.26154429568E-01 -0.14396338715E+02 -0.27632609360E+02  0.93932074002E+02  0.88613871226E+02 0.  0.
         13    1    3    3    0    0 -0.18492080826E+02  0.28708130649E+02 -0.32047475603E+02  0.46831246782E+02  0.10566000000E+00 0. -1.
         22    1    1    0    0    0  0.26154429568E-01  0.14396338715E+02  0.27632609360E+02  0.31157925998E+02  0.00000000000E+00 0.  1.
</event>
<event>
 5    1  0.1264731E-009  0.9118800E+02  0.7815553E-02  0.1125453E+00
         25   -1    0    0    0    0  0.00000000000E+00  0.00000000000E+00  0.99999998245E-14  0.12509000000E+03  0.12509000000E+03 0.  0.
        -13    1    3    3    0    0 -0.15675914691E+02 -0.20311492208E+02 -0.30258192412E+02  0.39671909321E+02  0.10566000000E+00 0.  1.
         23    2    1    0    0    0  0.16304017990E+02  0.58294955277E+00  0.17721894454E+02  0.10100211143E+03  0.98087716546E+02 0.  0.
         13    1    3    3    0    0  0.31979932681E+02  0.20894441761E+02  0.47980086866E+02  0.61330202107E+02  0.10566000000E+00 0. -1.
         22    1    1    0    0    0 -0.16304017990E+02 -0.58294955277E+00 -0.17721894454E+02  0.24087888571E+02  0.00000000000E+00 0. -1.
</event>
<event>
 5    1  0.1264731E-009  0.9118800E+02  0.7815553E-02  0.1125453E+00
         25   -1    0    0    0    0  0.00000000000E+00  0.00000000000E+00  0.99999998245E-14  0.12509000000E+03  0.12509000000E+03 0.  0.
        -13    1    3    3    0    0  0.33616383582E+02 -0.21856556458E+02 -0.35922282630E+02  0.53834857284E+02  0.10566000000E+00 0.  1.
         23    2    1    0    0    0  0.46449326648E+00 -0.26838768438E+02 -0.91730545687E+01  0.96723114810E+02  0.92469891117E+02 0.  0.
         13    1    3    3    0    0 -0.33151890316E+02 -0.49822119791E+01  0.26749228062E+02  0.42888257526E+02  0.10566000000E+00 0. -1.
         22    1    1    0    0    0 -0.46449326648E+00  0.26838768438E+02  0.91730545687E+01  0.28366885190E+02  0.00000000000E+00 0.  1.
</event>
<event>
 5    1  0.1264731E-009  0.9118800E+02  0.7815553E-02  0.1125453E+00
         25   -1    0    0    0    0  0.00000000000E+00  0.00000000000E+00  0.99999998245E-14  0.12509000000E+03  0.12509000000E+03 0.  0.
        -13    1    3    3    0    0 -0.30339931144E+02  0.16685013866E+02 -0.19705441080E+02  0.39839888074E+02  0.10566000000E+00 0.  1.
         23    2    1    0    0    0  0.64049460977E+00  0.20411972935E+02  0.24022689107E+02  0.93559880045E+02  0.88086904189E+02 0.  0.
         13    1    3    3    0    0  0.30980425754E+02  0.37269590695E+01  0.43728130186E+02  0.53719991972E+02  0.10566000000E+00 0. -1.
         22    1    1    0    0    0 -0.64049460977E+00 -0.20411972935E+02 -0.24022689107E+02  0.31530119955E+02  0.00000000000E+00 0. -1.
</event>
<event>
 5    1  0.1264731E-009  0.9118800E+02  0.7815553E-02  0.1125453E+00
         25   -1    0    0    0    0  0.00000000000E+00  0.00000000000E+00  0.99999998245E-14  0.12509000000E+03  0.12509000000E+03 0.  0.
        -13    1    3    3    0    0 -0.47999715694E+02  0.14373219569E+02 -0.15342603797E+02  0.52401992355E+02  0.10566000000E+00 0. -1.
         23    2    1    0    0    0 -0.17362108671E+02 -0.18754538829E+02 -0.91289676499E+01  0.97951216045E+02  0.94116561402E+02 0.  0.
         13    1    3    3    0    0  0.30637607023E+02 -0.33127758398E+02  0.62136361471E+01  0.45549223690E+02  0.10566000000E+00 0.  1.
         22    1    1    0    0    0  0.17362108671E+02  0.18754538829E+02  0.91289676499E+01  0.27138783955E+02  0.00000000000E+00 0. -1.
</event>
<event>
 5    1  0.1264731E-009  0.9118800E+02  0.7815553E-02  0.1125453E+00
         25   -1    0    0    0    0  0.00000000000E+00  0.00000000000E+00  0.99999998245E-14  0.12509000000E+03  0.12509000000E+03 0.  0.
        -13    1    3    3    0    0  0.35145456868E+02  0.11391380082E+02  0.21624321288E+02  0.42808750435E+02  0.10566000000E+00 0. -1.
         23    2    1    0    0    0  0.14475235501E+02  0.11493165737E+01 -0.25765094768E+02  0.95514782675E+02  0.90820593643E+02 0.  0.
         13    1    3    3    0    0 -0.20670221367E+02 -0.10242063508E+02 -0.47389416056E+02  0.52706032240E+02  0.10566000000E+00 0.  1.
         22    1    1    0    0    0 -0.14475235501E+02 -0.11493165737E+01  0.25765094768E+02  0.29575217325E+02  0.00000000000E+00 0. -1.
</event>
<event>
 5    1  0.1264731E-009  0.9118800E+02  0.7815553E-02  0.1125453E+00
         25   -1    0    0    0    0  0.00000000000E+00  0.00000000000E+00  0.99999998245E-14  0.12509000000E+03  0.12509000000E+03 0.  0.
        -13    1    3    3    0    0 -0.32588020520E+02  0.28777287021E+02 -0.32268312319E+02  0.54142095209E+02  0.10566000000E+00 0. -1.
         23    2    1    0    0    0  0.47697706993E+00  0.26054932791E+01 -0.28486243609E+02  0.96480872483E+02  0.92141611543E+02 0.  0.
         13    1    3    3    0    0  0.33064997590E+02 -0.26171793742E+02  0.37820687102E+01  0.42338777274E+02  0.10566000000E+00 0.  1.
         22    1    1    0    0    0 -0.47697706993E+00 -0.26054932791E+01  0.28486243609E+02  0.28609127517E+02  0.00000000000E+00 0.  1.
</event>
<event>
 5    1  0.1264731E-009  0.9118800E+02  0.7815553E-02  0.1125453E+00
         25   -1    0    0    0    0  0.00000000000E+00  0.00000000000E+00  0.99999998245E-14  0.12509000000E+03  0.12509000000E+03 0.  0.
        -13    1    3    3    0    0 -0.33848019434E+02 -0.23508928731E+02 -0.39789112317E+02  0.57284751660E+02  0.10566000000E+00 0. -1.
         23    2    1    0    0    0 -0.22739807620E+02  0.58756030394E+01 -0.17341710036E+02  0.95894855393E+02  0.91342579459E+02 0.  0.
         13    1    3    3    0    0  0.11108211814E+02  0.29384531771E+02  0.22447402281E+02  0.38610103733E+02  0.10566000000E+00 0.  1.
         22    1    1    0    0    0  0.22739807620E+02 -0.58756030394E+01  0.17341710036E+02  0.29195144607E+02  0.00000000000E+00 0. -1.
</event>
<event>
 5    1  0.1264731E-009  0.9118800E+02  0.7815553E-02  0.1125453E+00
         25   -1    0    0    0    0  0.00000000000E+00  0.00000000000E+00  0.99999998245E-14  0.12509000000E+03  0.12509000000E+03 0.  0.
        -13    1    3    3    0    0 -0.26696101831E+02 -0.26293074728E+01 -0.30015356642E+02  0.40255781065E+02  0.10566000000E+00 0.  1.
         23    2    1    0    0    0 -0.10795015844E+02  0.19268679130E+02  0.18809726775E+02  0.96079309147E+02  0.91594833164E+02 0.  0.
         13    1    3    3    0    0  0.15901085988E+02  0.21897986602E+02  0.48825083417E+02  0.55823528082E+02  0.10566000000E+00 0. -1.
         22    1    1    0    0    0  0.10795015844E+02 -0.19268679130E+02 -0.18809726775E+02  0.29010690853E+02  0.00000000000E+00 0. -1.
</event>
<event>
 5    1  0.1264731E-009  0.9118800E+02  0.7815553E-02  0.1125453E+00
         25   -1    0    0    0    0  0.00000000000E+00  0.00000000000E+00  0.99999998245E-14  0.12509000000E+03  0.12509000000E+03 0.  0.
        -13    1    3    3    0    0 -0.32821170998E+02 -0.11514951068E+02  0.35735647799E+02  0.49868537691E+02  0.10566000000E+00 0.  1.
         23    2    1    0    0    0  0.61272013184E+01 -0.24404823607E+02  0.13261763568E+02  0.96646856991E+02  0.92366674629E+02 0.  0.
         13    1    3    3    0    0  0.38948372316E+02 -0.12889872539E+02 -0.22473884231E+02  0.46778319301E+02  0.10566000000E+00 0. -1.
         22    1    1    0    0    0 -0.61272013184E+01  0.24404823607E+02 -0.13261763568E+02  0.28443143009E+02  0.00000000000E+00 0.  1.
</event>
<event>
 5    1  0.1264731E-009  0.9118800E+02  0.7815553E-02  0.1125453E+00
         25   -1    0    0    0    0  0.00000000000E+00  0.00000000000E+00  0.99999998245E-14  0.12509000000E+03  0.12509000000E+03 0.  0.
        -13    1    3    3    0    0 -0.30758616618E+02  0.23414712035E+01 -0.20470774170E+02  0.37022138549E+02  0.10566000000E+00 0. -1.
         23    2    1    0    0    0  0.28819523350E+01 -0.31715792014E+02  0.73725965724E+01  0.92401281877E+02  0.86425948649E+02 0.  0.
         13    1    3    3    0    0  0.33640568953E+02 -0.34057263217E+02  0.27843370742E+02  0.55379143327E+02  0.10566000000E+00 0.  1.
         22    1    1    0    0    0 -0.28819523350E+01  0.31715792014E+02 -0.73725965724E+01  0.32688718123E+02  0.00000000000E+00 0.  1.
</event>
<event>
 5    1  0.1264731E-009  0.9118800E+02  0.7815553E-02  0.1125453E+00
         25   -1    0    0    0    0  0.00000000000E+00  0.00000000000E+00  0.99999998245E-14  0.12509000000E+03  0.12509000000E+03 0.  0.
        -13    1    3    3    0    0 -0.20616860796E+02 -0.35056551716E+01 -0.57440514193E+02  0.61129112557E+02  0.10566000000E+00 0.  1.
         23    2    1    0    0    0 -0.17413509073E+02 -0.60519690109E+01 -0.23961749405E+02  0.94857202219E+02  0.89910326165E+02 0.  0.
         13    1    3    3    0    0  0.32033517231E+01 -0.25463138393E+01  0.33478764788E+02  0.33728089662E+02  0.10566000000E+00 0. -1.
         22    1    1    0    0    0  0.17413509073E+02  0.60519690109E+01  0.23961749405E+02  0.30232797781E+02  0.00000000000E+00 0.  1.
</event>
<event>
 5    1  0.1264731E-009  0.9118800E+02  0.7815553E-02  0.1125453E+00
         25   -1    0    0    0    0  0.00000000000E+00  0.00000000000E+00  0.99999998245E-14  0.12509000000E+03  0.12509000000E+03 0.  0.
        -13    1    3    3    0    0  0.31334934259E+02  0.41860279523E+02  0.14209783101E+02  0.54185701126E+02  0.10566000000E+00 0.  1.
         23    2    1    0    0    0 -0.73432789179E+01  0.26809323294E+02  0.81034847629E+01  0.96136070628E+02  0.91672318885E+02 0.  0.
         13    1    3    3    0    0 -0.38678213177E+02 -0.15050956228E+02 -0.61062983378E+01  0.41950369502E+02  0.10566000000E+00 0. -1.
         22    1    1    0    0    0  0.73432789179E+01 -0.26809323294E+02 -0.81034847629E+01  0.28953929372E+02  0.00000000000E+00 0.  1.
</event>
<event>
 5    1  0.1264731E-009  0.9118800E+02  0.7815553E-02  0.1125453E+00
         25   -1    0    0    0    0  0.00000000000E+00  0.00000000000E+00  0.99999998245E-14  0.12509000000E+03  0.12509000000E+03 0.  0.
        -13    1    3    3    0    0 -0.12232872826E+02  0.44213917403E+02  0.16098066409E+02  0.48617615900E+02  0.10566000000E+00 0.  1.
         23    2    1    0    0    0 -0.30058866738E+02  0.40554235491E+01  0.22945867969E+01  0.94672126006E+02  0.89652464462E+02 0.  0.
         13    1    3    3    0    0 -0.17825993913E+02 -0.40158493854E+02 -0.13803479613E+02  0.46054510105E+02  0.10566000000E+00 0. -1.
         22    1    1    0    0    0  0.30058866738E+02 -0.40554235491E+01 -0.22945867969E+01  0.30417873994E+02  0.00000000000E+00 0.  1.
</event>
<event>
 5    1  0.1264731E-009  0.9118800E+02  0.7815553E-02  0.1125453E+00
         25   -1    0    0    0    0  0.00000000000E+00  0.00000000000E+00  0.99999998245E-14  0.12509000000E+03  0.12509000000E+03 0.  0.
        -13    1    3    3    0    0 -0.12450927827E+02 -0.41006105036E+02 -0.53735425724E+01  0.43190419977E+02  0.10566000000E+00 0.  1.
         23    2    1    0    0    0 -0.27813521537E+02  0.87702006606E+01 -0.61305994360E+01  0.95289116634E+02  0.90509243172E+02 0.  0.
         13    1    3    3    0    0 -0.15362593710E+02  0.49776305696E+02 -0.75705686363E+00  0.52098696657E+02  0.10566000000E+00 0. -1.
         22    1    1    0    0    0  0.27813521537E+02 -0.87702006606E+01  0.61305994360E+01  0.29800883366E+02  0.00000000000E+00 0. -1.
</event>
<event>
 5    1  0.1264731E-009  0.9118800E+02  0.7815553E-02  0.1125453E+00
         25   -1    0    0    0    0  0.00000000000E+00  0.00000000000E+00  0.99999998245E-14  0.12509000000E+03  0.12509000000E+03 0.  0.
        -13    1    3    3    0    0  0.29936105623E+02  0.14634355375E+02 -0.21254852514E+02  0.39523596706E+02  0.10566000000E+00 0. -1.
         23    2    1    0    0    0 -0.54876105693E+00  0.21601786798E+02  0.22883167845E+02  0.93616555604E+02  0.88167350992E+02 0.  0.
         13    1    3    3    0    0 -0.30484866680E+02  0.69674314222E+01  0.44138020359E+02  0.54092958898E+02  0.10566000000E+00 0.  1.
         22    1    1    0    0    0  0.54876105693E+00 -0.21601786798E+02 -0.22883167845E+02  0.31473444396E+02  0.00000000000E+00 0.  1.
</event>
<event>
 5    1  0.1264731E-009  0.9118800E+02  0.7815553E-02  0.1125453E+00
         25   -1    0    0    0    0  0.00000000000E+00  0.00000000000E+00  0.99999998245E-14  0.12509000000E+03  0.12509000000E+03 0.  0.
        -13    1    3    3    0    0  0.13219777181E+02 -0.29479427562E+02  0.35723826132E+02  0.48166399862E+02  0.10566000000E+00 0.  1.
         23    2    1    0    0    0  0.24475401438E+02  0.10380043789E+02  0.11739897889E+02  0.96027725708E+02  0.91524359149E+02 0.  0.
         13    1    3    3    0    0  0.11255624257E+02  0.39859471351E+02 -0.23983928243E+02  0.47861325846E+02  0.10566000000E+00 0. -1.
         22    1    1    0    0    0 -0.24475401438E+02 -0.10380043789E+02 -0.11739897889E+02  0.29062274292E+02  0.00000000000E+00 0. -1.
</event>
<event>
 5    1  0.1264731E-009  0.9118800E+02  0.7815553E-02  0.1125453E+00
         25   -1    0    0    0    0  0.00000000000E+00  0.00000000000E+00  0.99999998245E-14  0.12509000000E+03  0.12509000000E+03 0.  0.
        -13    1    3    3    0    0  0.58409182690E+02  0.87775250824E+01 -0.13993896156E+02  0.60700229512E+02  0.10566000000E+00 0. -1.
         23    2    1    0    0    0  0.24121110214E+02 -0.19438175408E+01 -0.14962430033E+02  0.96638625744E+02  0.92355526573E+02 0.  0.
         13    1    3    3    0    0 -0.34288072477E+02 -0.10721342623E+02 -0.96853387703E+00  0.35938396232E+02  0.10566000000E+00 0.  1.
         22    1    1    0    0    0 -0.24121110214E+02  0.19438175408E+01  0.14962430033E+02  0.28451374256E+02  0.00000000000E+00 0. -1.
</event>
<event>
 5    1  0.1264731E-009  0.9118800E+02  0.7815553E-02  0.1125453E+00
         25   -1    0    0    0    0  0.00000000000E+00  0.00000000000E+00  0.99999998245E-14  0.12509000000E+03  0.12509000000E+03 0.  0.
        -13    1    3    3    0    0 -0.33834456182E+01 -0.22227066486E+02 -0.28269450974E+02  0.36120121971E+02  0.10566000000E+00 0.  1.
         23    2    1    0    0    0 -0.91021671361E+01  0.27848182412E+02  0.33233368729E+01  0.95604151222E+02  0.90943600394E+02 0.  0.
         13    1    3    3    0    0 -0.57187215179E+01  0.50075248897E+02  0.31592787847E+02  0.59484029251E+02  0.10566000000E+00 0. -1.
         22    1    1    0    0    0  0.91021671361E+01 -0.27848182412E+02 -0.33233368729E+01  0.29485848778E+02  0.00000000000E+00 0. -1.
</event>
<event>
 5    1  0.1264731E-009  0.9118800E+02  0.7815553E-02  0.1125453E+00
         25   -1    0    0    0    0  0.00000000000E+00  0.00000000000E+00  0.99999998245E-14  0.12509000000E+03  0.12509000000E+03 0.  0.
        -13    1    3    3    0    0  0.72124663989E+01  0.30707545199E+02 -0.35235958644E+02  0.47292250415E+02  0.10566000000E+00 0.  1.
         23    2    1    0    0    0  0.33161928733E+02  0.99692912615E+01 -0.26050557523E+02  0.81757196804E+02  0.69328979486E+02 0.  0.
         13    1    3    3    0    0  0.25949462334E+02 -0.20738253938E+02  0.91854011212E+01  0.34464946389E+02  0.10566000000E+00 0. -1.
         22    1    1    0    0    0 -0.33161928733E+02 -0.99692912615E+01  0.26050557523E+02  0.43332803196E+02  0.00000000000E+00 0.  1.
</event>
<event>
 5    1  0.1264731E-009  0.9118800E+02  0.7815553E-02  0.1125453E+00
         25   -1    0    0    0    0  0.00000000000E+00  0.00000000000E+00  0.99999998245E-14  0.12509000000E+03  0.12509000000E+03 0.  0.
        -13    1    3    3    0    0  0.47593307574E+02  0.14616074403E+02 -0.79827746189E+01  0.50423094029E+02  0.10566000000E+00 0.  1.
         23    2    1    0    0    0  0.11602578900E+02  0.15246049870E+02  0.21019316856E+02  0.96649297567E+02  0.92369979785E+02 0.  0.
         13    1    3    3    0    0 -0.35990728674E+02  0.62997546651E+00  0.29002091475E+02  0.46226203538E+02  0.10566000000E+00 0. -1.
         22    1    1    0    0    0 -0.11602578900E+02 -0.15246049870E+02 -0.21019316856E+02  0.28440702433E+02  0.00000000000E+00 0. -1.
</event>
<event>
 5    1  0.1264731E-009  0.9118800E+02  0.7815553E-02  0.1125453E+00
         25   -1    0    0    0    0  0.00000000000E+00  0.00000000000E+00  0.99999998245E-14  0.12509000000E+03  0.12509000000E+03 0.  0.
        -13    1    3    3    0    0  0.55081131229E+01 -0.37053539096E+02  0.32947138160E+02  0.49888166399E+02  0.10566000000E+00 0.  1.
         23    2    1    0    0    0 -0.23518105116E+02 -0.17822368784E+02  0.37196637477E+01  0.95348211289E+02  0.90590879233E+02 0.  0.
         13    1    3    3    0    0 -0.29026218239E+02  0.19231170311E+02 -0.29227474413E+02  0.45460044890E+02  0.10566000000E+00 0. -1.
         22    1    1    0    0    0  0.23518105116E+02  0.17822368784E+02 -0.37196637477E+01  0.29741788711E+02  0.00000000000E+00 0.  1.
</event>
<event>
 5    1  0.1264731E-009  0.9118800E+02  0.7815553E-02  0.1125453E+00
         25   -1    0    0    0    0  0.00000000000E+00  0.00000000000E+00  0.99999998245E-14  0.12509000000E+03  0.12509000000E+03 0.  0.
        -13    1    3    3    0    0  0.23123590103E+02 -0.26715182516E+01 -0.48754425096E+02  0.54026313584E+02  0.10566000000E+00 0. -1.
         23    2    1    0    0    0  0.20446451787E+02 -0.18206559049E+02 -0.98653278104E+01  0.95989125857E+02  0.91471587976E+02 0.  0.
         13    1    3    3    0    0 -0.26771383153E+01 -0.15535040797E+02  0.38889097286E+02  0.41962812273E+02  0.10566000000E+00 0.  1.
         22    1    1    0    0    0 -0.20446451787E+02  0.18206559049E+02  0.98653278104E+01  0.29100874143E+02  0.00000000000E+00 0.  1.
</event>
<event>
 5    1  0.1264731E-009  0.9118800E+02  0.7815553E-02  0.1125453E+00
         25   -1    0    0    0    0  0.00000000000E+00  0.00000000000E+00  0.99999998245E-14  0.12509000000E+03  0.12509000000E+03 0.  0.
        -13    1    3    3    0    0  0.17505990547E+02 -0.53819438495E+02  0.12080197871E+02  0.57869975027E+02  0.10566000000E+00 0.  1.
         23    2    1    0    0    0  0.23718423475E+02 -0.18600596376E+02  0.82629648098E+01  0.93835842114E+02  0.88477923123E+02 0.  0.
         13    1    3    3    0    0  0.62124329277E+01  0.35218842119E+02 -0.38172330612E+01  0.35965867088E+02  0.10566000000E+00 0. -1.
         22    1    1    0    0    0 -0.23718423475E+02  0.18600596376E+02 -0.82629648098E+01  0.31254157886E+02  0.00000000000E+00 0.  1.
</event>
<event>
 5    1  0.1264731E-009  0.9118800E+02  0.7815553E-02  0.1125453E+00
         25   -1    0    0    0    0  0.00000000000E+00  0.00000000000E+00  0.99999998245E-14  0.12509000000E+03  0.12509000000E+03 0.  0.
        -13    1    3    3    0    0  0.17504893386E+02 -0.39556531482E+02 -0.42470405509E+02  0.60620846113E+02  0.10566000000E+00 0.  1.
         23    2    1    0    0    0  0.21828014788E+02 -0.24969102607E+02 -0.26942556077E+02  0.82360389160E+02  0.70408906114E+02 0.  0.
         13    1    3    3    0    0  0.43231214016E+01  0.14587428875E+02  0.15527849433E+02  0.21739543047E+02  0.10566000000E+00 0. -1.
         22    1    1    0    0    0 -0.21828014788E+02  0.24969102607E+02  0.26942556077E+02  0.42729610840E+02  0.00000000000E+00 0.  1.
</event>
<event>
 5    1  0.1264731E-009  0.9118800E+02  0.7815553E-02  0.1125453E+00
         25   -1    0    0    0    0  0.00000000000E+00  0.00000000000E+00  0.99999998245E-14  0.12509000000E+03  0.12509000000E+03 0.  0.
        -13    1    3    3    0    0  0.24415295187E+02  0.23270185429E+02  0.13036361232E+02  0.36160282731E+02  0.10566000000E+00 0.  1.
         23    2    1    0    0    0 -0.16816785900E+02 -0.14661923184E+01 -0.23221199163E+02  0.96381497802E+02  0.92006603133E+02 0.  0.
         13    1    3    3    0    0 -0.41232081087E+02 -0.24736377747E+02 -0.36257560394E+02  0.60221215071E+02  0.10566000000E+00 0. -1.
         22    1    1    0    0    0  0.16816785900E+02  0.14661923184E+01  0.23221199163E+02  0.28708502198E+02  0.00000000000E+00 0. -1.
</event>
<event>
 5    1  0.1264731E-009  0.9118800E+02  0.7815553E-02  0.1125453E+00
         25   -1    0    0    0    0  0.00000000000E+00  0.00000000000E+00  0.99999998245E-14  0.12509000000E+03  0.12509000000E+03 0.  0.
        -13    1    3    3    0    0 -0.57776243555E+02 -0.10598255502E+02 -0.48367636063E+01  0.58939144761E+02  0.10566000000E+00 0. -1.
         23    2    1    0    0    0 -0.23955910325E+02  0.77032320598E+00 -0.15937990669E+02  0.96306348670E+02  0.91904375359E+02 0.  0.
         13    1    3    3    0    0  0.33820333230E+02  0.11368578708E+02 -0.11101227063E+02  0.37367203908E+02  0.10566000000E+00 0.  1.
         22    1    1    0    0    0  0.23955910325E+02 -0.77032320598E+00  0.15937990669E+02  0.28783651330E+02  0.00000000000E+00 0. -1.
</event>
<event>
 5    1  0.1264731E-009  0.9118800E+02  0.7815553E-02  0.1125453E+00
         25   -1    0    0    0    0  0.00000000000E+00  0.00000000000E+00  0.99999998245E-14  0.12509000000E+03  0.12509000000E+03 0.  0.
        -13    1    3    3    0    0  0.14086560353E+02 -0.43520712993E+02 -0.35017657576E+02  0.57608429488E+02  0.10566000000E+00 0.  1.
         23    2    1    0    0    0  0.80062404942E+01 -0.28908704746E+02 -0.10587186914E+01  0.95074437666E+02  0.90212054157E+02 0.  0.
         13    1    3    3    0    0 -0.60803198591E+01  0.14612008246E+02  0.33958938884E+02  0.37466008177E+02  0.10566000000E+00 0. -1.
         22    1    1    0    0    0 -0.80062404942E+01  0.28908704746E+02  0.10587186914E+01  0.30015562334E+02  0.00000000000E+00 0.  1.
</event>
<event>
 5    1  0.1264731E-009  0.9118800E+02  0.7815553E-02  0.1125453E+00
         25   -1    0    0    0    0  0.00000000000E+00  0.00000000000E+00  0.99999998245E-14  0.12509000000E+03  0.12509000000E+03 0.  0.
        -13    1    3    3    0    0 -0.23843195235E+02  0.56976043859E+02  0.89019809208E+00  0.61770309611E+02  0.10566000000E+00 0. -1.
         23    2    1    0    0    0 -0.17121198041E+02  0.23789087438E+02  0.25323104847E+01  0.95671150602E+02  0.91035709245E+02 0.  0.
         13    1    3    3    0    0  0.67219971944E+01 -0.33186956421E+02  0.16421123926E+01  0.33900840991E+02  0.10566000000E+00 0.  1.
         22    1    1    0    0    0  0.17121198041E+02 -0.23789087438E+02 -0.25323104847E+01  0.29418849398E+02  0.00000000000E+00 0. -1.
</event>
<event>
 5    1  0.1264731E-009  0.9118800E+02  0.7815553E-02  0.1125453E+00
         25   -1    0    0    0    0  0.00000000000E+00  0.00000000000E+00  0.99999998245E-14  0.12509000000E+03  0.12509000000E+03 0.  0.
        -13    1    3    3    0    0  0.44148769790E+02  0.11533340732E+02 -0.29798740267E+02  0.54498696388E+02  0.10566000000E+00 0. -1.
         23    2    1    0    0    0  0.37308704510E+01  0.19950474713E+02 -0.19264788775E+02  0.97106559859E+02  0.92987155271E+02 0.  0.
         13    1    3    3    0    0 -0.40417899339E+02  0.84171339812E+01  0.10533951492E+02  0.42607863471E+02  0.10566000000E+00 0.  1.
         22    1    1    0    0    0 -0.37308704510E+01 -0.19950474713E+02  0.19264788775E+02  0.27983440141E+02  0.00000000000E+00 0. -1.
</event>
<event>
 5    1  0.1264731E-009  0.9118800E+02  0.7815553E-02  0.1125453E+00
         25   -1    0    0    0    0  0.00000000000E+00  0.00000000000E+00  0.99999998245E-14  0.12509000000E+03  0.12509000000E+03 0.  0.
        -13    1    3    3    0    0  0.25277095950E+01 -0.54640371006E+02  0.23478794128E+02  0.59524989687E+02  0.10566000000E+00 0. -1.
         23    2    1    0    0    0  0.78152359332E+01 -0.28338381779E+02 -0.76363590962E+00  0.95683794288E+02  0.91053080975E+02 0.  0.
         13    1    3    3    0    0  0.52875263382E+01  0.26301989226E+02 -0.24242430038E+02  0.36158804602E+02  0.10566000000E+00 0.  1.
         22    1    1    0    0    0 -0.78152359332E+01  0.28338381779E+02  0.76363590962E+00  0.29406205712E+02  0.00000000000E+00 0. -1.
</event>
<event>
 5    1  0.1264731E-009  0.9118800E+02  0.7815553E-02  0.1125453E+00
         25   -1    0    0    0    0  0.00000000000E+00  0.00000000000E+00  0.99999998245E-14  0.12509000000E+03  0.12509000000E+03 0.  0.
        -13    1    3    3    0    0  0.31619258194E+02 -0.14084499963E+02  0.18545714091E+02  0.39269648625E+02  0.10566000000E+00 0.  1.
         23    2    1    0    0    0 -0.24227283766E+02 -0.44447772395E+01  0.15423258990E+02  0.96028096393E+02  0.91524865777E+02 0.  0.
         13    1    3    3    0    0 -0.55846541960E+02  0.96397227237E+01 -0.31224551012E+01  0.56758447768E+02  0.10566000000E+00 0. -1.
         22    1    1    0    0    0  0.24227283766E+02  0.44447772395E+01 -0.15423258990E+02  0.29061903607E+02  0.00000000000E+00 0. -1.
</event>
<event>
 5    1  0.1264731E-009  0.9118800E+02  0.7815553E-02  0.1125453E+00
         25   -1    0    0    0    0  0.00000000000E+00  0.00000000000E+00  0.99999998245E-14  0.12509000000E+03  0.12509000000E+03 0.  0.
        -13    1    3    3    0    0 -0.17730544862E+02 -0.21531597764E+02  0.78392956557E+01  0.28973222875E+02  0.10566000000E+00 0.  1.
         23    2    1    0    0    0  0.12824479236E+02  0.14455035545E+02 -0.29952245723E+02  0.89445191905E+02  0.82035906838E+02 0.  0.
         13    1    3    3    0    0  0.30555024098E+02  0.35986633308E+02 -0.37791541379E+02  0.60471969030E+02  0.10566000000E+00 0. -1.
         22    1    1    0    0    0 -0.12824479236E+02 -0.14455035545E+02  0.29952245723E+02  0.35644808095E+02  0.00000000000E+00 0. -1.
</event>
<event>
 5    1  0.1264731E-009  0.9118800E+02  0.7815553E-02  0.1125453E+00
         25   -1    0    0    0    0  0.00000000000E+00  0.00000000000E+00  0.99999998245E-14  0.12509000000E+03  0.12509000000E+03 0.  0.
        -13    1    3    3    0    0 -0.27378118336E+02  0.18743577819E+02 -0.18683727422E+02  0.38078549177E+02  0.10566000000E+00 0.  1.
         23    2    1    0    0    0 -0.44362544622E+01 -0.13266562798E+02  0.24720082607E+02  0.96686399414E+02  0.92420210481E+02 0.  0.
         13    1    3    3    0    0  0.22941863874E+02 -0.32010140617E+02  0.43403810029E+02  0.58607850237E+02  0.10566000000E+00 0. -1.
         22    1    1    0    0    0  0.44362544622E+01  0.13266562798E+02 -0.24720082607E+02  0.28403600586E+02  0.00000000000E+00 0. -1.
</event>
<event>
 5    1  0.1264731E-009  0.9118800E+02  0.7815553E-02  0.1125453E+00
         25   -1    0    0    0    0  0.00000000000E+00  0.00000000000E+00  0.99999998245E-14  0.12509000000E+03  0.12509000000E+03 0.  0.
        -13    1    3    3    0    0 -0.22758740615E+02 -0.39532824292E+02 -0.32468217477E+02  0.55991077691E+02  0.10566000000E+00 0. -1.
         23    2    1    0    0    0  0.66343074758E+01 -0.17737405647E+02 -0.25639255834E+02  0.93215228872E+02  0.87596106415E+02 0.  0.
         13    1    3    3    0    0  0.29393048091E+02  0.21795418645E+02  0.68289616432E+01  0.37224151180E+02  0.10566000000E+00 0.  1.
         22    1    1    0    0    0 -0.66343074758E+01  0.17737405647E+02  0.25639255834E+02  0.31874771128E+02  0.00000000000E+00 0. -1.
</event>
<event>
 5    1  0.1264731E-009  0.9118800E+02  0.7815553E-02  0.1125453E+00
         25   -1    0    0    0    0  0.00000000000E+00  0.00000000000E+00  0.99999998245E-14  0.12509000000E+03  0.12509000000E+03 0.  0.
        -13    1    3    3    0    0  0.18607483433E+02  0.21863022956E+02  0.65123139512E+01  0.29438947153E+02  0.10566000000E+00 0.  1.
         23    2    1    0    0    0 -0.36293404496E+02 -0.10316305082E+00  0.20950979354E+01  0.88736027894E+02  0.80947336946E+02 0.  0.
         13    1    3    3    0    0 -0.54900887929E+02 -0.21966186006E+02 -0.44172160158E+01  0.59297080741E+02  0.10566000000E+00 0. -1.
         22    1    1    0    0    0  0.36293404496E+02  0.10316305082E+00 -0.20950979354E+01  0.36353972106E+02  0.00000000000E+00 0. -1.
</event>
<event>
 5    1  0.1264731E-009  0.9118800E+02  0.7815553E-02  0.1125453E+00
         25   -1    0    0    0    0  0.00000000000E+00  0.00000000000E+00  0.99999998245E-14  0.12509000000E+03  0.12509000000E+03 0.  0.
        -13    1    3    3    0    0 -0.20903960758E+02 -0.29537334695E+02 -0.38257553371E+02  0.52660053839E+02  0.10566000000E+00 0. -1.
         23    2    1    0    0    0  0.12607957722E+02 -0.65066812523E+01 -0.26569890284E+02  0.94969300000E+02  0.90066149989E+02 0.  0.
         13    1    3    3    0    0  0.33511918480E+02  0.23030653443E+02  0.11687663088E+02  0.42309246161E+02  0.10566000000E+00 0.  1.
         22    1    1    0    0    0 -0.12607957722E+02  0.65066812523E+01  0.26569890284E+02  0.30120700000E+02  0.00000000000E+00 0. -1.
</event>
<event>
 5    1  0.1264731E-009  0.9118800E+02  0.7815553E-02  0.1125453E+00
         25   -1    0    0    0    0  0.00000000000E+00  0.00000000000E+00  0.99999998245E-14  0.12509000000E+03  0.12509000000E+03 0.  0.
        -13    1    3    3    0    0 -0.54096745001E+02  0.22332483491E+02  0.15289498794E+01  0.58545251646E+02  0.10566000000E+00 0.  1.
         23    2    1    0    0    0 -0.29785172942E+02  0.45714781404E+00 -0.10665730919E+02  0.93449467018E+02  0.87929969627E+02 0.  0.
         13    1    3    3    0    0  0.24311572059E+02 -0.21875335676E+02 -0.12194680799E+02  0.34904215372E+02  0.10566000000E+00 0. -1.
         22    1    1    0    0    0  0.29785172942E+02 -0.45714781404E+00  0.10665730919E+02  0.31640532982E+02  0.00000000000E+00 0.  1.
</event>
<event>
 5    1  0.1264731E-009  0.9118800E+02  0.7815553E-02  0.1125453E+00
         25   -1    0    0    0    0  0.00000000000E+00  0.00000000000E+00  0.99999998245E-14  0.12509000000E+03  0.12509000000E+03 0.  0.
        -13    1    3    3    0    0  0.62834791550E+01 -0.36051553410E+02  0.27514412755E+02  0.45784830314E+02  0.10566000000E+00 0.  1.
         23    2    1    0    0    0 -0.24603055464E+02 -0.14718092932E+02 -0.56436996984E+01  0.95870418483E+02  0.91309107958E+02 0.  0.
         13    1    3    3    0    0 -0.30886534619E+02  0.21333460478E+02 -0.33158112453E+02  0.50085588169E+02  0.10566000000E+00 0. -1.
         22    1    1    0    0    0  0.24603055464E+02  0.14718092932E+02  0.56436996984E+01  0.29219581517E+02  0.00000000000E+00 0. -1.
</event>
<event>
 5    1  0.1264731E-009  0.9118800E+02  0.7815553E-02  0.1125453E+00
         25   -1    0    0    0    0  0.00000000000E+00  0.00000000000E+00  0.99999998245E-14  0.12509000000E+03  0.12509000000E+03 0.  0.
        -13    1    3    3    0    0 -0.11155438676E+01  0.32850060800E+02  0.17321666117E+02  0.37154033614E+02  0.10566000000E+00 0.  1.
         23    2    1    0    0    0  0.15140212127E+02 -0.10253058438E+02 -0.21120749884E+02  0.97153691972E+02  0.93050537653E+02 0.  0.
         13    1    3    3    0    0  0.16255755995E+02 -0.43103119238E+02 -0.38442416001E+02  0.59999658358E+02  0.10566000000E+00 0. -1.
         22    1    1    0    0    0 -0.15140212127E+02  0.10253058438E+02  0.21120749884E+02  0.27936308028E+02  0.00000000000E+00 0. -1.
</event>
<event>
 5    1  0.1264731E-009  0.9118800E+02  0.7815553E-02  0.1125453E+00
         25   -1    0    0    0    0  0.00000000000E+00  0.00000000000E+00  0.99999998245E-14  0.12509000000E+03  0.12509000000E+03 0.  0.
        -13    1    3    3    0    0  0.41813753233E+02  0.16132554923E+02  0.27387433224E+02  0.52523632304E+02  0.10566000000E+00 0. -1.
         23    2    1    0    0    0 -0.10624162463E+01  0.11535695410E+02  0.27068420955E+02  0.95646827449E+02  0.91002281242E+02 0.  0.
         13    1    3    3    0    0 -0.42876169480E+02 -0.45968595131E+01 -0.31901226896E+00  0.43123195145E+02  0.10566000000E+00 0.  1.
         22    1    1    0    0    0  0.10624162463E+01 -0.11535695410E+02 -0.27068420955E+02  0.29443172551E+02  0.00000000000E+00 0. -1.
</event>
<event>
 5    1  0.1264731E-009  0.9118800E+02  0.7815553E-02  0.1125453E+00
         25   -1    0    0    0    0  0.00000000000E+00  0.00000000000E+00  0.99999998245E-14  0.12509000000E+03  0.12509000000E+03 0.  0.
        -13    1    3    3    0    0 -0.53010773824E+00 -0.53065841903E+02  0.21433016835E+02  0.57233294207E+02  0.10566000000E+00 0.  1.
         23    2    1    0    0    0 -0.11901394656E+02 -0.24062738128E+02 -0.46273074676E+01  0.97849028369E+02  0.93980645972E+02 0.  0.
         13    1    3    3    0    0 -0.11371286918E+02  0.29003103775E+02 -0.26060324303E+02  0.40615734162E+02  0.10566000000E+00 0. -1.
         22    1    1    0    0    0  0.11901394656E+02  0.24062738128E+02  0.46273074676E+01  0.27240971631E+02  0.00000000000E+00 0.  1.
</event>
<event>
 5    1  0.1264731E-009  0.9118800E+02  0.7815553E-02  0.1125453E+00
         25   -1    0    0    0    0  0.00000000000E+00  0.00000000000E+00  0.99999998245E-14  0.12509000000E+03  0.12509000000E+03 0.  0.
        -13    1    3    3    0    0 -0.18381800839E+02  0.21553978596E+01  0.47947769829E+01  0.19119032203E+02  0.10566000000E+00 0.  1.
         23    2    1    0    0    0  0.38441626744E+02  0.54537835330E+01 -0.20244779209E+02  0.81302404648E+02  0.68503485275E+02 0.  0.
         13    1    3    3    0    0  0.56823427583E+02  0.32983856734E+01 -0.25039556192E+02  0.62183372445E+02  0.10566000000E+00 0. -1.
         22    1    1    0    0    0 -0.38441626744E+02 -0.54537835330E+01  0.20244779209E+02  0.43787595352E+02  0.00000000000E+00 0. -1.
</event>
<event>
 5    1  0.1264731E-009  0.9118800E+02  0.7815553E-02  0.1125453E+00
         25   -1    0    0    0    0  0.00000000000E+00  0.00000000000E+00  0.99999998245E-14  0.12509000000E+03  0.12509000000E+03 0.  0.
        -13    1    3    3    0    0 -0.25358402275E+01 -0.35675402612E+02  0.27768591274E+02  0.45279914560E+02  0.10566000000E+00 0. -1.
         23    2    1    0    0    0  0.90372737799E+01 -0.20509203718E+02 -0.18947897400E+02  0.95741702428E+02  0.91132601266E+02 0.  0.
         13    1    3    3    0    0  0.11573114007E+02  0.15166198895E+02 -0.46716488674E+02  0.50461787868E+02  0.10566000000E+00 0.  1.
         22    1    1    0    0    0 -0.90372737799E+01  0.20509203718E+02  0.18947897400E+02  0.29348297572E+02  0.00000000000E+00 0.  1.
</event>
<event>
 5    1  0.1264731E-009  0.9118800E+02  0.7815553E-02  0.1125453E+00
         25   -1    0    0    0    0  0.00000000000E+00  0.00000000000E+00  0.99999998245E-14  0.12509000000E+03  0.12509000000E+03 0.  0.
        -13    1    3    3    0    0 -0.13300472586E+02 -0.23018593400E+02 -0.43488394513E+02  0.50970676222E+02  0.10566000000E+00 0. -1.
         23    2    1    0    0    0 -0.28122071274E+02  0.10994673853E+01 -0.91005193655E+01  0.95511643487E+02  0.90816269840E+02 0.  0.
         13    1    3    3    0    0 -0.14821598688E+02  0.24118060785E+02  0.34387875148E+02  0.44540967265E+02  0.10566000000E+00 0.  1.
         22    1    1    0    0    0  0.28122071274E+02 -0.10994673853E+01  0.91005193655E+01  0.29578356513E+02  0.00000000000E+00 0. -1.
</event>
<event>
 5    1  0.1264731E-009  0.9118800E+02  0.7815553E-02  0.1125453E+00
         25   -1    0    0    0    0  0.00000000000E+00  0.00000000000E+00  0.99999998245E-14  0.12509000000E+03  0.12509000000E+03 0.  0.
        -13    1    3    3    0    0  0.34407901606E+02 -0.14616994583E+02 -0.34812930941E+02  0.51083378395E+02  0.10566000000E+00 0.  1.
         23    2    1    0    0    0  0.13963633344E+02 -0.25495570568E+02  0.34582739290E+01  0.95816004145E+02  0.91234531933E+02 0.  0.
         13    1    3    3    0    0 -0.20444268261E+02 -0.10878575985E+02  0.38271204870E+02  0.44732625750E+02  0.10566000000E+00 0. -1.
         22    1    1    0    0    0 -0.13963633344E+02  0.25495570568E+02 -0.34582739290E+01  0.29273995855E+02  0.00000000000E+00 0.  1.
</event>
<event>
 5    1  0.1264731E-009  0.9118800E+02  0.7815553E-02  0.1125453E+00
         25   -1    0    0    0    0  0.00000000000E+00  0.00000000000E+00  0.99999998245E-14  0.12509000000E+03  0.12509000000E+03 0.  0.
        -13    1    3    3    0    0 -0.44037280474E+02  0.79816824524E+01 -0.95406874624E+01  0.45760520185E+02  0.10566000000E+00 0.  1.
         23    2    1    0    0    0 -0.97906738198E+01 -0.83906114053E+01 -0.32501842334E+02  0.90123881990E+02  0.83064340701E+02 0.  0.
         13    1    3    3    0    0  0.34246606654E+02 -0.16372293858E+02 -0.22961154872E+02  0.44363361804E+02  0.10566000000E+00 0. -1.
         22    1    1    0    0    0  0.97906738198E+01  0.83906114053E+01  0.32501842334E+02  0.34966118010E+02  0.00000000000E+00 0. -1.
</event>
<event>
 5    1  0.1264731E-009  0.9118800E+02  0.7815553E-02  0.1125453E+00
         25   -1    0    0    0    0  0.00000000000E+00  0.00000000000E+00  0.99999998245E-14  0.12509000000E+03  0.12509000000E+03 0.  0.
        -13    1    3    3    0    0 -0.18860624372E+02  0.26052787170E+02  0.96332429203E+01  0.33575011604E+02  0.10566000000E+00 0.  1.
         23    2    1    0    0    0  0.10557337988E+01 -0.30768030424E+02  0.39058866504E+01  0.94057078440E+02  0.88790155896E+02 0.  0.
         13    1    3    3    0    0  0.19916358171E+02 -0.56820817594E+02 -0.57273562700E+01  0.60482066836E+02  0.10566000000E+00 0. -1.
         22    1    1    0    0    0 -0.10557337988E+01  0.30768030424E+02 -0.39058866504E+01  0.31032921560E+02  0.00000000000E+00 0. -1.
</event>
<event>
 5    1  0.1264731E-009  0.9118800E+02  0.7815553E-02  0.1125453E+00
         25   -1    0    0    0    0  0.00000000000E+00  0.00000000000E+00  0.99999998245E-14  0.12509000000E+03  0.12509000000E+03 0.  0.
        -13    1    3    3    0    0  0.14517190897E+02 -0.23363686665E+02  0.30675852315E+02  0.41202302914E+02  0.10566000000E+00 0. -1.
         23    2    1    0    0    0  0.24556990654E+02  0.44069784551E+01 -0.15284050160E+02  0.95831335670E+02  0.91255550285E+02 0.  0.
         13    1    3    3    0    0  0.10039799757E+02  0.27770665120E+02 -0.45959902475E+02  0.54629032756E+02  0.10566000000E+00 0.  1.
         22    1    1    0    0    0 -0.24556990654E+02 -0.44069784551E+01  0.15284050160E+02  0.29258664330E+02  0.00000000000E+00 0.  1.
</event>
<event>
 5    1  0.1264731E-009  0.9118800E+02  0.7815553E-02  0.1125453E+00
         25   -1    0    0    0    0  0.00000000000E+00  0.00000000000E+00  0.99999998245E-14  0.12509000000E+03  0.12509000000E+03 0.  0.
        -13    1    3    3    0    0  0.42637612251E+02  0.32050700415E+02 -0.14832932780E+02  0.55364613559E+02  0.10566000000E+00 0.  1.
         23    2    1    0    0    0  0.53038471416E+01  0.29542002543E+02 -0.11563142688E+02  0.92925314744E+02  0.87181116893E+02 0.  0.
         13    1    3    3    0    0 -0.37333765110E+02 -0.25086978723E+01  0.32697900913E+01  0.37560701186E+02  0.10566000000E+00 0. -1.
         22    1    1    0    0    0 -0.53038471416E+01 -0.29542002543E+02  0.11563142688E+02  0.32164685256E+02  0.00000000000E+00 0.  1.
</event>
<event>
 5    1  0.1264731E-009  0.9118800E+02  0.7815553E-02  0.1125453E+00
         25   -1    0    0    0    0  0.00000000000E+00  0.00000000000E+00  0.99999998245E-14  0.12509000000E+03  0.12509000000E+03 0.  0.
        -13    1    3    3    0    0 -0.29173563472E+02 -0.32871171941E+02 -0.39751113693E+02  0.59260213924E+02  0.10566000000E+00 0.  1.
         23    2    1    0    0    0 -0.24400416693E+02 -0.65078192660E+01 -0.15106694030E+02  0.95663069292E+02  0.91024604231E+02 0.  0.
         13    1    3    3    0    0  0.47731467798E+01  0.26363352675E+02  0.24644419662E+02  0.36402855368E+02  0.10566000000E+00 0. -1.
         22    1    1    0    0    0  0.24400416693E+02  0.65078192660E+01  0.15106694030E+02  0.29426930708E+02  0.00000000000E+00 0.  1.
</event>
<event>
 5    1  0.1264731E-009  0.9118800E+02  0.7815553E-02  0.1125453E+00
         25   -1    0    0    0    0  0.00000000000E+00  0.00000000000E+00  0.99999998245E-14  0.12509000000E+03  0.12509000000E+03 0.  0.
        -13    1    3    3    0    0 -0.35951510605E+02 -0.10779417803E+02 -0.35158843294E+01  0.37697209042E+02  0.10566000000E+00 0.  1.
         23    2    1    0    0    0  0.23618260574E+02 -0.11083214879E+02 -0.89328633931E+01  0.97513634522E+02  0.93533165159E+02 0.  0.
         13    1    3    3    0    0  0.59569771179E+02 -0.30379707542E+00 -0.54169790637E+01  0.59816425479E+02  0.10566000000E+00 0. -1.
         22    1    1    0    0    0 -0.23618260574E+02  0.11083214879E+02  0.89328633931E+01  0.27576365478E+02  0.00000000000E+00 0. -1.
</event>
<event>
 5    1  0.1264731E-009  0.9118800E+02  0.7815553E-02  0.1125453E+00
         25   -1    0    0    0    0  0.00000000000E+00  0.00000000000E+00  0.99999998245E-14  0.12509000000E+03  0.12509000000E+03 0.  0.
        -13    1    3    3    0    0  0.30921870211E+02  0.23617860412E+02 -0.45258631425E+02  0.59685176303E+02  0.10566000000E+00 0.  1.
         23    2    1    0    0    0  0.25839477005E+02  0.76003670358E+01 -0.15094243780E+02  0.94214761600E+02  0.89012027036E+02 0.  0.
         13    1    3    3    0    0 -0.50823932054E+01 -0.16017493376E+02  0.30164387645E+02  0.34529585297E+02  0.10566000000E+00 0. -1.
         22    1    1    0    0    0 -0.25839477005E+02 -0.76003670358E+01  0.15094243780E+02  0.30875238400E+02  0.00000000000E+00 0.  1.
</event>
<event>
 5    1  0.1264731E-009  0.9118800E+02  0.7815553E-02  0.1125453E+00
         25   -1    0    0    0    0  0.00000000000E+00  0.00000000000E+00  0.99999998245E-14  0.12509000000E+03  0.12509000000E+03 0.  0.
        -13    1    3    3    0    0  0.26371548487E+02 -0.30038234819E+01 -0.35175856586E+02  0.44066240771E+02  0.10566000000E+00 0. -1.
         23    2    1    0    0    0  0.21395573450E+02 -0.61459242320E+01  0.17316207666E+02  0.96887269709E+02  0.92691688062E+02 0.  0.
         13    1    3    3    0    0 -0.49759750369E+01 -0.31421007501E+01  0.52492064251E+02  0.52821028938E+02  0.10566000000E+00 0.  1.
         22    1    1    0    0    0 -0.21395573450E+02  0.61459242320E+01 -0.17316207666E+02  0.28202730291E+02  0.00000000000E+00 0.  1.
</event>
<event>
 5    1  0.1264731E-009  0.9118800E+02  0.7815553E-02  0.1125453E+00
         25   -1    0    0    0    0  0.00000000000E+00  0.00000000000E+00  0.99999998245E-14  0.12509000000E+03  0.12509000000E+03 0.  0.
        -13    1    3    3    0    0 -0.32744844100E+02 -0.14991625760E+02 -0.99553292204E+01  0.37364333287E+02  0.10566000000E+00 0.  1.
         23    2    1    0    0    0  0.11892797986E+02 -0.84257619637E+01  0.26151358442E+02  0.95151301682E+02  0.90318572591E+02 0.  0.
         13    1    3    3    0    0  0.44637642086E+02  0.65658637964E+01  0.36106687662E+02  0.57786968396E+02  0.10566000000E+00 0. -1.
         22    1    1    0    0    0 -0.11892797986E+02  0.84257619637E+01 -0.26151358442E+02  0.29938698318E+02  0.00000000000E+00 0. -1.
</event>
<event>
 5    1  0.1264731E-009  0.9118800E+02  0.7815553E-02  0.1125453E+00
         25   -1    0    0    0    0  0.00000000000E+00  0.00000000000E+00  0.99999998245E-14  0.12509000000E+03  0.12509000000E+03 0.  0.
        -13    1    3    3    0    0 -0.33374288795E+02  0.48921398976E+02  0.50415220095E+01  0.59435465326E+02  0.10566000000E+00 0.  1.
         23    2    1    0    0    0 -0.26492737362E+02  0.15461270908E+02 -0.21338102256E+01  0.94341517483E+02  0.89189981186E+02 0.  0.
         13    1    3    3    0    0  0.68815514336E+01 -0.33460128068E+02 -0.71753322351E+01  0.34906052157E+02  0.10566000000E+00 0. -1.
         22    1    1    0    0    0  0.26492737362E+02 -0.15461270908E+02  0.21338102256E+01  0.30748482517E+02  0.00000000000E+00 0.  1.
</event>
<event>
 5    1  0.1264731E-009  0.9118800E+02  0.7815553E-02  0.1125453E+00
         25   -1    0    0    0    0  0.00000000000E+00  0.00000000000E+00  0.99999998245E-14  0.12509000000E+03  0.12509000000E+03 0.  0.
        -13    1    3    3    0    0 -0.24842574133E+02 -0.10348284930E+01 -0.26699500567E+02  0.36484227470E+02  0.10566000000E+00 0. -1.
         23    2    1    0    0    0  0.12274095562E+02 -0.23044753957E+02  0.13707167258E+02  0.95601009833E+02  0.90939279412E+02 0.  0.
         13    1    3    3    0    0  0.37116669695E+02 -0.22009925464E+02  0.40406667825E+02  0.59116782363E+02  0.10566000000E+00 0.  1.
         22    1    1    0    0    0 -0.12274095562E+02  0.23044753957E+02 -0.13707167258E+02  0.29488990167E+02  0.00000000000E+00 0.  1.
</event>
<event>
 5    1  0.1264731E-009  0.9118800E+02  0.7815553E-02  0.1125453E+00
         25   -1    0    0    0    0  0.00000000000E+00  0.00000000000E+00  0.99999998245E-14  0.12509000000E+03  0.12509000000E+03 0.  0.
        -13    1    3    3    0    0 -0.29242189159E+01 -0.33400196478E+02 -0.20273954000E+02  0.39181227085E+02  0.10566000000E+00 0. -1.
         23    2    1    0    0    0  0.18812772856E+02  0.18466799889E+02 -0.12364664771E+02  0.95972512891E+02  0.91448866450E+02 0.  0.
         13    1    3    3    0    0  0.21736991772E+02  0.51866996367E+02  0.79092892290E+01  0.56791285806E+02  0.10566000000E+00 0.  1.
         22    1    1    0    0    0 -0.18812772856E+02 -0.18466799889E+02  0.12364664771E+02  0.29117487109E+02  0.00000000000E+00 0.  1.
</event>
<event>
 5    1  0.1264731E-009  0.9118800E+02  0.7815553E-02  0.1125453E+00
         25   -1    0    0    0    0  0.00000000000E+00  0.00000000000E+00  0.99999998245E-14  0.12509000000E+03  0.12509000000E+03 0.  0.
        -13    1    3    3    0    0  0.77966560712E+01 -0.36287712034E+02 -0.24269245134E+02  0.44346288616E+02  0.10566000000E+00 0.  1.
         23    2    1    0    0    0 -0.21933017745E+02 -0.15185423209E+02  0.12059268149E+02  0.95814066305E+02  0.91231874957E+02 0.  0.
         13    1    3    3    0    0 -0.29729673816E+02  0.21102288825E+02  0.36328513283E+02  0.51467777689E+02  0.10566000000E+00 0. -1.
         22    1    1    0    0    0  0.21933017745E+02  0.15185423209E+02 -0.12059268149E+02  0.29275933695E+02  0.00000000000E+00 0.  1.
</event>
<event>
 5    1  0.1264731E-009  0.9118800E+02  0.7815553E-02  0.1125453E+00
         25   -1    0    0    0    0  0.00000000000E+00  0.00000000000E+00  0.99999998245E-14  0.12509000000E+03  0.12509000000E+03 0.  0.
        -13    1    3    3    0    0 -0.22628427618E+02 -0.33090157294E+02  0.36828887079E+02  0.54436957425E+02  0.10566000000E+00 0. -1.
         23    2    1    0    0    0 -0.28129915587E+02 -0.62221944853E+01  0.60689670561E+01  0.95647849666E+02  0.91003686351E+02 0.  0.
         13    1    3    3    0    0 -0.55014879696E+01  0.26867962809E+02 -0.30759920023E+02  0.41210892240E+02  0.10566000000E+00 0.  1.
         22    1    1    0    0    0  0.28129915587E+02  0.62221944853E+01 -0.60689670561E+01  0.29442150334E+02  0.00000000000E+00 0. -1.
</event>
<event>
 5    1  0.1264731E-009  0.9118800E+02  0.7815553E-02  0.1125453E+00
         25   -1    0    0    0    0  0.00000000000E+00  0.00000000000E+00  0.99999998245E-14  0.12509000000E+03  0.12509000000E+03 0.  0.
        -13    1    3    3    0    0  0.44288523916E+02 -0.28948805073E+02  0.28593163612E+02  0.60142221735E+02  0.10566000000E+00 0. -1.
         23    2    1    0    0    0  0.12625507992E+02 -0.15644627729E+02  0.22312697588E+02  0.95056447055E+02  0.90187104534E+02 0.  0.
         13    1    3    3    0    0 -0.31663015924E+02  0.13304177344E+02 -0.62804660242E+01  0.34914225320E+02  0.10566000000E+00 0.  1.
         22    1    1    0    0    0 -0.12625507992E+02  0.15644627729E+02 -0.22312697588E+02  0.30033552945E+02  0.00000000000E+00 0. -1.
</event>
<event>
 5    1  0.1264731E-009  0.9118800E+02  0.7815553E-02  0.1125453E+00
         25   -1    0    0    0    0  0.00000000000E+00  0.00000000000E+00  0.99999998245E-14  0.12509000000E+03  0.12509000000E+03 0.  0.
        -13    1    3    3    0    0  0.25388951112E+02  0.54961857918E+01  0.36796077306E+02  0.45041862373E+02  0.10566000000E+00 0.  1.
         23    2    1    0    0    0 -0.87815063081E+01  0.26466562604E+02  0.38384762885E+01  0.96941684076E+02  0.92765092692E+02 0.  0.
         13    1    3    3    0    0 -0.34170457420E+02  0.20970376813E+02 -0.32957601018E+02  0.51899821703E+02  0.10566000000E+00 0. -1.
         22    1    1    0    0    0  0.87815063081E+01 -0.26466562604E+02 -0.38384762885E+01  0.28148315924E+02  0.00000000000E+00 0. -1.
</event>
<event>
 5    1  0.1264731E-009  0.9118800E+02  0.7815553E-02  0.1125453E+00
         25   -1    0    0    0    0  0.00000000000E+00  0.00000000000E+00  0.99999998245E-14  0.12509000000E+03  0.12509000000E+03 0.  0.
        -13    1    3    3    0    0 -0.20336581470E+02 -0.82479931662E+01  0.25566275467E+02  0.33693494067E+02  0.10566000000E+00 0. -1.
         23    2    1    0    0    0  0.25504720555E+02  0.12750867354E+02 -0.94144498526E+01  0.95061559234E+02  0.90194194874E+02 0.  0.
         13    1    3    3    0    0  0.45841302024E+02  0.20998860520E+02 -0.34980725319E+02  0.61368065167E+02  0.10566000000E+00 0.  1.
         22    1    1    0    0    0 -0.25504720555E+02 -0.12750867354E+02  0.94144498526E+01  0.30028440766E+02  0.00000000000E+00 0.  1.
</event>
<event>
 5    1  0.1264731E-009  0.9118800E+02  0.7815553E-02  0.1125453E+00
         25   -1    0    0    0    0  0.00000000000E+00  0.00000000000E+00  0.99999998245E-14  0.12509000000E+03  0.12509000000E+03 0.  0.
        -13    1    3    3    0    0  0.21074891032E+02 -0.34923532652E+02 -0.14826320727E+02  0.43400865375E+02  0.10566000000E+00 0. -1.
         23    2    1    0    0    0 -0.23058574778E+02 -0.49881023616E+01 -0.15726690551E+02  0.96736731553E+02  0.92488309531E+02 0.  0.
         13    1    3    3    0    0 -0.44133465810E+02  0.29935430291E+02 -0.90036982373E+00  0.53335866178E+02  0.10566000000E+00 0.  1.
         22    1    1    0    0    0  0.23058574778E+02  0.49881023616E+01  0.15726690551E+02  0.28353268447E+02  0.00000000000E+00 0.  1.
</event>
<event>
 5    1  0.1264731E-009  0.9118800E+02  0.7815553E-02  0.1125453E+00
         25   -1    0    0    0    0  0.00000000000E+00  0.00000000000E+00  0.99999998245E-14  0.12509000000E+03  0.12509000000E+03 0.  0.
        -13    1    3    3    0    0 -0.43888258761E+02 -0.34947440809E+02 -0.21410251268E+01  0.56143548417E+02  0.10566000000E+00 0.  1.
         23    2    1    0    0    0 -0.19132669539E+02 -0.10346370543E+02  0.18365132083E+02  0.96622746822E+02  0.92334017024E+02 0.  0.
         13    1    3    3    0    0  0.24755589222E+02  0.24601070266E+02  0.20506157210E+02  0.40479198405E+02  0.10566000000E+00 0. -1.
         22    1    1    0    0    0  0.19132669539E+02  0.10346370543E+02 -0.18365132083E+02  0.28467253178E+02  0.00000000000E+00 0.  1.
</event>
<event>
 5    1  0.1264731E-009  0.9118800E+02  0.7815553E-02  0.1125453E+00
         25   -1    0    0    0    0  0.00000000000E+00  0.00000000000E+00  0.99999998245E-14  0.12509000000E+03  0.12509000000E+03 0.  0.
        -13    1    3    3    0    0 -0.11193786254E+02 -0.33585699077E+02  0.23110806760E+02  0.42277897137E+02  0.10566000000E+00 0.  1.
         23    2    1    0    0    0 -0.26911089966E+02  0.74362614072E+01 -0.79276790917E+01  0.96066684499E+02  0.91577590207E+02 0.  0.
         13    1    3    3    0    0 -0.15717303712E+02  0.41021960484E+02 -0.31038485852E+02  0.53788787363E+02  0.10566000000E+00 0. -1.
         22    1    1    0    0    0  0.26911089966E+02 -0.74362614072E+01  0.79276790917E+01  0.29023315501E+02  0.00000000000E+00 0.  1.
</event>
<event>
 5    1  0.1264731E-009  0.9118800E+02  0.7815553E-02  0.1125453E+00
         25   -1    0    0    0    0  0.00000000000E+00  0.00000000000E+00  0.99999998245E-14  0.12509000000E+03  0.12509000000E+03 0.  0.
        -13    1    3    3    0    0  0.26896967708E+01 -0.53017657952E+02  0.22429371243E+02  0.57629804631E+02  0.10566000000E+00 0.  1.
         23    2    1    0    0    0 -0.14758769126E+02 -0.19934162078E+02  0.15980533248E+02  0.95584584790E+02  0.90916683412E+02 0.  0.
         13    1    3    3    0    0 -0.17448465896E+02  0.33083495874E+02 -0.64488379944E+01  0.37954780159E+02  0.10566000000E+00 0. -1.
         22    1    1    0    0    0  0.14758769126E+02  0.19934162078E+02 -0.15980533248E+02  0.29505415210E+02  0.00000000000E+00 0.  1.
</event>
<event>
 5    1  0.1264731E-009  0.9118800E+02  0.7815553E-02  0.1125453E+00
         25   -1    0    0    0    0  0.00000000000E+00  0.00000000000E+00  0.99999998245E-14  0.12509000000E+03  0.12509000000E+03 0.  0.
        -13    1    3    3    0    0 -0.37170818118E+02 -0.90624999970E+00 -0.10988362890E+02  0.38771720257E+02  0.10566000000E+00 0.  1.
         23    2    1    0    0    0  0.77397921152E+01 -0.21360031473E+02  0.18088127560E+02  0.96049757488E+02  0.91554465911E+02 0.  0.
         13    1    3    3    0    0  0.44910610233E+02 -0.20453781474E+02  0.29076490450E+02  0.57278037231E+02  0.10566000000E+00 0. -1.
         22    1    1    0    0    0 -0.77397921152E+01  0.21360031473E+02 -0.18088127560E+02  0.29040242512E+02  0.00000000000E+00 0. -1.
</event>
<event>
 5    1  0.1264731E-009  0.9118800E+02  0.7815553E-02  0.1125453E+00
         25   -1    0    0    0    0  0.00000000000E+00  0.00000000000E+00  0.99999998245E-14  0.12509000000E+03  0.12509000000E+03 0.  0.
        -13    1    3    3    0    0 -0.42688400107E+02  0.22315355938E+02  0.48748167676E+01  0.48415386158E+02  0.10566000000E+00 0. -1.
         23    2    1    0    0    0 -0.14227181729E+02 -0.17453407419E+02 -0.11262389192E+02  0.99913114951E+02  0.96688960064E+02 0.  0.
         13    1    3    3    0    0  0.28461218378E+02 -0.39768763357E+02 -0.16137205960E+02  0.51497728792E+02  0.10566000000E+00 0.  1.
         22    1    1    0    0    0  0.14227181729E+02  0.17453407419E+02  0.11262389192E+02  0.25176885049E+02  0.00000000000E+00 0.  1.
</event>
<event>
 5    1  0.1264731E-009  0.9118800E+02  0.7815553E-02  0.1125453E+00
         25   -1    0    0    0    0  0.00000000000E+00  0.00000000000E+00  0.99999998245E-14  0.12509000000E+03  0.12509000000E+03 0.  0.
        -13    1    3    3    0    0  0.26290010934E+02  0.27166409840E+02 -0.56655115987E+01  0.38226792753E+02  0.10566000000E+00 0. -1.
         23    2    1    0    0    0 -0.14083146731E+02 -0.64210118860E+01 -0.26235347733E+02  0.94629240223E+02  0.89592606944E+02 0.  0.
         13    1    3    3    0    0 -0.40373157665E+02 -0.33587421725E+02 -0.20569836134E+02  0.56402447470E+02  0.10566000000E+00 0.  1.
         22    1    1    0    0    0  0.14083146731E+02  0.64210118860E+01  0.26235347733E+02  0.30460759777E+02  0.00000000000E+00 0. -1.
</event>
<event>
 5    1  0.1264731E-009  0.9118800E+02  0.7815553E-02  0.1125453E+00
         25   -1    0    0    0    0  0.00000000000E+00  0.00000000000E+00  0.99999998245E-14  0.12509000000E+03  0.12509000000E+03 0.  0.
        -13    1    3    3    0    0 -0.17686821394E+02  0.36091645477E+02  0.23605689355E+02  0.46611911119E+02  0.10566000000E+00 0.  1.
         23    2    1    0    0    0  0.19721537524E+02  0.68192753571E+01  0.22887825946E+02  0.94117526169E+02  0.88875275510E+02 0.  0.
         13    1    3    3    0    0  0.37408358917E+02 -0.29272370120E+02 -0.71786340928E+00  0.47505615050E+02  0.10566000000E+00 0. -1.
         22    1    1    0    0    0 -0.19721537524E+02 -0.68192753571E+01 -0.22887825946E+02  0.30972473831E+02  0.00000000000E+00 0. -1.
</event>
<event>
 5    1  0.1264731E-009  0.9118800E+02  0.7815553E-02  0.1125453E+00
         25   -1    0    0    0    0  0.00000000000E+00  0.00000000000E+00  0.99999998245E-14  0.12509000000E+03  0.12509000000E+03 0.  0.
        -13    1    3    3    0    0  0.54759941879E+02  0.11092419228E+02 -0.68076523367E+01  0.56285418123E+02  0.10566000000E+00 0. -1.
         23    2    1    0    0    0  0.11459562780E+02  0.21452900914E+01 -0.19574198598E+02  0.10230682420E+03  0.99737721945E+02 0.  0.
         13    1    3    3    0    0 -0.43300379099E+02 -0.89471291369E+01 -0.12766546262E+02  0.46021406078E+02  0.10566000000E+00 0.  1.
         22    1    1    0    0    0 -0.11459562780E+02 -0.21452900914E+01  0.19574198598E+02  0.22783175798E+02  0.00000000000E+00 0. -1.
</event>
<event>
 5    1  0.1264731E-009  0.9118800E+02  0.7815553E-02  0.1125453E+00
         25   -1    0    0    0    0  0.00000000000E+00  0.00000000000E+00  0.99999998245E-14  0.12509000000E+03  0.12509000000E+03 0.  0.
        -13    1    3    3    0    0 -0.18859449778E+02 -0.34540579936E+02 -0.28143734411E+02  0.48381933187E+02  0.10566000000E+00 0.  1.
         23    2    1    0    0    0  0.20801548104E+02 -0.14534055282E+02 -0.18087643865E+02  0.93927425860E+02  0.88607309527E+02 0.  0.
         13    1    3    3    0    0  0.39660997882E+02  0.20006524654E+02  0.10056090546E+02  0.45545492673E+02  0.10566000000E+00 0. -1.
         22    1    1    0    0    0 -0.20801548104E+02  0.14534055282E+02  0.18087643865E+02  0.31162574140E+02  0.00000000000E+00 0. -1.
</event>
<event>
 5    1  0.1264731E-009  0.9118800E+02  0.7815553E-02  0.1125453E+00
         25   -1    0    0    0    0  0.00000000000E+00  0.00000000000E+00  0.99999998245E-14  0.12509000000E+03  0.12509000000E+03 0.  0.
        -13    1    3    3    0    0  0.52289760515E+01 -0.29159824165E+02  0.35522368212E+02  0.46254592673E+02  0.10566000000E+00 0. -1.
         23    2    1    0    0    0  0.25177695207E+02  0.76768230279E+01  0.23414776505E+02  0.89860726569E+02  0.82667094257E+02 0.  0.
         13    1    3    3    0    0  0.19948719155E+02  0.36836647193E+02 -0.12107591707E+02  0.43606133896E+02  0.10566000000E+00 0.  1.
         22    1    1    0    0    0 -0.25177695207E+02 -0.76768230279E+01 -0.23414776505E+02  0.35229273431E+02  0.00000000000E+00 0. -1.
</event>
<event>
 5    1  0.1264731E-009  0.9118800E+02  0.7815553E-02  0.1125453E+00
         25   -1    0    0    0    0  0.00000000000E+00  0.00000000000E+00  0.99999998245E-14  0.12509000000E+03  0.12509000000E+03 0.  0.
        -13    1    3    3    0    0  0.23377109888E+02  0.69743237693E+01 -0.26487871245E+02  0.36010400524E+02  0.10566000000E+00 0.  1.
         23    2    1    0    0    0 -0.28913268769E+01 -0.21534261800E+02  0.19316662643E+02  0.96017372702E+02  0.91510208187E+02 0.  0.
         13    1    3    3    0    0 -0.26268436765E+02 -0.28508585569E+02  0.45804533888E+02  0.60006972178E+02  0.10566000000E+00 0. -1.
         22    1    1    0    0    0  0.28913268769E+01  0.21534261800E+02 -0.19316662643E+02  0.29072627298E+02  0.00000000000E+00 0. -1.
</event>
<event>
 5    1  0.1264731E-009  0.9118800E+02  0.7815553E-02  0.1125453E+00
         25   -1    0    0    0    0  0.00000000000E+00  0.00000000000E+00  0.99999998245E-14  0.12509000000E+03  0.12509000000E+03 0.  0.
        -13    1    3    3    0    0 -0.17950013184E+02 -0.30742309329E+02  0.85547029029E+01  0.36612657128E+02  0.10566000000E+00 0. -1.
         23    2    1    0    0    0 -0.43816523812E+02 -0.35587516197E+01  0.21298589098E+02  0.76241434314E+02  0.58536945057E+02 0.  0.
         13    1    3    3    0    0 -0.25866510628E+02  0.27183557710E+02  0.12743886195E+02  0.39628777185E+02  0.10566000000E+00 0.  1.
         22    1    1    0    0    0  0.43816523812E+02  0.35587516197E+01 -0.21298589098E+02  0.48848565686E+02  0.00000000000E+00 0.  1.
</event>
<event>
 5    1  0.1264731E-009  0.9118800E+02  0.7815553E-02  0.1125453E+00
         25   -1    0    0    0    0  0.00000000000E+00  0.00000000000E+00  0.99999998245E-14  0.12509000000E+03  0.12509000000E+03 0.  0.
        -13    1    3    3    0    0 -0.37045549064E+02  0.17629913727E+02  0.54204455296E+01  0.41383317378E+02  0.10566000000E+00 0.  1.
         23    2    1    0    0    0  0.38913591828E+01 -0.90300288364E+01  0.28155265319E+02  0.95267138597E+02  0.90478862914E+02 0.  0.
         13    1    3    3    0    0  0.40936908247E+02 -0.26659942563E+02  0.22734819789E+02  0.53883821219E+02  0.10566000000E+00 0. -1.
         22    1    1    0    0    0 -0.38913591828E+01  0.90300288364E+01 -0.28155265319E+02  0.29822861403E+02  0.00000000000E+00 0. -1.
</event>
<event>
 5    1  0.1264731E-009  0.9118800E+02  0.7815553E-02  0.1125453E+00
         25   -1    0    0    0    0  0.00000000000E+00  0.00000000000E+00  0.99999998245E-14  0.12509000000E+03  0.12509000000E+03 0.  0.
        -13    1    3    3    0    0  0.92399989851E+01  0.60089996855E+00 -0.59239805922E+02  0.59959189719E+02  0.10566000000E+00 0.  1.
         23    2    1    0    0    0 -0.68778055872E+01 -0.57087583819E+01 -0.28304020295E+02  0.95408158804E+02  0.90673618377E+02 0.  0.
         13    1    3    3    0    0 -0.16117804572E+02 -0.63096583504E+01  0.30935785628E+02  0.35448969085E+02  0.10566000000E+00 0. -1.
         22    1    1    0    0    0  0.68778055872E+01  0.57087583819E+01  0.28304020295E+02  0.29681841196E+02  0.00000000000E+00 0.  1.
</event>
<event>
 5    1  0.1264731E-009  0.9118800E+02  0.7815553E-02  0.1125453E+00
         25   -1    0    0    0    0  0.00000000000E+00  0.00000000000E+00  0.99999998245E-14  0.12509000000E+03  0.12509000000E+03 0.  0.
        -13    1    3    3    0    0 -0.39139527766E+02  0.36034292871E+02 -0.15818849162E+02  0.55503333678E+02  0.10566000000E+00 0.  1.
         23    2    1    0    0    0 -0.97524308110E+01  0.30144771938E+02  0.63425054898E+01  0.92778321650E+02  0.86969951192E+02 0.  0.
         13    1    3    3    0    0  0.29387096955E+02 -0.58895209329E+01  0.22161354652E+02  0.37274987972E+02  0.10566000000E+00 0. -1.
         22    1    1    0    0    0  0.97524308110E+01 -0.30144771938E+02 -0.63425054898E+01  0.32311678350E+02  0.00000000000E+00 0.  1.
</event>
<event>
 5    1  0.1264731E-009  0.9118800E+02  0.7815553E-02  0.1125453E+00
         25   -1    0    0    0    0  0.00000000000E+00  0.00000000000E+00  0.99999998245E-14  0.12509000000E+03  0.12509000000E+03 0.  0.
        -13    1    3    3    0    0 -0.38383741038E+02 -0.12121708319E+02 -0.25790029159E+02  0.47805691677E+02  0.10566000000E+00 0.  1.
         23    2    1    0    0    0 -0.21442561580E+01 -0.29400198384E+02  0.16214296176E+00  0.95611265464E+02  0.90953385280E+02 0.  0.
         13    1    3    3    0    0  0.36239484880E+02 -0.17278490065E+02  0.25952172120E+02  0.47805573787E+02  0.10566000000E+00 0. -1.
         22    1    1    0    0    0  0.21442561580E+01  0.29400198384E+02 -0.16214296176E+00  0.29478734536E+02  0.00000000000E+00 0.  1.
</event>
<event>
 5    1  0.1264731E-009  0.9118800E+02  0.7815553E-02  0.1125453E+00
         25   -1    0    0    0    0  0.00000000000E+00  0.00000000000E+00  0.99999998245E-14  0.12509000000E+03  0.12509000000E+03 0.  0.
        -13    1    3    3    0    0  0.28923478285E+02 -0.44433927071E+02 -0.32520653312E+02  0.62197632808E+02  0.10566000000E+00 0. -1.
         23    2    1    0    0    0  0.16590314995E+02 -0.19383389901E+02 -0.11735869131E+02  0.97006464255E+02  0.92852405071E+02 0.  0.
         13    1    3    3    0    0 -0.12333163290E+02  0.25050537170E+02  0.20784784181E+02  0.34808831448E+02  0.10566000000E+00 0.  1.
         22    1    1    0    0    0 -0.16590314995E+02  0.19383389901E+02  0.11735869131E+02  0.28083535745E+02  0.00000000000E+00 0. -1.
</event>
<event>
 5    1  0.1264731E-009  0.9118800E+02  0.7815553E-02  0.1125453E+00
         25   -1    0    0    0    0  0.00000000000E+00  0.00000000000E+00  0.99999998245E-14  0.12509000000E+03  0.12509000000E+03 0.  0.
        -13    1    3    3    0    0  0.48771718314E+02 -0.97880090849E+01 -0.89479021430E+01  0.50542672525E+02  0.10566000000E+00 0. -1.
         23    2    1    0    0    0  0.29809205761E+02 -0.21271662881E+02  0.17037776512E+02  0.84699924260E+02  0.74449438892E+02 0.  0.
         13    1    3    3    0    0 -0.18962512554E+02 -0.11483653797E+02  0.25985678655E+02  0.34157251735E+02  0.10566000000E+00 0.  1.
         22    1    1    0    0    0 -0.29809205761E+02  0.21271662881E+02 -0.17037776512E+02  0.40390075740E+02  0.00000000000E+00 0. -1.
</event>
<event>
 5    1  0.1264731E-009  0.9118800E+02  0.7815553E-02  0.1125453E+00
         25   -1    0    0    0    0  0.00000000000E+00  0.00000000000E+00  0.99999998245E-14  0.12509000000E+03  0.12509000000E+03 0.  0.
        -13    1    3    3    0    0 -0.22293846571E+02 -0.23266589185E+02 -0.46825737651E+02  0.56841979538E+02  0.10566000000E+00 0. -1.
         23    2    1    0    0    0 -0.24865993528E+02 -0.13153148917E+02 -0.98141619832E+01  0.95296699814E+02  0.90519723041E+02 0.  0.
         13    1    3    3    0    0 -0.25721469565E+01  0.10113440268E+02  0.37011575668E+02  0.38454720275E+02  0.10566000000E+00 0.  1.
         22    1    1    0    0    0  0.24865993528E+02  0.13153148917E+02  0.98141619832E+01  0.29793300186E+02  0.00000000000E+00 0. -1.
</event>
<event>
 5    1  0.1264731E-009  0.9118800E+02  0.7815553E-02  0.1125453E+00
         25   -1    0    0    0    0  0.00000000000E+00  0.00000000000E+00  0.99999998245E-14  0.12509000000E+03  0.12509000000E+03 0.  0.
        -13    1    3    3    0    0 -0.25739757871E+02 -0.18311272214E+02  0.26412994603E+02  0.41176392184E+02  0.10566000000E+00 0. -1.
         23    2    1    0    0    0  0.23528135206E+02 -0.19122145403E+02  0.85542465640E+01  0.93587544138E+02  0.88126180516E+02 0.  0.
         13    1    3    3    0    0  0.49267893077E+02 -0.81087318904E+00 -0.17858748039E+02  0.52411151954E+02  0.10566000000E+00 0.  1.
         22    1    1    0    0    0 -0.23528135206E+02  0.19122145403E+02 -0.85542465640E+01  0.31502455862E+02  0.00000000000E+00 0. -1.
</event>
<event>
 5    1  0.1264731E-009  0.9118800E+02  0.7815553E-02  0.1125453E+00
         25   -1    0    0    0    0  0.00000000000E+00  0.00000000000E+00  0.99999998245E-14  0.12509000000E+03  0.12509000000E+03 0.  0.
        -13    1    3    3    0    0 -0.19819649487E+02 -0.52402687458E+02 -0.84685269456E+01  0.56662044362E+02  0.10566000000E+00 0.  1.
         23    2    1    0    0    0  0.75044241458E+01 -0.26451691444E+02 -0.13106810903E+02  0.94630242055E+02  0.89594005700E+02 0.  0.
         13    1    3    3    0    0  0.27324073632E+02  0.25950996014E+02 -0.46382839572E+01  0.37968197693E+02  0.10566000000E+00 0. -1.
         22    1    1    0    0    0 -0.75044241458E+01  0.26451691444E+02  0.13106810903E+02  0.30459757945E+02  0.00000000000E+00 0.  1.
</event>
<event>
 5    1  0.1264731E-009  0.9118800E+02  0.7815553E-02  0.1125453E+00
         25   -1    0    0    0    0  0.00000000000E+00  0.00000000000E+00  0.99999998245E-14  0.12509000000E+03  0.12509000000E+03 0.  0.
        -13    1    3    3    0    0 -0.18572762480E+02  0.37323278222E+02  0.44885292519E+02  0.61259083016E+02  0.10566000000E+00 0. -1.
         23    2    1    0    0    0 -0.16592483614E+02  0.22467414058E+02  0.18548658612E+02  0.91561684456E+02  0.85202078127E+02 0.  0.
         13    1    3    3    0    0  0.19802788663E+01 -0.14855864164E+02 -0.26336633907E+02  0.30302601440E+02  0.10566000000E+00 0.  1.
         22    1    1    0    0    0  0.16592483614E+02 -0.22467414058E+02 -0.18548658612E+02  0.33528315544E+02  0.00000000000E+00 0. -1.
</event>
<event>
 5    1  0.1264731E-009  0.9118800E+02  0.7815553E-02  0.1125453E+00
         25   -1    0    0    0    0  0.00000000000E+00  0.00000000000E+00  0.99999998245E-14  0.12509000000E+03  0.12509000000E+03 0.  0.
        -13    1    3    3    0    0 -0.16771248470E+02 -0.13810389761E+02  0.32748653344E+02  0.39299963110E+02  0.10566000000E+00 0. -1.
         23    2    1    0    0    0  0.11905193063E+02  0.25959860552E+02  0.36949466645E+01  0.96292420022E+02  0.91885415279E+02 0.  0.
         13    1    3    3    0    0  0.28676441533E+02  0.39770250313E+02 -0.29053706680E+02  0.56992456911E+02  0.10566000000E+00 0.  1.
         22    1    1    0    0    0 -0.11905193063E+02 -0.25959860552E+02 -0.36949466645E+01  0.28797579978E+02  0.00000000000E+00 0.  1.
</event>
<event>
 5    1  0.1264731E-009  0.9118800E+02  0.7815553E-02  0.1125453E+00
         25   -1    0    0    0    0  0.00000000000E+00  0.00000000000E+00  0.99999998245E-14  0.12509000000E+03  0.12509000000E+03 0.  0.
        -13    1    3    3    0    0  0.20058588452E+02  0.30019937122E+02 -0.11607071359E+02  0.37924647197E+02  0.10566000000E+00 0.  1.
         23    2    1    0    0    0 -0.15108386951E+02 -0.16109711119E+02 -0.18422366023E+02  0.96329441617E+02  0.91935801534E+02 0.  0.
         13    1    3    3    0    0 -0.35166975403E+02 -0.46129648241E+02 -0.68152946642E+01  0.58404794420E+02  0.10566000000E+00 0. -1.
         22    1    1    0    0    0  0.15108386951E+02  0.16109711119E+02  0.18422366023E+02  0.28760558383E+02  0.00000000000E+00 0. -1.
</event>
<event>
 5    1  0.1264731E-009  0.9118800E+02  0.7815553E-02  0.1125453E+00
         25   -1    0    0    0    0  0.00000000000E+00  0.00000000000E+00  0.99999998245E-14  0.12509000000E+03  0.12509000000E+03 0.  0.
        -13    1    3    3    0    0 -0.83646405315E+01  0.55750737755E+01 -0.51686525997E+02  0.52655073759E+02  0.10566000000E+00 0. -1.
         23    2    1    0    0    0 -0.21055332927E+02  0.21668781998E+02 -0.32169847108E+02  0.80956540801E+02  0.67868986125E+02 0.  0.
         13    1    3    3    0    0 -0.12690692396E+02  0.16093708222E+02  0.19516678890E+02  0.28301467042E+02  0.10566000000E+00 0.  1.
         22    1    1    0    0    0  0.21055332927E+02 -0.21668781998E+02  0.32169847108E+02  0.44133459199E+02  0.00000000000E+00 0. -1.
</event>
<event>
 5    1  0.1264731E-009  0.9118800E+02  0.7815553E-02  0.1125453E+00
         25   -1    0    0    0    0  0.00000000000E+00  0.00000000000E+00  0.99999998245E-14  0.12509000000E+03  0.12509000000E+03 0.  0.
        -13    1    3    3    0    0  0.28768621832E+02  0.24385897561E+02  0.13090383046E+02  0.39920857885E+02  0.10566000000E+00 0.  1.
         23    2    1    0    0    0  0.71565248019E+01 -0.26905306990E+02  0.94135120927E+01  0.95700791073E+02  0.91076428403E+02 0.  0.
         13    1    3    3    0    0 -0.21612097030E+02 -0.51291204551E+02 -0.36768709532E+01  0.55779933187E+02  0.10566000000E+00 0. -1.
         22    1    1    0    0    0 -0.71565248019E+01  0.26905306990E+02 -0.94135120927E+01  0.29389208927E+02  0.00000000000E+00 0. -1.
</event>
<event>
 5    1  0.1264731E-009  0.9118800E+02  0.7815553E-02  0.1125453E+00
         25   -1    0    0    0    0  0.00000000000E+00  0.00000000000E+00  0.99999998245E-14  0.12509000000E+03  0.12509000000E+03 0.  0.
        -13    1    3    3    0    0  0.18259885044E+02  0.14657144300E+02  0.45315663448E+02  0.51007605301E+02  0.10566000000E+00 0. -1.
         23    2    1    0    0    0  0.24547375450E+02  0.16336069830E+02  0.12226776169E+01  0.95578379246E+02  0.90908144959E+02 0.  0.
         13    1    3    3    0    0  0.62874904063E+01  0.16789255297E+01 -0.44092985831E+02  0.44570773945E+02  0.10566000000E+00 0.  1.
         22    1    1    0    0    0 -0.24547375450E+02 -0.16336069830E+02 -0.12226776169E+01  0.29511620754E+02  0.00000000000E+00 0. -1.
</event>
<event>
 5    1  0.1264731E-009  0.9118800E+02  0.7815553E-02  0.1125453E+00
         25   -1    0    0    0    0  0.00000000000E+00  0.00000000000E+00  0.99999998245E-14  0.12509000000E+03  0.12509000000E+03 0.  0.
        -13    1    3    3    0    0 -0.29579626612E+02 -0.19780964740E+02  0.27876606377E+02  0.45203508975E+02  0.10566000000E+00 0.  1.
         23    2    1    0    0    0 -0.14600130185E+02  0.24013892959E+02  0.62167562321E+01  0.96306690348E+02  0.91904840412E+02 0.  0.
         13    1    3    3    0    0  0.14979496427E+02  0.43794857699E+02 -0.21659850145E+02  0.51103181373E+02  0.10566000000E+00 0. -1.
         22    1    1    0    0    0  0.14600130185E+02 -0.24013892959E+02 -0.62167562321E+01  0.28783309652E+02  0.00000000000E+00 0. -1.
</event>
<event>
 5    1  0.1264731E-009  0.9118800E+02  0.7815553E-02  0.1125453E+00
         25   -1    0    0    0    0  0.00000000000E+00  0.00000000000E+00  0.99999998245E-14  0.12509000000E+03  0.12509000000E+03 0.  0.
        -13    1    3    3    0    0 -0.34540841777E+01 -0.58964084027E+02 -0.14862035709E+01  0.59083956094E+02  0.10566000000E+00 0.  1.
         23    2    1    0    0    0 -0.53184633832E+01 -0.22507365346E+02  0.13233324477E+02  0.98444392027E+02  0.94769773120E+02 0.  0.
         13    1    3    3    0    0 -0.18643792055E+01  0.36456718681E+02  0.14719528048E+02  0.39360435933E+02  0.10566000000E+00 0. -1.
         22    1    1    0    0    0  0.53184633832E+01  0.22507365346E+02 -0.13233324477E+02  0.26645607973E+02  0.00000000000E+00 0.  1.
</event>
<event>
 5    1  0.1264731E-009  0.9118800E+02  0.7815553E-02  0.1125453E+00
         25   -1    0    0    0    0  0.00000000000E+00  0.00000000000E+00  0.99999998245E-14  0.12509000000E+03  0.12509000000E+03 0.  0.
        -13    1    3    3    0    0 -0.28109684769E+01  0.58201761418E+01  0.55276340650E+02  0.55653041191E+02  0.10566000000E+00 0. -1.
         23    2    1    0    0    0 -0.36523499033E+01  0.22446444264E+02  0.19423258261E+02  0.95182718589E+02  0.90362074106E+02 0.  0.
         13    1    3    3    0    0 -0.84138142639E+00  0.16626268122E+02 -0.35853082389E+02  0.39529677398E+02  0.10566000000E+00 0.  1.
         22    1    1    0    0    0  0.36523499033E+01 -0.22446444264E+02 -0.19423258261E+02  0.29907281411E+02  0.00000000000E+00 0. -1.
</event>
<event>
 5    1  0.1264731E-009  0.9118800E+02  0.7815553E-02  0.1125453E+00
         25   -1    0    0    0    0  0.00000000000E+00  0.00000000000E+00  0.99999998245E-14  0.12509000000E+03  0.12509000000E+03 0.  0.
        -13    1    3    3    0    0 -0.11623541610E+02  0.36582546235E+02 -0.15936201246E+02  0.41561557752E+02  0.10566000000E+00 0.  1.
         23    2    1    0    0    0 -0.20905712334E+02 -0.11930984605E+02  0.11878086592E+02  0.98248127060E+02  0.94510360955E+02 0.  0.
         13    1    3    3    0    0 -0.92821707239E+01 -0.48513530840E+02  0.27814287839E+02  0.56686569308E+02  0.10566000000E+00 0. -1.
         22    1    1    0    0    0  0.20905712334E+02  0.11930984605E+02 -0.11878086592E+02  0.26841872940E+02  0.00000000000E+00 0. -1.
</event>
<event>
 5    1  0.1264731E-009  0.9118800E+02  0.7815553E-02  0.1125453E+00
         25   -1    0    0    0    0  0.00000000000E+00  0.00000000000E+00  0.99999998245E-14  0.12509000000E+03  0.12509000000E+03 0.  0.
        -13    1    3    3    0    0  0.40284543143E+01 -0.46429617091E+02 -0.37140888823E+02  0.59593578295E+02  0.10566000000E+00 0.  1.
         23    2    1    0    0    0  0.14582473788E+02 -0.17162662146E+02 -0.19115598856E+02  0.95549999435E+02  0.90869085825E+02 0.  0.
         13    1    3    3    0    0  0.10554019474E+02  0.29266954945E+02  0.18025289966E+02  0.35956421140E+02  0.10566000000E+00 0. -1.
         22    1    1    0    0    0 -0.14582473788E+02  0.17162662146E+02  0.19115598856E+02  0.29540000565E+02  0.00000000000E+00 0.  1.
</event>
<event>
 5    1  0.1264731E-009  0.9118800E+02  0.7815553E-02  0.1125453E+00
         25   -1    0    0    0    0  0.00000000000E+00  0.00000000000E+00  0.99999998245E-14  0.12509000000E+03  0.12509000000E+03 0.  0.
        -13    1    3    3    0    0 -0.40097908385E+02 -0.42640329713E+02  0.13485437007E+02  0.60065865100E+02  0.10566000000E+00 0. -1.
         23    2    1    0    0    0 -0.17817161749E+02 -0.14726813454E+02  0.17626404330E+02  0.96020765113E+02  0.91514845331E+02 0.  0.
         13    1    3    3    0    0  0.22280746635E+02  0.27913516259E+02  0.41409673229E+01  0.35954900014E+02  0.10566000000E+00 0.  1.
         22    1    1    0    0    0  0.17817161749E+02  0.14726813454E+02 -0.17626404330E+02  0.29069234887E+02  0.00000000000E+00 0.  1.
</event>
<event>
 5    1  0.1264731E-009  0.9118800E+02  0.7815553E-02  0.1125453E+00
         25   -1    0    0    0    0  0.00000000000E+00  0.00000000000E+00  0.99999998245E-14  0.12509000000E+03  0.12509000000E+03 0.  0.
        -13    1    3    3    0    0 -0.35659723966E+02 -0.42025022057E+02  0.15680146762E+02  0.57302674970E+02  0.10566000000E+00 0.  1.
         23    2    1    0    0    0 -0.50240812170E+00 -0.27912802044E+02  0.88973202395E+01  0.95789159751E+02  0.91197718647E+02 0.  0.
         13    1    3    3    0    0  0.35157315845E+02  0.14112220013E+02 -0.67828265223E+01  0.38486484780E+02  0.10566000000E+00 0. -1.
         22    1    1    0    0    0  0.50240812170E+00  0.27912802044E+02 -0.88973202395E+01  0.29300840249E+02  0.00000000000E+00 0.  1.
</event>
<event>
 5    1  0.1264731E-009  0.9118800E+02  0.7815553E-02  0.1125453E+00
         25   -1    0    0    0    0  0.00000000000E+00  0.00000000000E+00  0.99999998245E-14  0.12509000000E+03  0.12509000000E+03 0.  0.
        -13    1    3    3    0    0  0.35964796597E+02 -0.10339894796E+02  0.47494360086E+02  0.60465737593E+02  0.10566000000E+00 0. -1.
         23    2    1    0    0    0  0.10332315390E+02  0.17681152527E+01  0.28846931056E+02  0.94397518768E+02  0.89268489095E+02 0.  0.
         13    1    3    3    0    0 -0.25632481207E+02  0.12108010049E+02 -0.18647429030E+02  0.33931781174E+02  0.10566000000E+00 0.  1.
         22    1    1    0    0    0 -0.10332315390E+02 -0.17681152527E+01 -0.28846931056E+02  0.30692481232E+02  0.00000000000E+00 0. -1.
</event>
<event>
 5    1  0.1264731E-009  0.9118800E+02  0.7815553E-02  0.1125453E+00
         25   -1    0    0    0    0  0.00000000000E+00  0.00000000000E+00  0.99999998245E-14  0.12509000000E+03  0.12509000000E+03 0.  0.
        -13    1    3    3    0    0 -0.19605077299E+02  0.12121079814E+02  0.25374438760E+02  0.34280503762E+02  0.10566000000E+00 0. -1.
         23    2    1    0    0    0  0.28511300946E+00 -0.49509233471E+01 -0.29543428456E+02  0.95133246231E+02  0.90293562573E+02 0.  0.
         13    1    3    3    0    0  0.19890190308E+02 -0.17072003161E+02 -0.54917867216E+02  0.60852742469E+02  0.10566000000E+00 0.  1.
         22    1    1    0    0    0 -0.28511300946E+00  0.49509233471E+01  0.29543428456E+02  0.29956753769E+02  0.00000000000E+00 0.  1.
</event>
<event>
 5    1  0.1264731E-009  0.9118800E+02  0.7815553E-02  0.1125453E+00
         25   -1    0    0    0    0  0.00000000000E+00  0.00000000000E+00  0.99999998245E-14  0.12509000000E+03  0.12509000000E+03 0.  0.
        -13    1    3    3    0    0  0.20786753926E+02  0.31324241940E+01  0.54361152486E+02  0.58284194116E+02  0.10566000000E+00 0.  1.
         23    2    1    0    0    0  0.22594074158E+02 -0.66114329618E+01  0.19517116219E+02  0.94510250845E+02  0.89426318589E+02 0.  0.
         13    1    3    3    0    0  0.18073202318E+01 -0.97438571558E+01 -0.34844036267E+02  0.36226056729E+02  0.10566000000E+00 0. -1.
         22    1    1    0    0    0 -0.22594074158E+02  0.66114329618E+01 -0.19517116219E+02  0.30579749155E+02  0.00000000000E+00 0.  1.
</event>
<event>
 5    1  0.1264731E-009  0.9118800E+02  0.7815553E-02  0.1125453E+00
         25   -1    0    0    0    0  0.00000000000E+00  0.00000000000E+00  0.99999998245E-14  0.12509000000E+03  0.12509000000E+03 0.  0.
        -13    1    3    3    0    0  0.53217388013E+02  0.87801332386E+00 -0.67616471736E+01  0.53652514674E+02  0.10566000000E+00 0. -1.
         23    2    1    0    0    0  0.24088467714E+02  0.23626677383E+02 -0.70823229736E+01  0.90613436080E+02  0.83798337326E+02 0.  0.
         13    1    3    3    0    0 -0.29128920298E+02  0.22748664059E+02 -0.32067580001E+00  0.36960921407E+02  0.10566000000E+00 0.  1.
         22    1    1    0    0    0 -0.24088467714E+02 -0.23626677383E+02  0.70823229736E+01  0.34476563920E+02  0.00000000000E+00 0. -1.
</event>
<event>
 5    1  0.1264731E-009  0.9118800E+02  0.7815553E-02  0.1125453E+00
         25   -1    0    0    0    0  0.00000000000E+00  0.00000000000E+00  0.99999998245E-14  0.12509000000E+03  0.12509000000E+03 0.  0.
        -13    1    3    3    0    0  0.24101543118E+02  0.13629087408E+02  0.20241967648E+02  0.34298466767E+02  0.10566000000E+00 0.  1.
         23    2    1    0    0    0 -0.15286483145E+02 -0.27109450194E+02  0.16993607923E+01  0.93921318862E+02  0.88598687648E+02 0.  0.
         13    1    3    3    0    0 -0.39388026264E+02 -0.40738537602E+02 -0.18542606855E+02  0.59622852095E+02  0.10566000000E+00 0. -1.
         22    1    1    0    0    0  0.15286483145E+02  0.27109450194E+02 -0.16993607923E+01  0.31168681138E+02  0.00000000000E+00 0. -1.
</event>
<event>
 5    1  0.1264731E-009  0.9118800E+02  0.7815553E-02  0.1125453E+00
         25   -1    0    0    0    0  0.00000000000E+00  0.00000000000E+00  0.99999998245E-14  0.12509000000E+03  0.12509000000E+03 0.  0.
        -13    1    3    3    0    0  0.58739304305E+01 -0.26907183969E+02  0.30876303535E+02  0.41374592347E+02  0.10566000000E+00 0.  1.
         23    2    1    0    0    0 -0.11617911283E+02  0.22021075573E+02  0.16262622147E+02  0.95351531460E+02  0.90595463687E+02 0.  0.
         13    1    3    3    0    0 -0.17491841714E+02  0.48928259542E+02 -0.14613681388E+02  0.53976939114E+02  0.10566000000E+00 0. -1.
         22    1    1    0    0    0  0.11617911283E+02 -0.22021075573E+02 -0.16262622147E+02  0.29738468540E+02  0.00000000000E+00 0. -1.
</event>
<event>
 5    1  0.1264731E-009  0.9118800E+02  0.7815553E-02  0.1125453E+00
         25   -1    0    0    0    0  0.00000000000E+00  0.00000000000E+00  0.99999998245E-14  0.12509000000E+03  0.12509000000E+03 0.  0.
        -13    1    3    3    0    0  0.15395940083E+02  0.36409811395E+02 -0.33669353710E+02  0.51926350538E+02  0.10566000000E+00 0. -1.
         23    2    1    0    0    0  0.13959131744E+02  0.25392958209E+02  0.79817628303E+01  0.95033915366E+02  0.90155847544E+02 0.  0.
         13    1    3    3    0    0 -0.14368083386E+01 -0.11016853186E+02  0.41651116541E+02  0.43107564828E+02  0.10566000000E+00 0.  1.
         22    1    1    0    0    0 -0.13959131744E+02 -0.25392958209E+02 -0.79817628303E+01  0.30056084634E+02  0.00000000000E+00 0.  1.
</event>
<event>
 5    1  0.1264731E-009  0.9118800E+02  0.7815553E-02  0.1125453E+00
         25   -1    0    0    0    0  0.00000000000E+00  0.00000000000E+00  0.99999998245E-14  0.12509000000E+03  0.12509000000E+03 0.  0.
        -13    1    3    3    0    0 -0.21933791330E+02 -0.35726678426E+02  0.29811304877E+02  0.51441343450E+02  0.10566000000E+00 0.  1.
         23    2    1    0    0    0 -0.26068339964E+02 -0.57962061006E+01 -0.54054382483E+01  0.97843475152E+02  0.93973254246E+02 0.  0.
         13    1    3    3    0    0 -0.41345486344E+01  0.29930472325E+02 -0.35216743126E+02  0.46402131702E+02  0.10566000000E+00 0. -1.
         22    1    1    0    0    0  0.26068339964E+02  0.57962061006E+01  0.54054382483E+01  0.27246524848E+02  0.00000000000E+00 0.  1.
</event>
<event>
 5    1  0.1264731E-009  0.9118800E+02  0.7815553E-02  0.1125453E+00
         25   -1    0    0    0    0  0.00000000000E+00  0.00000000000E+00  0.99999998245E-14  0.12509000000E+03  0.12509000000E+03 0.  0.
        -13    1    3    3    0    0  0.33185530334E+02 -0.14326681970E+02 -0.47907246590E+02  0.60013737425E+02  0.10566000000E+00 0. -1.
         23    2    1    0    0    0  0.18549155062E+02  0.54832875450E+01 -0.22903236933E+02  0.95111743582E+02  0.90263768531E+02 0.  0.
         13    1    3    3    0    0 -0.14636375271E+02  0.19809969515E+02  0.25004009657E+02  0.35098006158E+02  0.10566000000E+00 0.  1.
         22    1    1    0    0    0 -0.18549155062E+02 -0.54832875450E+01  0.22903236933E+02  0.29978256418E+02  0.00000000000E+00 0. -1.
</event>
<event>
 5    1  0.1264731E-009  0.9118800E+02  0.7815553E-02  0.1125453E+00
         25   -1    0    0    0    0  0.00000000000E+00  0.00000000000E+00  0.99999998245E-14  0.12509000000E+03  0.12509000000E+03 0.  0.
        -13    1    3    3    0    0 -0.30289342498E+02 -0.14770893589E+01 -0.10685894857E+02  0.32153158086E+02  0.10566000000E+00 0. -1.
         23    2    1    0    0    0  0.56592886280E+01  0.21851970904E+01  0.34528318698E+02  0.90032797799E+02  0.82927059837E+02 0.  0.
         13    1    3    3    0    0  0.35948631126E+02  0.36622864493E+01  0.45214213555E+02  0.57879639713E+02  0.10566000000E+00 0.  1.
         22    1    1    0    0    0 -0.56592886280E+01 -0.21851970904E+01 -0.34528318698E+02  0.35057202201E+02  0.00000000000E+00 0.  1.
</event>
<event>
 5    1  0.1264731E-009  0.9118800E+02  0.7815553E-02  0.1125453E+00
         25   -1    0    0    0    0  0.00000000000E+00  0.00000000000E+00  0.99999998245E-14  0.12509000000E+03  0.12509000000E+03 0.  0.
        -13    1    3    3    0    0 -0.20390888687E+02 -0.30197955088E+02 -0.43575926831E+02  0.56802969959E+02  0.10566000000E+00 0.  1.
         23    2    1    0    0    0 -0.22915356939E+02 -0.19810009632E+01 -0.26981679536E+02  0.89635113468E+02  0.82324993698E+02 0.  0.
         13    1    3    3    0    0 -0.25244682522E+01  0.28216954125E+02  0.16594247295E+02  0.32832143509E+02  0.10566000000E+00 0. -1.
         22    1    1    0    0    0  0.22915356939E+02  0.19810009632E+01  0.26981679536E+02  0.35454886532E+02  0.00000000000E+00 0.  1.
</event>
<event>
 5    1  0.1264731E-009  0.9118800E+02  0.7815553E-02  0.1125453E+00
         25   -1    0    0    0    0  0.00000000000E+00  0.00000000000E+00  0.99999998245E-14  0.12509000000E+03  0.12509000000E+03 0.  0.
        -13    1    3    3    0    0  0.16482284533E+01  0.24196110311E+02 -0.46933878923E+02  0.52829618265E+02  0.10566000000E+00 0.  1.
         23    2    1    0    0    0  0.22538325787E+02 -0.51325530727E+00 -0.20676047421E+02  0.94500156959E+02  0.89412198094E+02 0.  0.
         13    1    3    3    0    0  0.20890097334E+02 -0.24709365618E+02  0.26257831502E+02  0.41670538694E+02  0.10566000000E+00 0. -1.
         22    1    1    0    0    0 -0.22538325787E+02  0.51325530727E+00  0.20676047421E+02  0.30589843041E+02  0.00000000000E+00 0.  1.
</event>
<event>
 5    1  0.1264731E-009  0.9118800E+02  0.7815553E-02  0.1125453E+00
         25   -1    0    0    0    0  0.00000000000E+00  0.00000000000E+00  0.99999998245E-14  0.12509000000E+03  0.12509000000E+03 0.  0.
        -13    1    3    3    0    0  0.26449941165E+02  0.28505071980E+02 -0.70406895353E+01  0.39518615732E+02  0.10566000000E+00 0. -1.
         23    2    1    0    0    0  0.10354083213E+02 -0.23441691416E+02 -0.16348431619E+02  0.94692777232E+02  0.89681274009E+02 0.  0.
         13    1    3    3    0    0 -0.16095857951E+02 -0.51946763396E+02 -0.93077420834E+01  0.55174161500E+02  0.10566000000E+00 0.  1.
         22    1    1    0    0    0 -0.10354083213E+02  0.23441691416E+02  0.16348431619E+02  0.30397222768E+02  0.00000000000E+00 0.  1.
</event>
<event>
 5    1  0.1264731E-009  0.9118800E+02  0.7815553E-02  0.1125453E+00
         25   -1    0    0    0    0  0.00000000000E+00  0.00000000000E+00  0.99999998245E-14  0.12509000000E+03  0.12509000000E+03 0.  0.
        -13    1    3    3    0    0 -0.18555923970E+02  0.20576521734E+02 -0.26390380232E+02  0.38264590601E+02  0.10566000000E+00 0.  1.
         23    2    1    0    0    0  0.12650784200E+02 -0.24683112313E+02 -0.93387115097E+01  0.95823809490E+02  0.91245233071E+02 0.  0.
         13    1    3    3    0    0  0.31206708170E+02 -0.45259634047E+02  0.17051668722E+02  0.57559218889E+02  0.10566000000E+00 0. -1.
         22    1    1    0    0    0 -0.12650784200E+02  0.24683112313E+02  0.93387115097E+01  0.29266190510E+02  0.00000000000E+00 0. -1.
</event>
<event>
 5    1  0.1264731E-009  0.9118800E+02  0.7815553E-02  0.1125453E+00
         25   -1    0    0    0    0  0.00000000000E+00  0.00000000000E+00  0.99999998245E-14  0.12509000000E+03  0.12509000000E+03 0.  0.
        -13    1    3    3    0    0 -0.60683757480E+01  0.13682596023E+02 -0.33192110941E+02  0.36411069895E+02  0.10566000000E+00 0.  1.
         23    2    1    0    0    0  0.21333763160E+02 -0.18698899476E+02  0.80772230676E+01  0.95593901535E+02  0.90929501187E+02 0.  0.
         13    1    3    3    0    0  0.27402138908E+02 -0.32381495498E+02  0.41269334009E+02  0.59182831640E+02  0.10566000000E+00 0. -1.
         22    1    1    0    0    0 -0.21333763160E+02  0.18698899476E+02 -0.80772230676E+01  0.29496098465E+02  0.00000000000E+00 0. -1.
</event>
<event>
 5    1  0.1264731E-009  0.9118800E+02  0.7815553E-02  0.1125453E+00
         25   -1    0    0    0    0  0.00000000000E+00  0.00000000000E+00  0.99999998245E-14  0.12509000000E+03  0.12509000000E+03 0.  0.
        -13    1    3    3    0    0  0.36235434780E+02 -0.47540202776E+02  0.17783818556E+02  0.62364677343E+02  0.10566000000E+00 0. -1.
         23    2    1    0    0    0  0.15845406592E+02 -0.23671698445E+02  0.54789352419E+01  0.96082329485E+02  0.91598957912E+02 0.  0.
         13    1    3    3    0    0 -0.20390028188E+02  0.23868504331E+02 -0.12304883314E+02  0.33717652141E+02  0.10566000000E+00 0.  1.
         22    1    1    0    0    0 -0.15845406592E+02  0.23671698445E+02 -0.54789352419E+01  0.29007670515E+02  0.00000000000E+00 0. -1.
</event>
<event>
 5    1  0.1264731E-009  0.9118800E+02  0.7815553E-02  0.1125453E+00
         25   -1    0    0    0    0  0.00000000000E+00  0.00000000000E+00  0.99999998245E-14  0.12509000000E+03  0.12509000000E+03 0.  0.
        -13    1    3    3    0    0 -0.40893838805E+02  0.16894034271E+01  0.66782024728E+01  0.41470105961E+02  0.10566000000E+00 0. -1.
         23    2    1    0    0    0  0.22362386975E+01 -0.27067695636E+02 -0.10337294475E+02  0.96029363950E+02  0.91526598172E+02 0.  0.
         13    1    3    3    0    0  0.43130077502E+02 -0.28757099063E+02 -0.17015496948E+02  0.54559257989E+02  0.10566000000E+00 0.  1.
         22    1    1    0    0    0 -0.22362386975E+01  0.27067695636E+02  0.10337294475E+02  0.29060636050E+02  0.00000000000E+00 0.  1.
</event>
<event>
 5    1  0.1264731E-009  0.9118800E+02  0.7815553E-02  0.1125453E+00
         25   -1    0    0    0    0  0.00000000000E+00  0.00000000000E+00  0.99999998245E-14  0.12509000000E+03  0.12509000000E+03 0.  0.
        -13    1    3    3    0    0 -0.20815770676E+02 -0.21566004808E+01 -0.26772597638E+02  0.33981324029E+02  0.10566000000E+00 0. -1.
         23    2    1    0    0    0  0.11652514524E+02  0.19000400685E+02  0.20291980111E+02  0.94947658058E+02  0.90036087170E+02 0.  0.
         13    1    3    3    0    0  0.32468285200E+02  0.21157001166E+02  0.47064577749E+02  0.60966334029E+02  0.10566000000E+00 0.  1.
         22    1    1    0    0    0 -0.11652514524E+02 -0.19000400685E+02 -0.20291980111E+02  0.30142341942E+02  0.00000000000E+00 0.  1.
</event>
<event>
 5    1  0.1264731E-009  0.9118800E+02  0.7815553E-02  0.1125453E+00
         25   -1    0    0    0    0  0.00000000000E+00  0.00000000000E+00  0.99999998245E-14  0.12509000000E+03  0.12509000000E+03 0.  0.
        -13    1    3    3    0    0  0.15297167736E+02 -0.28705945384E+02 -0.39480943496E+02  0.51154576575E+02  0.10566000000E+00 0.  1.
         23    2    1    0    0    0  0.13157631082E+02  0.12424756110E+02 -0.23722676569E+02  0.95252721242E+02  0.90458928251E+02 0.  0.
         13    1    3    3    0    0 -0.21395366539E+01  0.41130701494E+02  0.15758266928E+02  0.44098144668E+02  0.10566000000E+00 0. -1.
         22    1    1    0    0    0 -0.13157631082E+02 -0.12424756110E+02  0.23722676569E+02  0.29837278758E+02  0.00000000000E+00 0.  1.
</event>
<event>
 5    1  0.1264731E-009  0.9118800E+02  0.7815553E-02  0.1125453E+00
         25   -1    0    0    0    0  0.00000000000E+00  0.00000000000E+00  0.99999998245E-14  0.12509000000E+03  0.12509000000E+03 0.  0.
        -13    1    3    3    0    0  0.19352970536E+02 -0.19465792623E+02 -0.45788886455E+02  0.53386213930E+02  0.10566000000E+00 0. -1.
         23    2    1    0    0    0  0.24074651923E+02 -0.14883049763E+02 -0.30570855189E+01  0.96621775480E+02  0.92332701085E+02 0.  0.
         13    1    3    3    0    0  0.47216813870E+01  0.45827428597E+01  0.42731800936E+02  0.43235561550E+02  0.10566000000E+00 0.  1.
         22    1    1    0    0    0 -0.24074651923E+02  0.14883049763E+02  0.30570855189E+01  0.28468224520E+02  0.00000000000E+00 0. -1.
</event>
<event>
 5    1  0.1264731E-009  0.9118800E+02  0.7815553E-02  0.1125453E+00
         25   -1    0    0    0    0  0.00000000000E+00  0.00000000000E+00  0.99999998245E-14  0.12509000000E+03  0.12509000000E+03 0.  0.
        -13    1    3    3    0    0  0.83471211008E+01  0.23325290812E+01 -0.49922413674E+02  0.50669257678E+02  0.10566000000E+00 0. -1.
         23    2    1    0    0    0 -0.16060348296E+02  0.18851082714E+02 -0.16000275750E+02  0.95605988554E+02  0.90946127551E+02 0.  0.
         13    1    3    3    0    0 -0.24407469396E+02  0.16518553633E+02  0.33922137924E+02  0.44936730876E+02  0.10566000000E+00 0.  1.
         22    1    1    0    0    0  0.16060348296E+02 -0.18851082714E+02  0.16000275750E+02  0.29484011446E+02  0.00000000000E+00 0.  1.
</event>
<event>
 5    1  0.1264731E-009  0.9118800E+02  0.7815553E-02  0.1125453E+00
         25   -1    0    0    0    0  0.00000000000E+00  0.00000000000E+00  0.99999998245E-14  0.12509000000E+03  0.12509000000E+03 0.  0.
        -13    1    3    3    0    0 -0.97056235938E+01  0.16211512400E+02  0.32158753438E+02  0.37298912187E+02  0.10566000000E+00 0. -1.
         23    2    1    0    0    0 -0.62950503632E+01  0.66441793859E+01 -0.26615633371E+02  0.96944579084E+02  0.92768996412E+02 0.  0.
         13    1    3    3    0    0  0.34105732306E+01 -0.95673330145E+01 -0.58774386809E+02  0.59645666897E+02  0.10566000000E+00 0.  1.
         22    1    1    0    0    0  0.62950503632E+01 -0.66441793859E+01  0.26615633371E+02  0.28145420916E+02  0.00000000000E+00 0.  1.
</event>
<event>
 5    1  0.1264731E-009  0.9118800E+02  0.7815553E-02  0.1125453E+00
         25   -1    0    0    0    0  0.00000000000E+00  0.00000000000E+00  0.99999998245E-14  0.12509000000E+03  0.12509000000E+03 0.  0.
        -13    1    3    3    0    0  0.20500767387E+02 -0.48230738675E+02 -0.20798638017E+02  0.56383331970E+02  0.10566000000E+00 0.  1.
         23    2    1    0    0    0  0.24741654475E+02 -0.15420422817E+02  0.85613497125E+00  0.95923720273E+02  0.91382100205E+02 0.  0.
         13    1    3    3    0    0  0.42408870881E+01  0.32810315858E+02  0.21654772988E+02  0.39540388304E+02  0.10566000000E+00 0. -1.
         22    1    1    0    0    0 -0.24741654475E+02  0.15420422817E+02 -0.85613497125E+00  0.29166279727E+02  0.00000000000E+00 0.  1.
</event>
<event>
 5    1  0.1264731E-009  0.9118800E+02  0.7815553E-02  0.1125453E+00
         25   -1    0    0    0    0  0.00000000000E+00  0.00000000000E+00  0.99999998245E-14  0.12509000000E+03  0.12509000000E+03 0.  0.
        -13    1    3    3    0    0 -0.16400670426E+02  0.14619235749E+02  0.35802633209E+02  0.42006472752E+02  0.10566000000E+00 0.  1.
         23    2    1    0    0    0  0.20907767906E+02 -0.16222639331E+02  0.10576228289E+02  0.96591484416E+02  0.92291654396E+02 0.  0.
         13    1    3    3    0    0  0.37308438332E+02 -0.30841875080E+02 -0.25226404920E+02  0.54585011664E+02  0.10566000000E+00 0. -1.
         22    1    1    0    0    0 -0.20907767906E+02  0.16222639331E+02 -0.10576228289E+02  0.28498515584E+02  0.00000000000E+00 0. -1.
</event>
<event>
 5    1  0.1264731E-009  0.9118800E+02  0.7815553E-02  0.1125453E+00
         25   -1    0    0    0    0  0.00000000000E+00  0.00000000000E+00  0.99999998245E-14  0.12509000000E+03  0.12509000000E+03 0.  0.
        -13    1    3    3    0    0 -0.22415662630E+02 -0.11166055115E+02  0.50245899884E+02  0.56140932813E+02  0.10566000000E+00 0.  1.
         23    2    1    0    0    0 -0.51560460130E+01 -0.23616572298E+02  0.17294110819E+02  0.95367726087E+02  0.90617821715E+02 0.  0.
         13    1    3    3    0    0  0.17259616617E+02 -0.12450517183E+02 -0.32951789065E+02  0.39226793273E+02  0.10566000000E+00 0. -1.
         22    1    1    0    0    0  0.51560460130E+01  0.23616572298E+02 -0.17294110819E+02  0.29722273913E+02  0.00000000000E+00 0.  1.
</event>
<event>
 5    1  0.1264731E-009  0.9118800E+02  0.7815553E-02  0.1125453E+00
         25   -1    0    0    0    0  0.00000000000E+00  0.00000000000E+00  0.99999998245E-14  0.12509000000E+03  0.12509000000E+03 0.  0.
        -13    1    3    3    0    0 -0.28545383916E+02  0.43267136103E+02 -0.19292098198E+02  0.55308952498E+02  0.10566000000E+00 0. -1.
         23    2    1    0    0    0 -0.27114255002E+02  0.99888223096E+01  0.39502074386E+01  0.95925577594E+02  0.91384642596E+02 0.  0.
         13    1    3    3    0    0  0.14311289140E+01 -0.33278313793E+02  0.23242305636E+02  0.40616625096E+02  0.10566000000E+00 0.  1.
         22    1    1    0    0    0  0.27114255002E+02 -0.99888223096E+01 -0.39502074386E+01  0.29164422406E+02  0.00000000000E+00 0. -1.
</event>
<event>
 5    1  0.1264731E-009  0.9118800E+02  0.7815553E-02  0.1125453E+00
         25   -1    0    0    0    0  0.00000000000E+00  0.00000000000E+00  0.99999998245E-14  0.12509000000E+03  0.12509000000E+03 0.  0.
        -13    1    3    3    0    0 -0.79889129799E+01  0.54774464158E+02 -0.17780739160E+02  0.58139749772E+02  0.10566000000E+00 0. -1.
         23    2    1    0    0    0  0.77485821758E+01  0.27335250550E+02  0.37891666901E+01  0.96426186008E+02  0.92067340113E+02 0.  0.
         13    1    3    3    0    0  0.15737495156E+02 -0.27439213608E+02  0.21569905851E+02  0.38286436236E+02  0.10566000000E+00 0.  1.
         22    1    1    0    0    0 -0.77485821758E+01 -0.27335250550E+02 -0.37891666901E+01  0.28663813992E+02  0.00000000000E+00 0. -1.
</event>
<event>
 4    1  0.1264731E-009  0.9118800E+02  0.7815553E-02  0.1125453E+00
         25   -1    0    0    0    0  0.00000000000E+00  0.00000000000E+00  0.99999998245E-14  0.12509000000E+03  0.12509000000E+03 0.  0.
        -13    1    1    0    0    0  0.36323416147E+02  0.17743817824E+02  0.30256327213E+02  0.50494456449E+02  0.10566000000E+00 0. -1.
         13    1    1    0    0    0  0.12635248429E+02 -0.14315756406E+02 -0.90745734321E+01  0.21141178570E+02  0.10566000000E+00 0.  1.
         22    1    1    0    0    0 -0.48958664577E+02 -0.34280614187E+01 -0.21181753781E+02  0.53454364981E+02  0.00000000000E+00 0. -1.
</event>
<event>
 5    1  0.1264731E-009  0.9118800E+02  0.7815553E-02  0.1125453E+00
         25   -1    0    0    0    0  0.00000000000E+00  0.00000000000E+00  0.99999998245E-14  0.12509000000E+03  0.12509000000E+03 0.  0.
        -13    1    3    3    0    0  0.15637909310E+02  0.21134137005E+02 -0.16437102721E+02  0.31006216545E+02  0.10566000000E+00 0. -1.
         23    2    1    0    0    0 -0.77393407271E+01 -0.32846018765E+02 -0.77102695146E+01  0.90474879033E+02  0.83591250358E+02 0.  0.
         13    1    3    3    0    0 -0.23377250037E+02 -0.53980155770E+02  0.87268332066E+01  0.59468662488E+02  0.10566000000E+00 0.  1.
         22    1    1    0    0    0  0.77393407271E+01  0.32846018765E+02  0.77102695146E+01  0.34615120967E+02  0.00000000000E+00 0.  1.
</event>
<event>
 5    1  0.1264731E-009  0.9118800E+02  0.7815553E-02  0.1125453E+00
         25   -1    0    0    0    0  0.00000000000E+00  0.00000000000E+00  0.99999998245E-14  0.12509000000E+03  0.12509000000E+03 0.  0.
        -13    1    3    3    0    0  0.31939126739E+02 -0.33229592237E+01 -0.14184069229E+02  0.35104826716E+02  0.10566000000E+00 0.  1.
         23    2    1    0    0    0 -0.25990550010E+02  0.12179300721E+02 -0.18536115114E+01  0.96327525637E+02  0.91933194569E+02 0.  0.
         13    1    3    3    0    0 -0.57929676749E+02  0.15502259944E+02  0.12330457717E+02  0.61222698921E+02  0.10566000000E+00 0. -1.
         22    1    1    0    0    0  0.25990550010E+02 -0.12179300721E+02  0.18536115114E+01  0.28762474363E+02  0.00000000000E+00 0. -1.
</event>
<event>
 5    1  0.1264731E-009  0.9118800E+02  0.7815553E-02  0.1125453E+00
         25   -1    0    0    0    0  0.00000000000E+00  0.00000000000E+00  0.99999998245E-14  0.12509000000E+03  0.12509000000E+03 0.  0.
        -13    1    3    3    0    0 -0.14175034467E+02 -0.21024292173E+02 -0.22972062926E+02  0.34215191109E+02  0.10566000000E+00 0.  1.
         23    2    1    0    0    0 -0.74776810000E+01  0.13059623181E+02  0.26471000696E+02  0.94640314474E+02  0.89608067578E+02 0.  0.
         13    1    3    3    0    0  0.66973534670E+01  0.34083915353E+02  0.49443063623E+02  0.60425123365E+02  0.10566000000E+00 0. -1.
         22    1    1    0    0    0  0.74776810000E+01 -0.13059623181E+02 -0.26471000696E+02  0.30449685526E+02  0.00000000000E+00 0. -1.
</event>
<event>
 5    1  0.1264731E-009  0.9118800E+02  0.7815553E-02  0.1125453E+00
         25   -1    0    0    0    0  0.00000000000E+00  0.00000000000E+00  0.99999998245E-14  0.12509000000E+03  0.12509000000E+03 0.  0.
        -13    1    3    3    0    0  0.17034896937E+02  0.26784595542E+02  0.19124800207E+02  0.37059026147E+02  0.10566000000E+00 0. -1.
         23    2    1    0    0    0 -0.16457808024E+02 -0.20740160461E+02  0.13212156325E+02  0.95499887198E+02  0.90800075326E+02 0.  0.
         13    1    3    3    0    0 -0.33492704961E+02 -0.47524756002E+02 -0.59126438819E+01  0.58440861051E+02  0.10566000000E+00 0.  1.
         22    1    1    0    0    0  0.16457808024E+02  0.20740160461E+02 -0.13212156325E+02  0.29590112802E+02  0.00000000000E+00 0.  1.
</event>
<event>
 5    1  0.1264731E-009  0.9118800E+02  0.7815553E-02  0.1125453E+00
         25   -1    0    0    0    0  0.00000000000E+00  0.00000000000E+00  0.99999998245E-14  0.12509000000E+03  0.12509000000E+03 0.  0.
        -13    1    3    3    0    0  0.87325085887E+01  0.19730260572E+02  0.30864077106E+02  0.37658230284E+02  0.10566000000E+00 0.  1.
         23    2    1    0    0    0  0.86126401248E+01 -0.27172281879E+02 -0.42786144832E+01  0.96266103415E+02  0.91849581667E+02 0.  0.
         13    1    3    3    0    0 -0.11986846389E+00 -0.46902542451E+02 -0.35142691590E+02  0.58607873131E+02  0.10566000000E+00 0. -1.
         22    1    1    0    0    0 -0.86126401248E+01  0.27172281879E+02  0.42786144832E+01  0.28823896585E+02  0.00000000000E+00 0. -1.
</event>
<event>
 5    1  0.1264731E-009  0.9118800E+02  0.7815553E-02  0.1125453E+00
         25   -1    0    0    0    0  0.00000000000E+00  0.00000000000E+00  0.99999998245E-14  0.12509000000E+03  0.12509000000E+03 0.  0.
        -13    1    3    3    0    0 -0.37314258338E+02 -0.14732011051E+02 -0.52594946740E+01  0.40460591607E+02  0.10566000000E+00 0. -1.
         23    2    1    0    0    0  0.16525003490E+02 -0.23387937098E+02  0.51984512891E+01  0.95985099419E+02  0.91466081542E+02 0.  0.
         13    1    3    3    0    0  0.53839261828E+02 -0.86559260461E+01  0.10457945963E+02  0.55524507812E+02  0.10566000000E+00 0.  1.
         22    1    1    0    0    0 -0.16525003490E+02  0.23387937098E+02 -0.51984512891E+01  0.29104900581E+02  0.00000000000E+00 0.  1.
</event>
<event>
 5    1  0.1264731E-009  0.9118800E+02  0.7815553E-02  0.1125453E+00
         25   -1    0    0    0    0  0.00000000000E+00  0.00000000000E+00  0.99999998245E-14  0.12509000000E+03  0.12509000000E+03 0.  0.
        -13    1    3    3    0    0  0.99879220656E+01 -0.13853903538E+02 -0.58179363722E+02  0.60634468396E+02  0.10566000000E+00 0. -1.
         23    2    1    0    0    0  0.15186606564E+02 -0.65932890077E+01 -0.24194375909E+02  0.95773241917E+02  0.91175882572E+02 0.  0.
         13    1    3    3    0    0  0.51986844986E+01  0.72606145302E+01  0.33984987813E+02  0.35138773521E+02  0.10566000000E+00 0.  1.
         22    1    1    0    0    0 -0.15186606564E+02  0.65932890077E+01  0.24194375909E+02  0.29316758083E+02  0.00000000000E+00 0. -1.
</event>
<event>
 5    1  0.1264731E-009  0.9118800E+02  0.7815553E-02  0.1125453E+00
         25   -1    0    0    0    0  0.00000000000E+00  0.00000000000E+00  0.99999998245E-14  0.12509000000E+03  0.12509000000E+03 0.  0.
        -13    1    3    3    0    0  0.40709596687E+02 -0.73621421717E+01  0.24727645719E+02  0.48196888142E+02  0.10566000000E+00 0. -1.
         23    2    1    0    0    0  0.16711932163E+02 -0.16985662089E+02 -0.15964006584E+02  0.96408108510E+02  0.92042775311E+02 0.  0.
         13    1    3    3    0    0 -0.23997664524E+02 -0.96235199176E+01 -0.40691652303E+02  0.48211220368E+02  0.10566000000E+00 0.  1.
         22    1    1    0    0    0 -0.16711932163E+02  0.16985662089E+02  0.15964006584E+02  0.28681891490E+02  0.00000000000E+00 0. -1.
</event>
<event>
 5    1  0.1264731E-009  0.9118800E+02  0.7815553E-02  0.1125453E+00
         25   -1    0    0    0    0  0.00000000000E+00  0.00000000000E+00  0.99999998245E-14  0.12509000000E+03  0.12509000000E+03 0.  0.
        -13    1    3    3    0    0 -0.37180510393E+02 -0.12059652185E+01  0.28368004296E+02  0.46782470402E+02  0.10566000000E+00 0. -1.
         23    2    1    0    0    0 -0.12273330219E+02  0.25577583033E+02 -0.49896815428E+01  0.96284717318E+02  0.91874928455E+02 0.  0.
         13    1    3    3    0    0  0.24907180174E+02  0.26783548252E+02 -0.33357685838E+02  0.49502246916E+02  0.10566000000E+00 0.  1.
         22    1    1    0    0    0  0.12273330219E+02 -0.25577583033E+02  0.49896815428E+01  0.28805282682E+02  0.00000000000E+00 0.  1.
</event>
<event>
 5    1  0.1264731E-009  0.9118800E+02  0.7815553E-02  0.1125453E+00
         25   -1    0    0    0    0  0.00000000000E+00  0.00000000000E+00  0.99999998245E-14  0.12509000000E+03  0.12509000000E+03 0.  0.
        -13    1    3    3    0    0  0.10115240056E+02 -0.35049296590E+01 -0.36610562062E+02  0.38143767929E+02  0.10566000000E+00 0.  1.
         23    2    1    0    0    0  0.18400428266E+02  0.20416464418E+01  0.21278381945E+02  0.96885149020E+02  0.92688826090E+02 0.  0.
         13    1    3    3    0    0  0.82851882103E+01  0.55465761008E+01  0.57888944008E+02  0.58741381091E+02  0.10566000000E+00 0. -1.
         22    1    1    0    0    0 -0.18400428266E+02 -0.20416464418E+01 -0.21278381945E+02  0.28204850980E+02  0.00000000000E+00 0. -1.
</event>
<event>
 5    1  0.1264731E-009  0.9118800E+02  0.7815553E-02  0.1125453E+00
         25   -1    0    0    0    0  0.00000000000E+00  0.00000000000E+00  0.99999998245E-14  0.12509000000E+03  0.12509000000E+03 0.  0.
        -13    1    3    3    0    0 -0.40869605043E+02 -0.16257124144E+02 -0.10858827933E+02  0.45305010870E+02  0.10566000000E+00 0.  1.
         23    2    1    0    0    0 -0.23907228097E+02  0.24461523447E+02  0.60365940285E+00  0.90880555554E+02  0.84196135829E+02 0.  0.
         13    1    3    3    0    0  0.16962376946E+02  0.40718647591E+02  0.11462487336E+02  0.45575544684E+02  0.10566000000E+00 0. -1.
         22    1    1    0    0    0  0.23907228097E+02 -0.24461523447E+02 -0.60365940285E+00  0.34209444446E+02  0.00000000000E+00 0.  1.
</event>
<event>
 5    1  0.1264731E-009  0.9118800E+02  0.7815553E-02  0.1125453E+00
         25   -1    0    0    0    0  0.00000000000E+00  0.00000000000E+00  0.99999998245E-14  0.12509000000E+03  0.12509000000E+03 0.  0.
        -13    1    3    3    0    0  0.16728496188E+02  0.56171985573E+02 -0.64140110326E+01  0.58960030949E+02  0.10566000000E+00 0. -1.
         23    2    1    0    0    0 -0.64511198958E+01  0.25908829296E+02 -0.83078538958E+01  0.97127438963E+02  0.93015238427E+02 0.  0.
         13    1    3    3    0    0 -0.23179616084E+02 -0.30263156277E+02 -0.18938428632E+01  0.38167408014E+02  0.10566000000E+00 0.  1.
         22    1    1    0    0    0  0.64511198958E+01 -0.25908829296E+02  0.83078538958E+01  0.27962561037E+02  0.00000000000E+00 0. -1.
</event>
<event>
 5    1  0.1264731E-009  0.9118800E+02  0.7815553E-02  0.1125453E+00
         25   -1    0    0    0    0  0.00000000000E+00  0.00000000000E+00  0.99999998245E-14  0.12509000000E+03  0.12509000000E+03 0.  0.
        -13    1    3    3    0    0  0.10861959654E+02  0.47359817377E+02  0.12628824610E+02  0.50203912642E+02  0.10566000000E+00 0.  1.
         23    2    1    0    0    0  0.20138179236E+02  0.24823839287E+01  0.19977119791E+02  0.96615558688E+02  0.92324278349E+02 0.  0.
         13    1    3    3    0    0  0.92762195815E+01 -0.44877433448E+02  0.73482951810E+01  0.46411646046E+02  0.10566000000E+00 0. -1.
         22    1    1    0    0    0 -0.20138179236E+02 -0.24823839287E+01 -0.19977119791E+02  0.28474441312E+02  0.00000000000E+00 0.  1.
</event>
<event>
 5    1  0.1264731E-009  0.9118800E+02  0.7815553E-02  0.1125453E+00
         25   -1    0    0    0    0  0.00000000000E+00  0.00000000000E+00  0.99999998245E-14  0.12509000000E+03  0.12509000000E+03 0.  0.
        -13    1    3    3    0    0  0.42671349030E+02  0.43472756268E+01  0.17372944835E+02  0.46277134848E+02  0.10566000000E+00 0. -1.
         23    2    1    0    0    0 -0.51464601367E+01 -0.79136332783E+01  0.26925468278E+02  0.96557694002E+02  0.92245844272E+02 0.  0.
         13    1    3    3    0    0 -0.47817809167E+02 -0.12260908905E+02  0.95525234427E+01  0.50280559154E+02  0.10566000000E+00 0.  1.
         22    1    1    0    0    0  0.51464601367E+01  0.79136332783E+01 -0.26925468278E+02  0.28532305998E+02  0.00000000000E+00 0.  1.
</event>
<event>
 5    1  0.1264731E-009  0.9118800E+02  0.7815553E-02  0.1125453E+00
         25   -1    0    0    0    0  0.00000000000E+00  0.00000000000E+00  0.99999998245E-14  0.12509000000E+03  0.12509000000E+03 0.  0.
        -13    1    3    3    0    0 -0.58144508386E+01  0.25101045060E+02 -0.30628331745E+02  0.40024694517E+02  0.10566000000E+00 0.  1.
         23    2    1    0    0    0  0.10834065406E+01  0.10616780985E+02  0.24993198604E+02  0.97913727542E+02  0.94066722365E+02 0.  0.
         13    1    3    3    0    0  0.68978573793E+01 -0.14484264075E+02  0.55621530349E+02  0.57889033025E+02  0.10566000000E+00 0. -1.
         22    1    1    0    0    0 -0.10834065406E+01 -0.10616780985E+02 -0.24993198604E+02  0.27176272458E+02  0.00000000000E+00 0. -1.
</event>
<event>
 5    1  0.1264731E-009  0.9118800E+02  0.7815553E-02  0.1125453E+00
         25   -1    0    0    0    0  0.00000000000E+00  0.00000000000E+00  0.99999998245E-14  0.12509000000E+03  0.12509000000E+03 0.  0.
        -13    1    3    3    0    0 -0.26444228210E+02 -0.73460048828E+00  0.50953892699E+02  0.57412082254E+02  0.10566000000E+00 0.  1.
         23    2    1    0    0    0 -0.16119326650E+02  0.17190163675E+02  0.30963979203E+02  0.86178530908E+02  0.76893671798E+02 0.  0.
         13    1    3    3    0    0  0.10324901560E+02  0.17924764164E+02 -0.19989913496E+02  0.28766448654E+02  0.10566000000E+00 0. -1.
         22    1    1    0    0    0  0.16119326650E+02 -0.17190163675E+02 -0.30963979203E+02  0.38911469092E+02  0.00000000000E+00 0. -1.
</event>
<event>
 5    1  0.1264731E-009  0.9118800E+02  0.7815553E-02  0.1125453E+00
         25   -1    0    0    0    0  0.00000000000E+00  0.00000000000E+00  0.99999998245E-14  0.12509000000E+03  0.12509000000E+03 0.  0.
        -13    1    3    3    0    0 -0.13925484082E+02  0.38871904262E+02 -0.38709759548E+02  0.56598592705E+02  0.10566000000E+00 0.  1.
         23    2    1    0    0    0 -0.23445688545E+02  0.89916205603E+01 -0.16067131551E+02  0.95278890193E+02  0.90495108422E+02 0.  0.
         13    1    3    3    0    0 -0.95202044633E+01 -0.29880283701E+02  0.22642627997E+02  0.38680297488E+02  0.10566000000E+00 0. -1.
         22    1    1    0    0    0  0.23445688545E+02 -0.89916205603E+01  0.16067131551E+02  0.29811109807E+02  0.00000000000E+00 0.  1.
</event>
<event>
 5    1  0.1264731E-009  0.9118800E+02  0.7815553E-02  0.1125453E+00
         25   -1    0    0    0    0  0.00000000000E+00  0.00000000000E+00  0.99999998245E-14  0.12509000000E+03  0.12509000000E+03 0.  0.
        -13    1    3    3    0    0  0.22723920783E+02 -0.31156495635E+02 -0.15871936042E+02  0.41701718355E+02  0.10566000000E+00 0. -1.
         23    2    1    0    0    0 -0.21653537966E+02  0.19942600873E-01 -0.19354301669E+02  0.96047529422E+02  0.91551421676E+02 0.  0.
         13    1    3    3    0    0 -0.44377458750E+02  0.31176438236E+02 -0.34823656273E+01  0.54345811067E+02  0.10566000000E+00 0.  1.
         22    1    1    0    0    0  0.21653537966E+02 -0.19942600873E-01  0.19354301669E+02  0.29042470578E+02  0.00000000000E+00 0.  1.
</event>
<event>
 5    1  0.1264731E-009  0.9118800E+02  0.7815553E-02  0.1125453E+00
         25   -1    0    0    0    0  0.00000000000E+00  0.00000000000E+00  0.99999998245E-14  0.12509000000E+03  0.12509000000E+03 0.  0.
        -13    1    3    3    0    0  0.18219206482E+02  0.35955504140E+02 -0.10202252264E+02  0.41579260192E+02  0.10566000000E+00 0.  1.
         23    2    1    0    0    0  0.11277627506E+02 -0.16496969370E+02 -0.21558703012E+02  0.95694208530E+02  0.91067387082E+02 0.  0.
         13    1    3    3    0    0 -0.69415789755E+01 -0.52452473510E+02 -0.11356450748E+02  0.54114948338E+02  0.10566000000E+00 0. -1.
         22    1    1    0    0    0 -0.11277627506E+02  0.16496969370E+02  0.21558703012E+02  0.29395791470E+02  0.00000000000E+00 0. -1.
</event>
<event>
 5    1  0.1264731E-009  0.9118800E+02  0.7815553E-02  0.1125453E+00
         25   -1    0    0    0    0  0.00000000000E+00  0.00000000000E+00  0.99999998245E-14  0.12509000000E+03  0.12509000000E+03 0.  0.
        -13    1    3    3    0    0  0.14924863377E+02 -0.29152644311E+02  0.17020961528E+02  0.36910059774E+02  0.10566000000E+00 0.  1.
         23    2    1    0    0    0 -0.32214775537E+01  0.25245541276E+02 -0.63899553260E+01  0.98849824677E+02  0.95303415666E+02 0.  0.
         13    1    3    3    0    0 -0.18146340931E+02  0.54398185586E+02 -0.23410916854E+02  0.61939764903E+02  0.10566000000E+00 0. -1.
         22    1    1    0    0    0  0.32214775537E+01 -0.25245541276E+02  0.63899553260E+01  0.26240175323E+02  0.00000000000E+00 0. -1.
</event>
<event>
 5    1  0.1264731E-009  0.9118800E+02  0.7815553E-02  0.1125453E+00
         25   -1    0    0    0    0  0.00000000000E+00  0.00000000000E+00  0.99999998245E-14  0.12509000000E+03  0.12509000000E+03 0.  0.
        -13    1    3    3    0    0  0.10969575735E+02  0.46552731519E+02 -0.74641467075E+01  0.48406745953E+02  0.10566000000E+00 0.  1.
         23    2    1    0    0    0 -0.23188241635E+02  0.20108678603E+02 -0.12605313442E+02  0.91909472092E+02  0.85711163964E+02 0.  0.
         13    1    3    3    0    0 -0.34157817370E+02 -0.26444052916E+02 -0.51411667349E+01  0.43502726139E+02  0.10566000000E+00 0. -1.
         22    1    1    0    0    0  0.23188241635E+02 -0.20108678603E+02  0.12605313442E+02  0.33180527908E+02  0.00000000000E+00 0.  1.
</event>
<event>
 5    1  0.1264731E-009  0.9118800E+02  0.7815553E-02  0.1125453E+00
         25   -1    0    0    0    0  0.00000000000E+00  0.00000000000E+00  0.99999998245E-14  0.12509000000E+03  0.12509000000E+03 0.  0.
        -13    1    3    3    0    0  0.50170188343E+02 -0.68045683079E+01  0.34346905086E+02  0.61180642374E+02  0.10566000000E+00 0. -1.
         23    2    1    0    0    0  0.19976372391E+02 -0.10897540568E+02  0.19715496247E+02  0.94981651713E+02  0.90083303256E+02 0.  0.
         13    1    3    3    0    0 -0.30193815952E+02 -0.40929722604E+01 -0.14631408839E+02  0.33801009339E+02  0.10566000000E+00 0.  1.
         22    1    1    0    0    0 -0.19976372391E+02  0.10897540568E+02 -0.19715496247E+02  0.30108348287E+02  0.00000000000E+00 0. -1.
</event>
<event>
 5    1  0.1264731E-009  0.9118800E+02  0.7815553E-02  0.1125453E+00
         25   -1    0    0    0    0  0.00000000000E+00  0.00000000000E+00  0.99999998245E-14  0.12509000000E+03  0.12509000000E+03 0.  0.
        -13    1    3    3    0    0  0.88188170629E+00  0.26379222316E+02 -0.44528963836E+02  0.51763702241E+02  0.10566000000E+00 0.  1.
         23    2    1    0    0    0  0.61391789445E+01 -0.11407442570E+02 -0.29686612780E+02  0.92699966927E+02  0.86857179471E+02 0.  0.
         13    1    3    3    0    0  0.52572972382E+01 -0.37786664887E+02  0.14842351056E+02  0.40936264686E+02  0.10566000000E+00 0. -1.
         22    1    1    0    0    0 -0.61391789445E+01  0.11407442570E+02  0.29686612780E+02  0.32390033073E+02  0.00000000000E+00 0.  1.
</event>
<event>
 5    1  0.1264731E-009  0.9118800E+02  0.7815553E-02  0.1125453E+00
         25   -1    0    0    0    0  0.00000000000E+00  0.00000000000E+00  0.99999998245E-14  0.12509000000E+03  0.12509000000E+03 0.  0.
        -13    1    3    3    0    0 -0.20643349409E+02  0.16420429668E+02  0.22337941821E+02  0.34565491377E+02  0.10566000000E+00 0. -1.
         23    2    1    0    0    0  0.49448622699E+01 -0.57717014666E+01 -0.28466866489E+02  0.95626010311E+02  0.90973661901E+02 0.  0.
         13    1    3    3    0    0  0.25588211679E+02 -0.22192131134E+02 -0.50804808309E+02  0.61060518935E+02  0.10566000000E+00 0.  1.
         22    1    1    0    0    0 -0.49448622699E+01  0.57717014666E+01  0.28466866489E+02  0.29463989689E+02  0.00000000000E+00 0.  1.
</event>
<event>
 5    1  0.1264731E-009  0.9118800E+02  0.7815553E-02  0.1125453E+00
         25   -1    0    0    0    0  0.00000000000E+00  0.00000000000E+00  0.99999998245E-14  0.12509000000E+03  0.12509000000E+03 0.  0.
        -13    1    3    3    0    0  0.31470484208E+02  0.11445311275E+02  0.36616560727E+02  0.49620260076E+02  0.10566000000E+00 0.  1.
         23    2    1    0    0    0  0.45552369226E+01  0.26924042650E+02 -0.20159709992E+00  0.97782585303E+02  0.93892167358E+02 0.  0.
         13    1    3    3    0    0 -0.26915247286E+02  0.15478731375E+02 -0.36818157827E+02  0.48162325227E+02  0.10566000000E+00 0. -1.
         22    1    1    0    0    0 -0.45552369226E+01 -0.26924042650E+02  0.20159709992E+00  0.27307414697E+02  0.00000000000E+00 0. -1.
</event>
<event>
 5    1  0.1264731E-009  0.9118800E+02  0.7815553E-02  0.1125453E+00
         25   -1    0    0    0    0  0.00000000000E+00  0.00000000000E+00  0.99999998245E-14  0.12509000000E+03  0.12509000000E+03 0.  0.
        -13    1    3    3    0    0  0.15267560973E+02  0.19267181731E+01  0.50590143964E+02  0.52878960763E+02  0.10566000000E+00 0.  1.
         23    2    1    0    0    0  0.14033112440E+02 -0.22201540773E+02  0.18883168437E+02  0.92741727903E+02  0.86917301998E+02 0.  0.
         13    1    3    3    0    0 -0.12344485333E+01 -0.24128258946E+02 -0.31706975527E+02  0.39862767140E+02  0.10566000000E+00 0. -1.
         22    1    1    0    0    0 -0.14033112440E+02  0.22201540773E+02 -0.18883168437E+02  0.32348272097E+02  0.00000000000E+00 0.  1.
</event>
<event>
 5    1  0.1264731E-009  0.9118800E+02  0.7815553E-02  0.1125453E+00
         25   -1    0    0    0    0  0.00000000000E+00  0.00000000000E+00  0.99999998245E-14  0.12509000000E+03  0.12509000000E+03 0.  0.
        -13    1    3    3    0    0  0.22410348464E+02  0.43501220917E+02  0.54836932788E+01  0.49240856974E+02  0.10566000000E+00 0. -1.
         23    2    1    0    0    0 -0.48252731287E+01  0.30883358644E+02 -0.19460422592E+02  0.88269175058E+02  0.80222653385E+02 0.  0.
         13    1    3    3    0    0 -0.27235621592E+02 -0.12617862273E+02 -0.24944115871E+02  0.39028318084E+02  0.10566000000E+00 0.  1.
         22    1    1    0    0    0  0.48252731287E+01 -0.30883358644E+02  0.19460422592E+02  0.36820824942E+02  0.00000000000E+00 0. -1.
</event>
<event>
 4    1  0.1264731E-009  0.9118800E+02  0.7815553E-02  0.1125453E+00
         25   -1    0    0    0    0  0.00000000000E+00  0.00000000000E+00  0.99999998245E-14  0.12509000000E+03  0.12509000000E+03 0.  0.
        -13    1    1    0    0    0  0.29917526384E+02  0.10787294058E+02  0.25455433802E+02  0.40735910105E+02  0.10566000000E+00 0.  1.
         13    1    1    0    0    0  0.20428378172E+02 -0.18715237410E+02 -0.17503034993E+02  0.32771117529E+02  0.10566000000E+00 0. -1.
         22    1    1    0    0    0 -0.50345904556E+02  0.79279433523E+01 -0.79523988083E+01  0.51582972367E+02  0.00000000000E+00 0. -1.
</event>
<event>
 5    1  0.1264731E-009  0.9118800E+02  0.7815553E-02  0.1125453E+00
         25   -1    0    0    0    0  0.00000000000E+00  0.00000000000E+00  0.99999998245E-14  0.12509000000E+03  0.12509000000E+03 0.  0.
        -13    1    3    3    0    0  0.45409879610E+01 -0.34861296323E+02  0.76761718558E+00  0.35164342069E+02  0.10566000000E+00 0.  1.
         23    2    1    0    0    0 -0.14754140994E+02  0.23372401144E+02 -0.57556543182E+01  0.96857370502E+02  0.92651329468E+02 0.  0.
         13    1    3    3    0    0 -0.19295128955E+02  0.58233697467E+02 -0.65232715038E+01  0.61693028433E+02  0.10566000000E+00 0. -1.
         22    1    1    0    0    0  0.14754140994E+02 -0.23372401144E+02  0.57556543182E+01  0.28232629498E+02  0.00000000000E+00 0. -1.
</event>
<event>
 5    1  0.1264731E-009  0.9118800E+02  0.7815553E-02  0.1125453E+00
         25   -1    0    0    0    0  0.00000000000E+00  0.00000000000E+00  0.99999998245E-14  0.12509000000E+03  0.12509000000E+03 0.  0.
        -13    1    3    3    0    0 -0.51172852565E+02 -0.15528073425E+01 -0.30343112561E+02  0.59512920398E+02  0.10566000000E+00 0. -1.
         23    2    1    0    0    0 -0.32118812163E+02  0.16322740118E+01 -0.32813230893E+01  0.92762774718E+02  0.86947586965E+02 0.  0.
         13    1    3    3    0    0  0.19054040402E+02  0.31850813543E+01  0.27061789472E+02  0.33249854321E+02  0.10566000000E+00 0.  1.
         22    1    1    0    0    0  0.32118812163E+02 -0.16322740118E+01  0.32813230893E+01  0.32327225282E+02  0.00000000000E+00 0. -1.
</event>
<event>
 5    1  0.1264731E-009  0.9118800E+02  0.7815553E-02  0.1125453E+00
         25   -1    0    0    0    0  0.00000000000E+00  0.00000000000E+00  0.99999998245E-14  0.12509000000E+03  0.12509000000E+03 0.  0.
        -13    1    3    3    0    0  0.56236406604E+02  0.14292500484E+02  0.80858802072E+01  0.58584994841E+02  0.10566000000E+00 0.  1.
         23    2    1    0    0    0  0.22773845287E+02  0.17488550203E+02 -0.71614205050E+01  0.95496362830E+02  0.90795219878E+02 0.  0.
         13    1    3    3    0    0 -0.33462561317E+02  0.31960497190E+01 -0.15247300712E+02  0.36911367988E+02  0.10566000000E+00 0. -1.
         22    1    1    0    0    0 -0.22773845287E+02 -0.17488550203E+02  0.71614205050E+01  0.29593637170E+02  0.00000000000E+00 0.  1.
</event>
<event>
 5    1  0.1264731E-009  0.9118800E+02  0.7815553E-02  0.1125453E+00
         25   -1    0    0    0    0  0.00000000000E+00  0.00000000000E+00  0.99999998245E-14  0.12509000000E+03  0.12509000000E+03 0.  0.
        -13    1    3    3    0    0 -0.73881184019E+01  0.18205188199E+02 -0.36987278334E+02  0.41881775195E+02  0.10566000000E+00 0. -1.
         23    2    1    0    0    0  0.26607765171E+02  0.13937034327E+02  0.34188666750E+01  0.94859175622E+02  0.89913071669E+02 0.  0.
         13    1    3    3    0    0  0.33995883573E+02 -0.42681538716E+01  0.40406145009E+02  0.52977400426E+02  0.10566000000E+00 0.  1.
         22    1    1    0    0    0 -0.26607765171E+02 -0.13937034327E+02 -0.34188666750E+01  0.30230824378E+02  0.00000000000E+00 0.  1.
</event>
<event>
 5    1  0.1264731E-009  0.9118800E+02  0.7815553E-02  0.1125453E+00
         25   -1    0    0    0    0  0.00000000000E+00  0.00000000000E+00  0.99999998245E-14  0.12509000000E+03  0.12509000000E+03 0.  0.
        -13    1    3    3    0    0  0.51401644228E+01  0.34836417635E+02  0.86503468927E+01  0.36260680486E+02  0.10566000000E+00 0. -1.
         23    2    1    0    0    0  0.12894821195E+02 -0.10694639922E+02 -0.26110871215E+02  0.94066954819E+02  0.88804068919E+02 0.  0.
         13    1    3    3    0    0  0.77546567720E+01 -0.45531057556E+02 -0.34761218108E+02  0.57806274333E+02  0.10566000000E+00 0.  1.
         22    1    1    0    0    0 -0.12894821195E+02  0.10694639922E+02  0.26110871215E+02  0.31023045181E+02  0.00000000000E+00 0.  1.
</event>
<event>
 5    1  0.1264731E-009  0.9118800E+02  0.7815553E-02  0.1125453E+00
         25   -1    0    0    0    0  0.00000000000E+00  0.00000000000E+00  0.99999998245E-14  0.12509000000E+03  0.12509000000E+03 0.  0.
        -13    1    3    3    0    0 -0.31272374274E+02 -0.20628944990E+02  0.38758028928E+02  0.53904644833E+02  0.10566000000E+00 0.  1.
         23    2    1    0    0    0 -0.21274775763E+02 -0.19564703536E+02 -0.22233477010E+01  0.96101433578E+02  0.91625043260E+02 0.  0.
         13    1    3    3    0    0  0.99975985113E+01  0.10642414536E+01 -0.40981376629E+02  0.42196788744E+02  0.10566000000E+00 0. -1.
         22    1    1    0    0    0  0.21274775763E+02  0.19564703536E+02  0.22233477010E+01  0.28988566422E+02  0.00000000000E+00 0.  1.
</event>
<event>
 5    1  0.1264731E-009  0.9118800E+02  0.7815553E-02  0.1125453E+00
         25   -1    0    0    0    0  0.00000000000E+00  0.00000000000E+00  0.99999998245E-14  0.12509000000E+03  0.12509000000E+03 0.  0.
        -13    1    3    3    0    0 -0.44843915867E+02 -0.25985252201E+02  0.28003243316E+02  0.58910125806E+02  0.10566000000E+00 0. -1.
         23    2    1    0    0    0 -0.26583435900E+02 -0.90871722631E+01 -0.81774449264E+00  0.96984405005E+02  0.92822682271E+02 0.  0.
         13    1    3    3    0    0  0.18260479967E+02  0.16898079938E+02 -0.28820987808E+02  0.38074279199E+02  0.10566000000E+00 0.  1.
         22    1    1    0    0    0  0.26583435900E+02  0.90871722631E+01  0.81774449264E+00  0.28105594995E+02  0.00000000000E+00 0. -1.
</event>
<event>
 5    1  0.1264731E-009  0.9118800E+02  0.7815553E-02  0.1125453E+00
         25   -1    0    0    0    0  0.00000000000E+00  0.00000000000E+00  0.99999998245E-14  0.12509000000E+03  0.12509000000E+03 0.  0.
        -13    1    3    3    0    0  0.30830141977E+02  0.46317127127E+02  0.22385050559E+02  0.59973957449E+02  0.10566000000E+00 0. -1.
         23    2    1    0    0    0  0.27888921251E+01  0.26881838007E+02  0.10219405932E+02  0.96196274184E+02  0.91754431912E+02 0.  0.
         13    1    3    3    0    0 -0.28041249852E+02 -0.19435289120E+02 -0.12165644627E+02  0.36222316735E+02  0.10566000000E+00 0.  1.
         22    1    1    0    0    0 -0.27888921251E+01 -0.26881838007E+02 -0.10219405932E+02  0.28893725816E+02  0.00000000000E+00 0. -1.
</event>
<event>
 5    1  0.1264731E-009  0.9118800E+02  0.7815553E-02  0.1125453E+00
         25   -1    0    0    0    0  0.00000000000E+00  0.00000000000E+00  0.99999998245E-14  0.12509000000E+03  0.12509000000E+03 0.  0.
        -13    1    3    3    0    0 -0.11078546763E+02 -0.49174769888E+02 -0.33751484180E+02  0.60663547871E+02  0.10566000000E+00 0.  1.
         23    2    1    0    0    0 -0.62286317524E+01 -0.24488200622E+02 -0.41976289762E+01  0.99475786910E+02  0.96121507838E+02 0.  0.
         13    1    3    3    0    0  0.48499150107E+01  0.24686569266E+02  0.29553855203E+02  0.38812239038E+02  0.10566000000E+00 0. -1.
         22    1    1    0    0    0  0.62286317524E+01  0.24488200622E+02  0.41976289762E+01  0.25614213090E+02  0.00000000000E+00 0.  1.
</event>
<event>
 5    1  0.1264731E-009  0.9118800E+02  0.7815553E-02  0.1125453E+00
         25   -1    0    0    0    0  0.00000000000E+00  0.00000000000E+00  0.99999998245E-14  0.12509000000E+03  0.12509000000E+03 0.  0.
        -13    1    3    3    0    0 -0.97837849904E+01  0.33218400814E+02  0.17653244767E+02  0.38869432929E+02  0.10566000000E+00 0. -1.
         23    2    1    0    0    0 -0.26295664024E+01 -0.25036646302E+02  0.97568480280E+01  0.98091030372E+02  0.94302205056E+02 0.  0.
         13    1    3    3    0    0  0.71542185880E+01 -0.58255047117E+02 -0.78963967393E+01  0.59221597443E+02  0.10566000000E+00 0.  1.
         22    1    1    0    0    0  0.26295664024E+01  0.25036646302E+02 -0.97568480280E+01  0.26998969628E+02  0.00000000000E+00 0.  1.
</event>
<event>
 5    1  0.1264731E-009  0.9118800E+02  0.7815553E-02  0.1125453E+00
         25   -1    0    0    0    0  0.00000000000E+00  0.00000000000E+00  0.99999998245E-14  0.12509000000E+03  0.12509000000E+03 0.  0.
        -13    1    3    3    0    0  0.43230654970E+01  0.40068172078E+02  0.14784189918E+02  0.42927039783E+02  0.10566000000E+00 0.  1.
         23    2    1    0    0    0  0.26054804695E+02  0.58550406920E+01 -0.16120642594E+02  0.93896900333E+02  0.88564205102E+02 0.  0.
         13    1    3    3    0    0  0.21731739198E+02 -0.34213131386E+02 -0.30904832513E+02  0.50969860550E+02  0.10566000000E+00 0. -1.
         22    1    1    0    0    0 -0.26054804695E+02 -0.58550406920E+01  0.16120642594E+02  0.31193099667E+02  0.00000000000E+00 0. -1.
</event>
<event>
 5    1  0.1264731E-009  0.9118800E+02  0.7815553E-02  0.1125453E+00
         25   -1    0    0    0    0  0.00000000000E+00  0.00000000000E+00  0.99999998245E-14  0.12509000000E+03  0.12509000000E+03 0.  0.
        -13    1    3    3    0    0 -0.81720352026E+01 -0.26358903933E+01  0.46159901525E+02  0.46951866314E+02  0.10566000000E+00 0. -1.
         23    2    1    0    0    0  0.16664984903E+02  0.21129302130E+02  0.11320010376E+02  0.95895620999E+02  0.91343627920E+02 0.  0.
         13    1    3    3    0    0  0.24837020106E+02  0.23765192523E+02 -0.34839891149E+02  0.48943754685E+02  0.10566000000E+00 0.  1.
         22    1    1    0    0    0 -0.16664984903E+02 -0.21129302130E+02 -0.11320010376E+02  0.29194379001E+02  0.00000000000E+00 0.  1.
</event>
<event>
 5    1  0.1264731E-009  0.9118800E+02  0.7815553E-02  0.1125453E+00
         25   -1    0    0    0    0  0.00000000000E+00  0.00000000000E+00  0.99999998245E-14  0.12509000000E+03  0.12509000000E+03 0.  0.
        -13    1    3    3    0    0 -0.35343400031E+02 -0.33444487758E+01  0.42966881998E+02  0.55736033013E+02  0.10566000000E+00 0.  1.
         23    2    1    0    0    0  0.28545272729E+00 -0.88133427371E+01  0.29638532645E+02  0.94167530649E+02  0.88945627873E+02 0.  0.
         13    1    3    3    0    0  0.35628852758E+02 -0.54688939613E+01 -0.13328349353E+02  0.38431497636E+02  0.10566000000E+00 0. -1.
         22    1    1    0    0    0 -0.28545272729E+00  0.88133427371E+01 -0.29638532645E+02  0.30922469351E+02  0.00000000000E+00 0.  1.
</event>
<event>
 5    1  0.1264731E-009  0.9118800E+02  0.7815553E-02  0.1125453E+00
         25   -1    0    0    0    0  0.00000000000E+00  0.00000000000E+00  0.99999998245E-14  0.12509000000E+03  0.12509000000E+03 0.  0.
        -13    1    3    3    0    0  0.22142851931E+02  0.19723691671E+02  0.49893610147E+02  0.58040618556E+02  0.10566000000E+00 0.  1.
         23    2    1    0    0    0  0.60185675266E+01  0.24136846663E+02  0.16934805586E+02  0.94996841938E+02  0.90104393988E+02 0.  0.
         13    1    3    3    0    0 -0.16124284404E+02  0.44131549923E+01 -0.32958804561E+02  0.36956223382E+02  0.10566000000E+00 0. -1.
         22    1    1    0    0    0 -0.60185675266E+01 -0.24136846663E+02 -0.16934805586E+02  0.30093158062E+02  0.00000000000E+00 0.  1.
</event>
<event>
 5    1  0.1264731E-009  0.9118800E+02  0.7815553E-02  0.1125453E+00
         25   -1    0    0    0    0  0.00000000000E+00  0.00000000000E+00  0.99999998245E-14  0.12509000000E+03  0.12509000000E+03 0.  0.
        -13    1    3    3    0    0  0.28145132208E+02  0.25080807824E+02  0.22127235951E+01  0.37763774942E+02  0.10566000000E+00 0.  1.
         23    2    1    0    0    0 -0.25189151367E+01 -0.25135085342E+02 -0.10114336109E+02  0.97879390975E+02  0.94021050484E+02 0.  0.
         13    1    3    3    0    0 -0.30664047345E+02 -0.50215893166E+02 -0.12327059704E+02  0.60115616033E+02  0.10566000000E+00 0. -1.
         22    1    1    0    0    0  0.25189151367E+01  0.25135085342E+02  0.10114336109E+02  0.27210609025E+02  0.00000000000E+00 0. -1.
</event>
<event>
 5    1  0.1264731E-009  0.9118800E+02  0.7815553E-02  0.1125453E+00
         25   -1    0    0    0    0  0.00000000000E+00  0.00000000000E+00  0.99999998245E-14  0.12509000000E+03  0.12509000000E+03 0.  0.
        -13    1    3    3    0    0 -0.35384546358E+02  0.15060027092E+01 -0.27667751223E+02  0.44942738979E+02  0.10566000000E+00 0.  1.
         23    2    1    0    0    0  0.80122973216E+01  0.24456614172E+02 -0.13447314995E+02  0.96052900184E+02  0.91558759647E+02 0.  0.
         13    1    3    3    0    0  0.43396843680E+02  0.22950611463E+02  0.14220436228E+02  0.51110161206E+02  0.10566000000E+00 0. -1.
         22    1    1    0    0    0 -0.80122973216E+01 -0.24456614172E+02  0.13447314995E+02  0.29037099816E+02  0.00000000000E+00 0.  1.
</event>
<event>
 5    1  0.1264731E-009  0.9118800E+02  0.7815553E-02  0.1125453E+00
         25   -1    0    0    0    0  0.00000000000E+00  0.00000000000E+00  0.99999998245E-14  0.12509000000E+03  0.12509000000E+03 0.  0.
        -13    1    3    3    0    0  0.27040613405E+02 -0.31785510337E+02  0.72016426737E+01  0.42348415105E+02  0.10566000000E+00 0.  1.
         23    2    1    0    0    0  0.79346772475E+01  0.16268940832E+02 -0.17725087626E+02  0.99755906960E+02  0.96485360046E+02 0.  0.
         13    1    3    3    0    0 -0.19105936158E+02  0.48054451169E+02 -0.24926730300E+02  0.57407491855E+02  0.10566000000E+00 0. -1.
         22    1    1    0    0    0 -0.79346772475E+01 -0.16268940832E+02  0.17725087626E+02  0.25334093040E+02  0.00000000000E+00 0. -1.
</event>
<event>
 5    1  0.1264731E-009  0.9118800E+02  0.7815553E-02  0.1125453E+00
         25   -1    0    0    0    0  0.00000000000E+00  0.00000000000E+00  0.99999998245E-14  0.12509000000E+03  0.12509000000E+03 0.  0.
        -13    1    3    3    0    0  0.33747183808E+02  0.31034122335E+02 -0.37743257691E+01  0.46002672348E+02  0.10566000000E+00 0. -1.
         23    2    1    0    0    0  0.26631043928E+02 -0.15942092841E+02 -0.56035730642E+01  0.93550138618E+02  0.88073069548E+02 0.  0.
         13    1    3    3    0    0 -0.71161398799E+01 -0.46976215176E+02 -0.18292472951E+01  0.47547466271E+02  0.10566000000E+00 0.  1.
         22    1    1    0    0    0 -0.26631043928E+02  0.15942092841E+02  0.56035730642E+01  0.31539861382E+02  0.00000000000E+00 0.  1.
</event>
<event>
 5    1  0.1264731E-009  0.9118800E+02  0.7815553E-02  0.1125453E+00
         25   -1    0    0    0    0  0.00000000000E+00  0.00000000000E+00  0.99999998245E-14  0.12509000000E+03  0.12509000000E+03 0.  0.
        -13    1    3    3    0    0 -0.39744945311E+02  0.24289704560E+02 -0.32717673978E+02  0.56921944626E+02  0.10566000000E+00 0.  1.
         23    2    1    0    0    0 -0.65994044488E+01  0.25732597444E+02 -0.13024237387E+02  0.95503694556E+02  0.90805320351E+02 0.  0.
         13    1    3    3    0    0  0.33145540862E+02  0.14428928841E+01  0.19693436591E+02  0.38581749931E+02  0.10566000000E+00 0. -1.
         22    1    1    0    0    0  0.65994044488E+01 -0.25732597444E+02  0.13024237387E+02  0.29586305444E+02  0.00000000000E+00 0.  1.
</event>
<event>
 5    1  0.1264731E-009  0.9118800E+02  0.7815553E-02  0.1125453E+00
         25   -1    0    0    0    0  0.00000000000E+00  0.00000000000E+00  0.99999998245E-14  0.12509000000E+03  0.12509000000E+03 0.  0.
        -13    1    3    3    0    0  0.81261895549E+01  0.38842816195E+02  0.95841375379E+00  0.39695453740E+02  0.10566000000E+00 0.  1.
         23    2    1    0    0    0 -0.16711406948E+02 -0.47172250921E+01 -0.23808318030E+02  0.95622062472E+02  0.90968233407E+02 0.  0.
         13    1    3    3    0    0 -0.24837596503E+02 -0.43560041287E+02 -0.24766731784E+02  0.55926608732E+02  0.10566000000E+00 0. -1.
         22    1    1    0    0    0  0.16711406948E+02  0.47172250921E+01  0.23808318030E+02  0.29467937528E+02  0.00000000000E+00 0. -1.
</event>
<event>
 5    1  0.1264731E-009  0.9118800E+02  0.7815553E-02  0.1125453E+00
         25   -1    0    0    0    0  0.00000000000E+00  0.00000000000E+00  0.99999998245E-14  0.12509000000E+03  0.12509000000E+03 0.  0.
        -13    1    3    3    0    0  0.20109165576E+02  0.29764500282E+02 -0.44387585098E+01  0.36194167463E+02  0.10566000000E+00 0.  1.
         23    2    1    0    0    0 -0.13447997402E+02 -0.16569311380E+02 -0.20378672278E+02  0.95582695861E+02  0.90914084445E+02 0.  0.
         13    1    3    3    0    0 -0.33557162978E+02 -0.46333811662E+02 -0.15939913768E+02  0.59388528398E+02  0.10566000000E+00 0. -1.
         22    1    1    0    0    0  0.13447997402E+02  0.16569311380E+02  0.20378672278E+02  0.29507304139E+02  0.00000000000E+00 0. -1.
</event>
<event>
 5    1  0.1264731E-009  0.9118800E+02  0.7815553E-02  0.1125453E+00
         25   -1    0    0    0    0  0.00000000000E+00  0.00000000000E+00  0.99999998245E-14  0.12509000000E+03  0.12509000000E+03 0.  0.
        -13    1    3    3    0    0  0.10920378499E+02 -0.71876651263E+01 -0.45802326996E+02  0.47631728068E+02  0.10566000000E+00 0. -1.
         23    2    1    0    0    0  0.23752535529E+02  0.16541352817E+02 -0.62984536685E+01  0.95467882998E+02  0.90755974285E+02 0.  0.
         13    1    3    3    0    0  0.12832157030E+02  0.23729017943E+02  0.39503873327E+02  0.47836154930E+02  0.10566000000E+00 0.  1.
         22    1    1    0    0    0 -0.23752535529E+02 -0.16541352817E+02  0.62984536685E+01  0.29622117002E+02  0.00000000000E+00 0. -1.
</event>
<event>
 5    1  0.1264731E-009  0.9118800E+02  0.7815553E-02  0.1125453E+00
         25   -1    0    0    0    0  0.00000000000E+00  0.00000000000E+00  0.99999998245E-14  0.12509000000E+03  0.12509000000E+03 0.  0.
        -13    1    3    3    0    0  0.81595417411E+01 -0.31700953913E+02  0.10092386628E+02  0.34254868739E+02  0.10566000000E+00 0.  1.
         23    2    1    0    0    0 -0.31865112890E+02  0.16506112628E+01 -0.12208643049E+02  0.90926263346E+02  0.84264016424E+02 0.  0.
         13    1    3    3    0    0 -0.40024654631E+02  0.33351565176E+02 -0.22301029677E+02  0.56671394607E+02  0.10566000000E+00 0. -1.
         22    1    1    0    0    0  0.31865112890E+02 -0.16506112628E+01  0.12208643049E+02  0.34163736654E+02  0.00000000000E+00 0. -1.
</event>
<event>
 5    1  0.1264731E-009  0.9118800E+02  0.7815553E-02  0.1125453E+00
         25   -1    0    0    0    0  0.00000000000E+00  0.00000000000E+00  0.99999998245E-14  0.12509000000E+03  0.12509000000E+03 0.  0.
        -13    1    3    3    0    0  0.32620245457E+02  0.10082077685E+02  0.10393931455E+02  0.35689966086E+02  0.10566000000E+00 0.  1.
         23    2    1    0    0    0 -0.24724035678E+02  0.13513298262E+02 -0.76320156634E+01  0.95898651398E+02  0.91347777788E+02 0.  0.
         13    1    3    3    0    0 -0.57344281134E+02  0.34312205774E+01 -0.18025947118E+02  0.60208685312E+02  0.10566000000E+00 0. -1.
         22    1    1    0    0    0  0.24724035678E+02 -0.13513298262E+02  0.76320156634E+01  0.29191348602E+02  0.00000000000E+00 0. -1.
</event>
<event>
 5    1  0.1264731E-009  0.9118800E+02  0.7815553E-02  0.1125453E+00
         25   -1    0    0    0    0  0.00000000000E+00  0.00000000000E+00  0.99999998245E-14  0.12509000000E+03  0.12509000000E+03 0.  0.
        -13    1    3    3    0    0  0.63545072674E+01 -0.50823461781E+02  0.17824446626E+02  0.54232149982E+02  0.10566000000E+00 0. -1.
         23    2    1    0    0    0  0.19721607507E+02 -0.10662087987E+02  0.17644572126E+02  0.96560141108E+02  0.92249162611E+02 0.  0.
         13    1    3    3    0    0  0.13367100239E+02  0.40161373795E+02 -0.17987449996E+00  0.42327991126E+02  0.10566000000E+00 0.  1.
         22    1    1    0    0    0 -0.19721607507E+02  0.10662087987E+02 -0.17644572126E+02  0.28529858892E+02  0.00000000000E+00 0. -1.
</event>
<event>
 5    1  0.1264731E-009  0.9118800E+02  0.7815553E-02  0.1125453E+00
         25   -1    0    0    0    0  0.00000000000E+00  0.00000000000E+00  0.99999998245E-14  0.12509000000E+03  0.12509000000E+03 0.  0.
        -13    1    3    3    0    0  0.57964444853E+02  0.10283168737E+02  0.17217197638E+02  0.61335662423E+02  0.10566000000E+00 0. -1.
         23    2    1    0    0    0  0.19662410009E+02 -0.41083802340E+01  0.23663630648E+01  0.10486405553E+03  0.10289500140E+03 0.  0.
         13    1    3    3    0    0 -0.38302034844E+02 -0.14391548971E+02 -0.14850834573E+02  0.43528393108E+02  0.10566000000E+00 0.  1.
         22    1    1    0    0    0 -0.19662410009E+02  0.41083802340E+01 -0.23663630648E+01  0.20225944469E+02  0.00000000000E+00 0. -1.
</event>
<event>
 5    1  0.1264731E-009  0.9118800E+02  0.7815553E-02  0.1125453E+00
         25   -1    0    0    0    0  0.00000000000E+00  0.00000000000E+00  0.99999998245E-14  0.12509000000E+03  0.12509000000E+03 0.  0.
        -13    1    3    3    0    0 -0.94347147096E+01  0.41500027662E+02 -0.39989632687E+02  0.58399041294E+02  0.10566000000E+00 0.  1.
         23    2    1    0    0    0  0.66079394827E+01  0.28451723632E+02 -0.11285202988E+02  0.93776724088E+02  0.88394302601E+02 0.  0.
         13    1    3    3    0    0  0.16042654192E+02 -0.13048304030E+02  0.28704429698E+02  0.35377682795E+02  0.10566000000E+00 0. -1.
         22    1    1    0    0    0 -0.66079394827E+01 -0.28451723632E+02  0.11285202988E+02  0.31313275912E+02  0.00000000000E+00 0.  1.
</event>
<event>
 5    1  0.1264731E-009  0.9118800E+02  0.7815553E-02  0.1125453E+00
         25   -1    0    0    0    0  0.00000000000E+00  0.00000000000E+00  0.99999998245E-14  0.12509000000E+03  0.12509000000E+03 0.  0.
        -13    1    3    3    0    0  0.27883637989E+02 -0.24280036455E+02 -0.19102833853E+02  0.41616665688E+02  0.10566000000E+00 0. -1.
         23    2    1    0    0    0 -0.11875795040E+02 -0.22068592988E+02  0.16542844975E+02  0.95061296662E+02  0.90193830715E+02 0.  0.
         13    1    3    3    0    0 -0.39759433028E+02  0.22114434671E+01  0.35645678827E+02  0.53444630975E+02  0.10566000000E+00 0.  1.
         22    1    1    0    0    0  0.11875795040E+02  0.22068592988E+02 -0.16542844975E+02  0.30028703338E+02  0.00000000000E+00 0.  1.
</event>
<event>
 5    1  0.1264731E-009  0.9118800E+02  0.7815553E-02  0.1125453E+00
         25   -1    0    0    0    0  0.00000000000E+00  0.00000000000E+00  0.99999998245E-14  0.12509000000E+03  0.12509000000E+03 0.  0.
        -13    1    3    3    0    0  0.14682713475E+02  0.27733255650E+02 -0.18685800173E+02  0.36522401839E+02  0.10566000000E+00 0. -1.
         23    2    1    0    0    0 -0.28618773367E+02 -0.44353200149E+01  0.54540881614E+01  0.95620467762E+02  0.90966040502E+02 0.  0.
         13    1    3    3    0    0 -0.43301486842E+02 -0.32168575665E+02  0.24139888334E+02  0.59098065923E+02  0.10566000000E+00 0.  1.
         22    1    1    0    0    0  0.28618773367E+02  0.44353200149E+01 -0.54540881614E+01  0.29469532238E+02  0.00000000000E+00 0.  1.
</event>
<event>
 5    1  0.1264731E-009  0.9118800E+02  0.7815553E-02  0.1125453E+00
         25   -1    0    0    0    0  0.00000000000E+00  0.00000000000E+00  0.99999998245E-14  0.12509000000E+03  0.12509000000E+03 0.  0.
        -13    1    3    3    0    0  0.27403033288E+02  0.16949208629E+02 -0.43494691219E+02  0.54129485817E+02  0.10566000000E+00 0. -1.
         23    2    1    0    0    0  0.21320562437E+02 -0.13313108825E+02 -0.17835101323E+02  0.94269615700E+02  0.89089081013E+02 0.  0.
         13    1    3    3    0    0 -0.60824708508E+01 -0.30262317454E+02  0.25659589896E+02  0.40140129883E+02  0.10566000000E+00 0.  1.
         22    1    1    0    0    0 -0.21320562437E+02  0.13313108825E+02  0.17835101323E+02  0.30820384300E+02  0.00000000000E+00 0. -1.
</event>
<event>
 5    1  0.1264731E-009  0.9118800E+02  0.7815553E-02  0.1125453E+00
         25   -1    0    0    0    0  0.00000000000E+00  0.00000000000E+00  0.99999998245E-14  0.12509000000E+03  0.12509000000E+03 0.  0.
        -13    1    3    3    0    0 -0.58315573883E+01  0.34399049385E+02 -0.12804719427E+02  0.37165490227E+02  0.10566000000E+00 0. -1.
         23    2    1    0    0    0  0.24331506707E+02 -0.12659490804E+02  0.75336011821E+01  0.96646370260E+02  0.92366015458E+02 0.  0.
         13    1    3    3    0    0  0.30163064095E+02 -0.47058540188E+02  0.20338320609E+02  0.59480880033E+02  0.10566000000E+00 0.  1.
         22    1    1    0    0    0 -0.24331506707E+02  0.12659490804E+02 -0.75336011821E+01  0.28443629740E+02  0.00000000000E+00 0.  1.
</event>
<event>
 5    1  0.1264731E-009  0.9118800E+02  0.7815553E-02  0.1125453E+00
         25   -1    0    0    0    0  0.00000000000E+00  0.00000000000E+00  0.99999998245E-14  0.12509000000E+03  0.12509000000E+03 0.  0.
        -13    1    3    3    0    0 -0.39123228855E+02 -0.29920526114E+02  0.15476803443E+02  0.51627584950E+02  0.10566000000E+00 0. -1.
         23    2    1    0    0    0 -0.10849223343E+02  0.60978674255E+00  0.27977490021E+02  0.95076379177E+02  0.90214746259E+02 0.  0.
         13    1    3    3    0    0  0.28274005512E+02  0.30530312856E+02  0.12500686578E+02  0.43448794227E+02  0.10566000000E+00 0.  1.
         22    1    1    0    0    0  0.10849223343E+02 -0.60978674255E+00 -0.27977490021E+02  0.30013620823E+02  0.00000000000E+00 0. -1.
</event>
<event>
 5    1  0.1264731E-009  0.9118800E+02  0.7815553E-02  0.1125453E+00
         25   -1    0    0    0    0  0.00000000000E+00  0.00000000000E+00  0.99999998245E-14  0.12509000000E+03  0.12509000000E+03 0.  0.
        -13    1    3    3    0    0 -0.38857752331E+02  0.90372952696E+00 -0.23884780777E+01  0.38941721005E+02  0.10566000000E+00 0.  1.
         23    2    1    0    0    0  0.94842569833E+01 -0.60119225489E+01  0.26938079142E+02  0.95905167448E+02  0.91356700313E+02 0.  0.
         13    1    3    3    0    0  0.48342009314E+02 -0.69156520759E+01  0.29326557220E+02  0.56963446442E+02  0.10566000000E+00 0. -1.
         22    1    1    0    0    0 -0.94842569833E+01  0.60119225489E+01 -0.26938079142E+02  0.29184832552E+02  0.00000000000E+00 0. -1.
</event>
<event>
 5    1  0.1264731E-009  0.9118800E+02  0.7815553E-02  0.1125453E+00
         25   -1    0    0    0    0  0.00000000000E+00  0.00000000000E+00  0.99999998245E-14  0.12509000000E+03  0.12509000000E+03 0.  0.
        -13    1    3    3    0    0 -0.55119278690E+02 -0.46899616522E+01  0.18064306940E+02  0.58193306942E+02  0.10566000000E+00 0. -1.
         23    2    1    0    0    0 -0.16293096456E+02  0.15220465855E+01  0.21957220062E+02  0.97705677281E+02  0.93789648907E+02 0.  0.
         13    1    3    3    0    0  0.38826182234E+02  0.62120082376E+01  0.38929131225E+01  0.39512370339E+02  0.10566000000E+00 0.  1.
         22    1    1    0    0    0  0.16293096456E+02 -0.15220465855E+01 -0.21957220062E+02  0.27384322719E+02  0.00000000000E+00 0. -1.
</event>
<event>
 5    1  0.1264731E-009  0.9118800E+02  0.7815553E-02  0.1125453E+00
         25   -1    0    0    0    0  0.00000000000E+00  0.00000000000E+00  0.99999998245E-14  0.12509000000E+03  0.12509000000E+03 0.  0.
        -13    1    3    3    0    0  0.18612451547E+02  0.34090150043E+02  0.36706245961E+02  0.53440820906E+02  0.10566000000E+00 0. -1.
         23    2    1    0    0    0  0.24791414982E+02  0.16903059626E+02 -0.70918644636E+00  0.95076159411E+02  0.90214441534E+02 0.  0.
         13    1    3    3    0    0  0.61789634349E+01 -0.17187090418E+02 -0.37415432407E+02  0.41635338505E+02  0.10566000000E+00 0.  1.
         22    1    1    0    0    0 -0.24791414982E+02 -0.16903059626E+02  0.70918644636E+00  0.30013840589E+02  0.00000000000E+00 0. -1.
</event>
<event>
 5    1  0.1264731E-009  0.9118800E+02  0.7815553E-02  0.1125453E+00
         25   -1    0    0    0    0  0.00000000000E+00  0.00000000000E+00  0.99999998245E-14  0.12509000000E+03  0.12509000000E+03 0.  0.
        -13    1    3    3    0    0 -0.20180353474E+02  0.27652155916E+01 -0.28101645701E+02  0.34707445005E+02  0.10566000000E+00 0.  1.
         23    2    1    0    0    0  0.20928903415E+02 -0.21823816084E+01  0.18517718593E+02  0.97059878889E+02  0.92924336965E+02 0.  0.
         13    1    3    3    0    0  0.41109256890E+02 -0.49475972001E+01  0.46619364294E+02  0.62352433884E+02  0.10566000000E+00 0. -1.
         22    1    1    0    0    0 -0.20928903415E+02  0.21823816084E+01 -0.18517718593E+02  0.28030121111E+02  0.00000000000E+00 0. -1.
</event>
<event>
 5    1  0.1264731E-009  0.9118800E+02  0.7815553E-02  0.1125453E+00
         25   -1    0    0    0    0  0.00000000000E+00  0.00000000000E+00  0.99999998245E-14  0.12509000000E+03  0.12509000000E+03 0.  0.
        -13    1    3    3    0    0  0.12238799890E+02  0.19214812135E+02  0.28749176490E+02  0.36681378668E+02  0.10566000000E+00 0.  1.
         23    2    1    0    0    0  0.13030081372E+01  0.12713908950E+02 -0.27719767879E+02  0.94565799073E+02  0.89503986012E+02 0.  0.
         13    1    3    3    0    0 -0.10935791753E+02 -0.65009031845E+01 -0.56468944368E+02  0.57884420405E+02  0.10566000000E+00 0. -1.
         22    1    1    0    0    0 -0.13030081372E+01 -0.12713908950E+02  0.27719767879E+02  0.30524200927E+02  0.00000000000E+00 0. -1.
</event>
<event>
 5    1  0.1264731E-009  0.9118800E+02  0.7815553E-02  0.1125453E+00
         25   -1    0    0    0    0  0.00000000000E+00  0.00000000000E+00  0.99999998245E-14  0.12509000000E+03  0.12509000000E+03 0.  0.
        -13    1    3    3    0    0 -0.42434527330E+01  0.41307855721E+02  0.25042755400E+02  0.48492232341E+02  0.10566000000E+00 0.  1.
         23    2    1    0    0    0  0.22477808012E+02  0.61530398978E+01 -0.41381346002E+01  0.10142069686E+03  0.98620088426E+02 0.  0.
         13    1    3    3    0    0  0.26721260745E+02 -0.35154815823E+02 -0.29180890001E+02  0.52928464522E+02  0.10566000000E+00 0. -1.
         22    1    1    0    0    0 -0.22477808012E+02 -0.61530398978E+01  0.41381346002E+01  0.23669303137E+02  0.00000000000E+00 0. -1.
</event>
<event>
 5    1  0.1264731E-009  0.9118800E+02  0.7815553E-02  0.1125453E+00
         25   -1    0    0    0    0  0.00000000000E+00  0.00000000000E+00  0.99999998245E-14  0.12509000000E+03  0.12509000000E+03 0.  0.
        -13    1    3    3    0    0  0.29592504756E+02  0.17850949992E+02 -0.14283649872E+02  0.37395274716E+02  0.10566000000E+00 0.  1.
         23    2    1    0    0    0 -0.72470622732E+01  0.86531650245E+01  0.28403326867E+02  0.94526195367E+02  0.89448619089E+02 0.  0.
         13    1    3    3    0    0 -0.36839567030E+02 -0.91977849678E+01  0.42686976739E+02  0.57130920651E+02  0.10566000000E+00 0. -1.
         22    1    1    0    0    0  0.72470622732E+01 -0.86531650245E+01 -0.28403326867E+02  0.30563804633E+02  0.00000000000E+00 0.  1.
</event>
<event>
 5    1  0.1264731E-009  0.9118800E+02  0.7815553E-02  0.1125453E+00
         25   -1    0    0    0    0  0.00000000000E+00  0.00000000000E+00  0.99999998245E-14  0.12509000000E+03  0.12509000000E+03 0.  0.
        -13    1    3    3    0    0  0.14490726966E+02  0.32178708858E+02 -0.23457565485E+02  0.42375924937E+02  0.10566000000E+00 0.  1.
         23    2    1    0    0    0 -0.20534686940E+02 -0.97628406622E+01 -0.15443820480E+02  0.97603675827E+02  0.93653507774E+02 0.  0.
         13    1    3    3    0    0 -0.35025413905E+02 -0.41941549520E+02  0.80137450050E+01  0.55227750890E+02  0.10566000000E+00 0. -1.
         22    1    1    0    0    0  0.20534686940E+02  0.97628406622E+01  0.15443820480E+02  0.27486324173E+02  0.00000000000E+00 0. -1.
</event>
<event>
 5    1  0.1264731E-009  0.9118800E+02  0.7815553E-02  0.1125453E+00
         25   -1    0    0    0    0  0.00000000000E+00  0.00000000000E+00  0.99999998245E-14  0.12509000000E+03  0.12509000000E+03 0.  0.
        -13    1    3    3    0    0  0.28662151714E+02  0.17440730562E+02 -0.43375695365E+02  0.54837579595E+02  0.10566000000E+00 0.  1.
         23    2    1    0    0    0  0.19186132354E+01  0.24388865948E+02 -0.88153441015E+01  0.99085997412E+02  0.95612900450E+02 0.  0.
         13    1    3    3    0    0 -0.26743538479E+02  0.69481353862E+01  0.34560351264E+02  0.44248417816E+02  0.10566000000E+00 0. -1.
         22    1    1    0    0    0 -0.19186132354E+01 -0.24388865948E+02  0.88153441015E+01  0.26004002588E+02  0.00000000000E+00 0.  1.
</event>
<event>
 5    1  0.1264731E-009  0.9118800E+02  0.7815553E-02  0.1125453E+00
         25   -1    0    0    0    0  0.00000000000E+00  0.00000000000E+00  0.99999998245E-14  0.12509000000E+03  0.12509000000E+03 0.  0.
        -13    1    3    3    0    0 -0.53686768350E+01 -0.35454712691E+02 -0.10031046562E+02  0.37235633500E+02  0.10566000000E+00 0.  1.
         23    2    1    0    0    0  0.89874487248E+01  0.13732376536E+02  0.21984775271E+02  0.97654935873E+02  0.93721949173E+02 0.  0.
         13    1    3    3    0    0  0.14356125560E+02  0.49187089227E+02  0.32015821833E+02  0.60419302374E+02  0.10566000000E+00 0. -1.
         22    1    1    0    0    0 -0.89874487248E+01 -0.13732376536E+02 -0.21984775271E+02  0.27435064127E+02  0.00000000000E+00 0. -1.
</event>
<event>
 5    1  0.1264731E-009  0.9118800E+02  0.7815553E-02  0.1125453E+00
         25   -1    0    0    0    0  0.00000000000E+00  0.00000000000E+00  0.99999998245E-14  0.12509000000E+03  0.12509000000E+03 0.  0.
        -13    1    3    3    0    0  0.71434147910E-01  0.48027267573E+02 -0.17457072852E+02  0.51101703396E+02  0.10566000000E+00 0. -1.
         23    2    1    0    0    0  0.16898966947E+02  0.21517800646E+02  0.12957543250E+02  0.94816434706E+02  0.89853589437E+02 0.  0.
         13    1    3    3    0    0  0.16827532799E+02 -0.26509466927E+02  0.30414616102E+02  0.43714731310E+02  0.10566000000E+00 0.  1.
         22    1    1    0    0    0 -0.16898966947E+02 -0.21517800646E+02 -0.12957543250E+02  0.30273565294E+02  0.00000000000E+00 0. -1.
</event>
<event>
 5    1  0.1264731E-009  0.9118800E+02  0.7815553E-02  0.1125453E+00
         25   -1    0    0    0    0  0.00000000000E+00  0.00000000000E+00  0.99999998245E-14  0.12509000000E+03  0.12509000000E+03 0.  0.
        -13    1    3    3    0    0  0.42217786557E+02 -0.27517448446E+02  0.33792390994E+02  0.60675269459E+02  0.10566000000E+00 0.  1.
         23    2    1    0    0    0  0.26484500692E+02 -0.84948978060E+01  0.85269249242E+01  0.95998755367E+02  0.91484755657E+02 0.  0.
         13    1    3    3    0    0 -0.15733285865E+02  0.19022550640E+02 -0.25265466069E+02  0.35323485908E+02  0.10566000000E+00 0. -1.
         22    1    1    0    0    0 -0.26484500692E+02  0.84948978060E+01 -0.85269249242E+01  0.29091244633E+02  0.00000000000E+00 0.  1.
</event>
<event>
 5    1  0.1264731E-009  0.9118800E+02  0.7815553E-02  0.1125453E+00
         25   -1    0    0    0    0  0.00000000000E+00  0.00000000000E+00  0.99999998245E-14  0.12509000000E+03  0.12509000000E+03 0.  0.
        -13    1    3    3    0    0  0.27969512755E+02 -0.20845054838E+02 -0.62772700029E+01  0.35443267875E+02  0.10566000000E+00 0.  1.
         23    2    1    0    0    0  0.82231130705E+01  0.30415928439E+02 -0.13428866140E+02  0.90839704568E+02  0.84135421725E+02 0.  0.
         13    1    3    3    0    0 -0.19746399684E+02  0.51260983277E+02 -0.71515961370E+01  0.55396436693E+02  0.10566000000E+00 0. -1.
         22    1    1    0    0    0 -0.82231130705E+01 -0.30415928439E+02  0.13428866140E+02  0.34250295432E+02  0.00000000000E+00 0. -1.
</event>
<event>
 5    1  0.1264731E-009  0.9118800E+02  0.7815553E-02  0.1125453E+00
         25   -1    0    0    0    0  0.00000000000E+00  0.00000000000E+00  0.99999998245E-14  0.12509000000E+03  0.12509000000E+03 0.  0.
        -13    1    3    3    0    0  0.29016906197E+02  0.89202962317E+01 -0.19759263869E+02  0.36221432920E+02  0.10566000000E+00 0.  1.
         23    2    1    0    0    0 -0.51880278992E+01  0.84591878473E+01  0.28236606278E+02  0.95160425553E+02  0.90331208144E+02 0.  0.
         13    1    3    3    0    0 -0.34204934096E+02 -0.46110838444E+00  0.47995870147E+02  0.58938992633E+02  0.10566000000E+00 0. -1.
         22    1    1    0    0    0  0.51880278992E+01 -0.84591878473E+01 -0.28236606278E+02  0.29929574447E+02  0.00000000000E+00 0. -1.
</event>
<event>
 5    1  0.1264731E-009  0.9118800E+02  0.7815553E-02  0.1125453E+00
         25   -1    0    0    0    0  0.00000000000E+00  0.00000000000E+00  0.99999998245E-14  0.12509000000E+03  0.12509000000E+03 0.  0.
        -13    1    3    3    0    0 -0.28348480927E+02 -0.47087690652E+00 -0.29599276629E+02  0.40987637611E+02  0.10566000000E+00 0. -1.
         23    2    1    0    0    0  0.34312393666E+01  0.29458971558E+02  0.27246150125E+01  0.95306985784E+02  0.90533936197E+02 0.  0.
         13    1    3    3    0    0  0.31779720294E+02  0.29929848464E+02  0.32323891641E+02  0.54319348173E+02  0.10566000000E+00 0.  1.
         22    1    1    0    0    0 -0.34312393666E+01 -0.29458971558E+02 -0.27246150125E+01  0.29783014216E+02  0.00000000000E+00 0. -1.
</event>
<event>
 5    1  0.1264731E-009  0.9118800E+02  0.7815553E-02  0.1125453E+00
         25   -1    0    0    0    0  0.00000000000E+00  0.00000000000E+00  0.99999998245E-14  0.12509000000E+03  0.12509000000E+03 0.  0.
        -13    1    3    3    0    0 -0.21878016281E+02 -0.11757837917E+02 -0.31107499780E+02  0.39806809160E+02  0.10566000000E+00 0.  1.
         23    2    1    0    0    0  0.25821941711E+02  0.83800671333E+01 -0.15223382830E+02  0.93965257694E+02  0.88660701947E+02 0.  0.
         13    1    3    3    0    0  0.47699957992E+02  0.20137905050E+02  0.15884116950E+02  0.54158448534E+02  0.10566000000E+00 0. -1.
         22    1    1    0    0    0 -0.25821941711E+02 -0.83800671333E+01  0.15223382830E+02  0.31124742306E+02  0.00000000000E+00 0. -1.
</event>
<event>
 5    1  0.1264731E-009  0.9118800E+02  0.7815553E-02  0.1125453E+00
         25   -1    0    0    0    0  0.00000000000E+00  0.00000000000E+00  0.99999998245E-14  0.12509000000E+03  0.12509000000E+03 0.  0.
        -13    1    3    3    0    0 -0.99541012295E+01  0.29735377604E+02  0.29846373735E+02  0.43290807358E+02  0.10566000000E+00 0. -1.
         23    2    1    0    0    0  0.24085351502E+02  0.25247839827E+02 -0.20252918845E+01  0.90137755721E+02  0.83085231097E+02 0.  0.
         13    1    3    3    0    0  0.34039452731E+02 -0.44875377767E+01 -0.31871665620E+02  0.46846948363E+02  0.10566000000E+00 0.  1.
         22    1    1    0    0    0 -0.24085351502E+02 -0.25247839827E+02  0.20252918845E+01  0.34952244279E+02  0.00000000000E+00 0. -1.
</event>
<event>
 5    1  0.1264731E-009  0.9118800E+02  0.7815553E-02  0.1125453E+00
         25   -1    0    0    0    0  0.00000000000E+00  0.00000000000E+00  0.99999998245E-14  0.12509000000E+03  0.12509000000E+03 0.  0.
        -13    1    3    3    0    0 -0.35180490615E+01 -0.11467892367E+02 -0.55351536740E+02  0.56636498904E+02  0.10566000000E+00 0. -1.
         23    2    1    0    0    0 -0.19228186487E+02  0.15323094018E+01 -0.21073641471E+02  0.96521319727E+02  0.92196505732E+02 0.  0.
         13    1    3    3    0    0 -0.15710137426E+02  0.13000201769E+02  0.34277895269E+02  0.39884820823E+02  0.10566000000E+00 0.  1.
         22    1    1    0    0    0  0.19228186487E+02 -0.15323094018E+01  0.21073641471E+02  0.28568680273E+02  0.00000000000E+00 0. -1.
</event>
<event>
 5    1  0.1264731E-009  0.9118800E+02  0.7815553E-02  0.1125453E+00
         25   -1    0    0    0    0  0.00000000000E+00  0.00000000000E+00  0.99999998245E-14  0.12509000000E+03  0.12509000000E+03 0.  0.
        -13    1    3    3    0    0 -0.74517417603E+01  0.26630401527E+02  0.26243661298E+02  0.38124108685E+02  0.10566000000E+00 0.  1.
         23    2    1    0    0    0 -0.11590959237E+02 -0.26849294312E+02  0.10332002198E+02  0.94074113579E+02  0.88814152224E+02 0.  0.
         13    1    3    3    0    0 -0.41392174767E+01 -0.53479695838E+02 -0.15911659100E+02  0.55950004894E+02  0.10566000000E+00 0. -1.
         22    1    1    0    0    0  0.11590959237E+02  0.26849294312E+02 -0.10332002198E+02  0.31015886421E+02  0.00000000000E+00 0.  1.
</event>
<event>
 5    1  0.1264731E-009  0.9118800E+02  0.7815553E-02  0.1125453E+00
         25   -1    0    0    0    0  0.00000000000E+00  0.00000000000E+00  0.99999998245E-14  0.12509000000E+03  0.12509000000E+03 0.  0.
        -13    1    3    3    0    0 -0.73306244498E+01  0.28140463744E+01 -0.57833042189E+02  0.58363763113E+02  0.10566000000E+00 0. -1.
         23    2    1    0    0    0  0.75252480171E+01  0.13148819611E+02 -0.24829599726E+02  0.96003407945E+02  0.91491117053E+02 0.  0.
         13    1    3    3    0    0  0.14855872467E+02  0.10334773236E+02  0.33003442463E+02  0.37639644832E+02  0.10566000000E+00 0.  1.
         22    1    1    0    0    0 -0.75252480171E+01 -0.13148819611E+02  0.24829599726E+02  0.29086592055E+02  0.00000000000E+00 0. -1.
</event>
<event>
 5    1  0.1264731E-009  0.9118800E+02  0.7815553E-02  0.1125453E+00
         25   -1    0    0    0    0  0.00000000000E+00  0.00000000000E+00  0.99999998245E-14  0.12509000000E+03  0.12509000000E+03 0.  0.
        -13    1    3    3    0    0 -0.33126990113E+01  0.79875360000E+01 -0.22931875909E+02  0.24508300692E+02  0.10566000000E+00 0. -1.
         23    2    1    0    0    0  0.16383411276E+02  0.28116007486E+02  0.27641180124E+02  0.82393854031E+02  0.70468335452E+02 0.  0.
         13    1    3    3    0    0  0.19696110287E+02  0.20128471486E+02  0.50573056032E+02  0.57885553338E+02  0.10566000000E+00 0.  1.
         22    1    1    0    0    0 -0.16383411276E+02 -0.28116007486E+02 -0.27641180124E+02  0.42696145969E+02  0.00000000000E+00 0.  1.
</event>
<event>
 5    1  0.1264731E-009  0.9118800E+02  0.7815553E-02  0.1125453E+00
         25   -1    0    0    0    0  0.00000000000E+00  0.00000000000E+00  0.99999998245E-14  0.12509000000E+03  0.12509000000E+03 0.  0.
        -13    1    3    3    0    0  0.12427453099E+02  0.33129837211E+02 -0.17680193165E+02  0.39555380147E+02  0.10566000000E+00 0. -1.
         23    2    1    0    0    0 -0.10836714293E+02 -0.18604873890E+02 -0.19114914618E+02  0.96298409735E+02  0.91893569131E+02 0.  0.
         13    1    3    3    0    0 -0.23264167392E+02 -0.51734711102E+02 -0.14347214526E+01  0.56743029588E+02  0.10566000000E+00 0.  1.
         22    1    1    0    0    0  0.10836714293E+02  0.18604873890E+02  0.19114914618E+02  0.28791590265E+02  0.00000000000E+00 0.  1.
</event>
<event>
 5    1  0.1264731E-009  0.9118800E+02  0.7815553E-02  0.1125453E+00
         25   -1    0    0    0    0  0.00000000000E+00  0.00000000000E+00  0.99999998245E-14  0.12509000000E+03  0.12509000000E+03 0.  0.
        -13    1    3    3    0    0  0.42450723717E+01 -0.75408931380E+01 -0.41973220166E+02  0.42856132395E+02  0.10566000000E+00 0.  1.
         23    2    1    0    0    0 -0.69949687651E+01 -0.27896230433E+02  0.55834826230E+01  0.95793165041E+02  0.91203212279E+02 0.  0.
         13    1    3    3    0    0 -0.11240041137E+02 -0.20355337295E+02  0.47556702789E+02  0.52937032646E+02  0.10566000000E+00 0. -1.
         22    1    1    0    0    0  0.69949687651E+01  0.27896230433E+02 -0.55834826230E+01  0.29296834959E+02  0.00000000000E+00 0. -1.
</event>
<event>
 5    1  0.1264731E-009  0.9118800E+02  0.7815553E-02  0.1125453E+00
         25   -1    0    0    0    0  0.00000000000E+00  0.00000000000E+00  0.99999998245E-14  0.12509000000E+03  0.12509000000E+03 0.  0.
        -13    1    3    3    0    0 -0.52961873370E+02  0.69022648933E+01  0.25658098246E+02  0.59253273844E+02  0.10566000000E+00 0.  1.
         23    2    1    0    0    0 -0.19659713323E+02 -0.67090115793E+01  0.21036873195E+02  0.95525406342E+02  0.90835224768E+02 0.  0.
         13    1    3    3    0    0  0.33302160047E+02 -0.13611276473E+02 -0.46212250513E+01  0.36272132499E+02  0.10566000000E+00 0. -1.
         22    1    1    0    0    0  0.19659713323E+02  0.67090115793E+01 -0.21036873195E+02  0.29564593658E+02  0.00000000000E+00 0.  1.
</event>
<event>
 5    1  0.1264731E-009  0.9118800E+02  0.7815553E-02  0.1125453E+00
         25   -1    0    0    0    0  0.00000000000E+00  0.00000000000E+00  0.99999998245E-14  0.12509000000E+03  0.12509000000E+03 0.  0.
        -13    1    3    3    0    0 -0.22048238197E+02 -0.16798773269E+02 -0.12570124790E+02  0.30435880013E+02  0.10566000000E+00 0.  1.
         23    2    1    0    0    0  0.63091402651E+01  0.32922606772E+02  0.68412675747E+01  0.90877338169E+02  0.84191355631E+02 0.  0.
         13    1    3    3    0    0  0.28357378462E+02  0.49721380041E+02  0.19411392364E+02  0.60441458155E+02  0.10566000000E+00 0. -1.
         22    1    1    0    0    0 -0.63091402651E+01 -0.32922606772E+02 -0.68412675747E+01  0.34212661831E+02  0.00000000000E+00 0. -1.
</event>
<event>
 5    1  0.1264731E-009  0.9118800E+02  0.7815553E-02  0.1125453E+00
         25   -1    0    0    0    0  0.00000000000E+00  0.00000000000E+00  0.99999998245E-14  0.12509000000E+03  0.12509000000E+03 0.  0.
        -13    1    3    3    0    0 -0.32118159653E+02  0.98790361087E+01  0.29373008026E+02  0.44631337628E+02  0.10566000000E+00 0. -1.
         23    2    1    0    0    0  0.69995188620E+01 -0.19625315685E+02  0.23023327100E+02  0.94038110028E+02  0.88763428657E+02 0.  0.
         13    1    3    3    0    0  0.39117678515E+02 -0.29504351794E+02 -0.63496809256E+01  0.49406772401E+02  0.10566000000E+00 0.  1.
         22    1    1    0    0    0 -0.69995188620E+01  0.19625315685E+02 -0.23023327100E+02  0.31051889972E+02  0.00000000000E+00 0.  1.
</event>
<event>
 5    1  0.1264731E-009  0.9118800E+02  0.7815553E-02  0.1125453E+00
         25   -1    0    0    0    0  0.00000000000E+00  0.00000000000E+00  0.99999998245E-14  0.12509000000E+03  0.12509000000E+03 0.  0.
        -13    1    3    3    0    0  0.52090408867E+01 -0.23078287579E+02 -0.30133608864E+02  0.38311708546E+02  0.10566000000E+00 0. -1.
         23    2    1    0    0    0  0.10038444500E+02 -0.56382633500E+01  0.25659240788E+02  0.96966041896E+02  0.92797932421E+02 0.  0.
         13    1    3    3    0    0  0.48294036137E+01  0.17440024229E+02  0.55792849652E+02  0.58654333350E+02  0.10566000000E+00 0.  1.
         22    1    1    0    0    0 -0.10038444500E+02  0.56382633500E+01 -0.25659240788E+02  0.28123958104E+02  0.00000000000E+00 0.  1.
</event>
<event>
 5    1  0.1264731E-009  0.9118800E+02  0.7815553E-02  0.1125453E+00
         25   -1    0    0    0    0  0.00000000000E+00  0.00000000000E+00  0.99999998245E-14  0.12509000000E+03  0.12509000000E+03 0.  0.
        -13    1    3    3    0    0  0.21294339179E+02 -0.53781184215E+02 -0.14067422507E+02  0.59529557336E+02  0.10566000000E+00 0. -1.
         23    2    1    0    0    0 -0.22013438330E+01 -0.27061029925E+02 -0.12645341707E+02  0.95139208321E+02  0.90301821896E+02 0.  0.
         13    1    3    3    0    0 -0.23495683012E+02  0.26720154289E+02  0.14220807992E+01  0.35609650985E+02  0.10566000000E+00 0.  1.
         22    1    1    0    0    0  0.22013438330E+01  0.27061029925E+02  0.12645341707E+02  0.29950791679E+02  0.00000000000E+00 0. -1.
</event>
<event>
 5    1  0.1264731E-009  0.9118800E+02  0.7815553E-02  0.1125453E+00
         25   -1    0    0    0    0  0.00000000000E+00  0.00000000000E+00  0.99999998245E-14  0.12509000000E+03  0.12509000000E+03 0.  0.
        -13    1    3    3    0    0 -0.13316952639E+02 -0.31172215232E+02  0.17104271382E+02  0.37968611953E+02  0.10566000000E+00 0.  1.
         23    2    1    0    0    0 -0.78664625624E+00  0.24527752605E+02  0.17306302848E+02  0.95061054324E+02  0.90193494614E+02 0.  0.
         13    1    3    3    0    0  0.12530306383E+02  0.55699967837E+02  0.20203146598E+00  0.57092442371E+02  0.10566000000E+00 0. -1.
         22    1    1    0    0    0  0.78664625624E+00 -0.24527752605E+02 -0.17306302848E+02  0.30028945676E+02  0.00000000000E+00 0. -1.
</event>
<event>
 5    1  0.1264731E-009  0.9118800E+02  0.7815553E-02  0.1125453E+00
         25   -1    0    0    0    0  0.00000000000E+00  0.00000000000E+00  0.99999998245E-14  0.12509000000E+03  0.12509000000E+03 0.  0.
        -13    1    3    3    0    0 -0.18437864451E+01 -0.41070698997E+02  0.16342574374E+02  0.44241301582E+02  0.10566000000E+00 0. -1.
         23    2    1    0    0    0  0.90518564184E+01  0.83278664842E+01  0.26534034835E+02  0.95843727256E+02  0.91272534668E+02 0.  0.
         13    1    3    3    0    0  0.10895642863E+02  0.49398565481E+02  0.10191460462E+02  0.51602425673E+02  0.10566000000E+00 0.  1.
         22    1    1    0    0    0 -0.90518564184E+01 -0.83278664842E+01 -0.26534034835E+02  0.29246272744E+02  0.00000000000E+00 0.  1.
</event>
<event>
 5    1  0.1264731E-009  0.9118800E+02  0.7815553E-02  0.1125453E+00
         25   -1    0    0    0    0  0.00000000000E+00  0.00000000000E+00  0.99999998245E-14  0.12509000000E+03  0.12509000000E+03 0.  0.
        -13    1    3    3    0    0 -0.20981677804E+02  0.32559399309E+02  0.68398218313E+01  0.39333695651E+02  0.10566000000E+00 0.  1.
         23    2    1    0    0    0 -0.16800682728E+02 -0.23706411203E+02  0.18452724854E+01  0.95975366174E+02  0.91452769283E+02 0.  0.
         13    1    3    3    0    0  0.41809950761E+01 -0.56265810512E+02 -0.49945493460E+01  0.56641670523E+02  0.10566000000E+00 0. -1.
         22    1    1    0    0    0  0.16800682728E+02  0.23706411203E+02 -0.18452724854E+01  0.29114633826E+02  0.00000000000E+00 0. -1.
</event>
<event>
 5    1  0.1264731E-009  0.9118800E+02  0.7815553E-02  0.1125453E+00
         25   -1    0    0    0    0  0.00000000000E+00  0.00000000000E+00  0.99999998245E-14  0.12509000000E+03  0.12509000000E+03 0.  0.
        -13    1    3    3    0    0  0.83997449841E+01 -0.39325224007E+02  0.10839249544E+02  0.41647682454E+02  0.10566000000E+00 0.  1.
         23    2    1    0    0    0 -0.27548346760E+02 -0.10764546367E+01  0.13875376364E+02  0.94225842259E+02  0.89027597499E+02 0.  0.
         13    1    3    3    0    0 -0.35948091744E+02  0.38248769371E+02  0.30361268197E+01  0.52578159806E+02  0.10566000000E+00 0. -1.
         22    1    1    0    0    0  0.27548346760E+02  0.10764546367E+01 -0.13875376364E+02  0.30864157741E+02  0.00000000000E+00 0. -1.
</event>
<event>
 5    1  0.1264731E-009  0.9118800E+02  0.7815553E-02  0.1125453E+00
         25   -1    0    0    0    0  0.00000000000E+00  0.00000000000E+00  0.99999998245E-14  0.12509000000E+03  0.12509000000E+03 0.  0.
        -13    1    3    3    0    0  0.39393382949E+02  0.30648299108E+02 -0.16223701225E+02  0.52482154147E+02  0.10566000000E+00 0. -1.
         23    2    1    0    0    0  0.12263657738E+02  0.13621684394E+00 -0.27617894216E+02  0.94871397500E+02  0.89930073538E+02 0.  0.
         13    1    3    3    0    0 -0.27129725211E+02 -0.30512082264E+02 -0.11394192991E+02  0.42389243353E+02  0.10566000000E+00 0.  1.
         22    1    1    0    0    0 -0.12263657738E+02 -0.13621684394E+00  0.27617894216E+02  0.30218602500E+02  0.00000000000E+00 0.  1.
</event>
<event>
 5    1  0.1264731E-009  0.9118800E+02  0.7815553E-02  0.1125453E+00
         25   -1    0    0    0    0  0.00000000000E+00  0.00000000000E+00  0.99999998245E-14  0.12509000000E+03  0.12509000000E+03 0.  0.
        -13    1    3    3    0    0 -0.11056875798E+02 -0.62080856160E+00  0.30836316692E+02  0.32764759985E+02  0.10566000000E+00 0. -1.
         23    2    1    0    0    0  0.10377564454E+02  0.12588610821E+02 -0.25697076014E+02  0.94651427726E+02  0.89623579981E+02 0.  0.
         13    1    3    3    0    0  0.21434440253E+02  0.13209419382E+02 -0.56533392705E+02  0.61886667742E+02  0.10566000000E+00 0.  1.
         22    1    1    0    0    0 -0.10377564454E+02 -0.12588610821E+02  0.25697076014E+02  0.30438572274E+02  0.00000000000E+00 0.  1.
</event>
<event>
 5    1  0.1264731E-009  0.9118800E+02  0.7815553E-02  0.1125453E+00
         25   -1    0    0    0    0  0.00000000000E+00  0.00000000000E+00  0.99999998245E-14  0.12509000000E+03  0.12509000000E+03 0.  0.
        -13    1    3    3    0    0 -0.24347335787E+02 -0.14867164348E+02 -0.50928076459E+02  0.58373842357E+02  0.10566000000E+00 0.  1.
         23    2    1    0    0    0 -0.32823044129E+01  0.46400985169E+01 -0.31597770275E+02  0.92985123068E+02  0.87266889420E+02 0.  0.
         13    1    3    3    0    0  0.21065031374E+02  0.19507262865E+02  0.19330306184E+02  0.34611280711E+02  0.10566000000E+00 0. -1.
         22    1    1    0    0    0  0.32823044129E+01 -0.46400985169E+01  0.31597770275E+02  0.32104876932E+02  0.00000000000E+00 0.  1.
</event>
<event>
 5    1  0.1264731E-009  0.9118800E+02  0.7815553E-02  0.1125453E+00
         25   -1    0    0    0    0  0.00000000000E+00  0.00000000000E+00  0.99999998245E-14  0.12509000000E+03  0.12509000000E+03 0.  0.
        -13    1    3    3    0    0 -0.14955201841E+02 -0.27989974380E+02 -0.14920520472E+02  0.35067503804E+02  0.10566000000E+00 0. -1.
         23    2    1    0    0    0  0.11270067883E+02 -0.40508258941E+02  0.18325008165E+02  0.79223461033E+02  0.64595800028E+02 0.  0.
         13    1    3    3    0    0  0.26225269724E+02 -0.12518284562E+02  0.33245528637E+02  0.44155957229E+02  0.10566000000E+00 0.  1.
         22    1    1    0    0    0 -0.11270067883E+02  0.40508258941E+02 -0.18325008165E+02  0.45866538967E+02  0.00000000000E+00 0.  1.
</event>
<event>
 5    1  0.1264731E-009  0.9118800E+02  0.7815553E-02  0.1125453E+00
         25   -1    0    0    0    0  0.00000000000E+00  0.00000000000E+00  0.99999998245E-14  0.12509000000E+03  0.12509000000E+03 0.  0.
        -13    1    3    3    0    0  0.28858885167E+02  0.28046637224E+02  0.42428096219E+02  0.58477377040E+02  0.10566000000E+00 0.  1.
         23    2    1    0    0    0  0.26791914037E+02  0.11168285190E+02  0.11311357937E+02  0.93937406685E+02  0.88621398683E+02 0.  0.
         13    1    3    3    0    0 -0.20669711296E+01 -0.16878352035E+02 -0.31116738282E+02  0.35460029645E+02  0.10566000000E+00 0. -1.
         22    1    1    0    0    0 -0.26791914037E+02 -0.11168285190E+02 -0.11311357937E+02  0.31152593315E+02  0.00000000000E+00 0.  1.
</event>
<event>
 5    1  0.1264731E-009  0.9118800E+02  0.7815553E-02  0.1125453E+00
         25   -1    0    0    0    0  0.00000000000E+00  0.00000000000E+00  0.99999998245E-14  0.12509000000E+03  0.12509000000E+03 0.  0.
        -13    1    3    3    0    0 -0.20283922517E+02 -0.39533718875E+02  0.77800390864E+01  0.45109784005E+02  0.10566000000E+00 0. -1.
         23    2    1    0    0    0 -0.80677727623E+01 -0.13953323110E+01  0.32099381548E+02  0.91962878100E+02  0.85789071233E+02 0.  0.
         13    1    3    3    0    0  0.12216149754E+02  0.38138386564E+02  0.24319342462E+02  0.46853094095E+02  0.10566000000E+00 0.  1.
         22    1    1    0    0    0  0.80677727623E+01  0.13953323110E+01 -0.32099381548E+02  0.33127121900E+02  0.00000000000E+00 0.  1.
</event>
<event>
 5    1  0.1264731E-009  0.9118800E+02  0.7815553E-02  0.1125453E+00
         25   -1    0    0    0    0  0.00000000000E+00  0.00000000000E+00  0.99999998245E-14  0.12509000000E+03  0.12509000000E+03 0.  0.
        -13    1    3    3    0    0 -0.57504170180E+02 -0.12819497701E+02 -0.10473196608E+01  0.58925182663E+02  0.10566000000E+00 0.  1.
         23    2    1    0    0    0 -0.27244912042E+02 -0.86420799007E+00  0.13624759160E+02  0.94615975819E+02  0.89574085149E+02 0.  0.
         13    1    3    3    0    0  0.30259258137E+02  0.11955289711E+02  0.14672078821E+02  0.35690793155E+02  0.10566000000E+00 0. -1.
         22    1    1    0    0    0  0.27244912042E+02  0.86420799007E+00 -0.13624759160E+02  0.30474024181E+02  0.00000000000E+00 0.  1.
</event>
<event>
 5    1  0.1264731E-009  0.9118800E+02  0.7815553E-02  0.1125453E+00
         25   -1    0    0    0    0  0.00000000000E+00  0.00000000000E+00  0.99999998245E-14  0.12509000000E+03  0.12509000000E+03 0.  0.
        -13    1    3    3    0    0 -0.28863742653E+02 -0.31208414250E+02 -0.19088272770E+02  0.46598863520E+02  0.10566000000E+00 0. -1.
         23    2    1    0    0    0  0.18881599975E+02 -0.15238476847E+02  0.10039719334E+01  0.10080556149E+03  0.97836737849E+02 0.  0.
         13    1    3    3    0    0  0.47745342628E+02  0.15969937403E+02  0.20092244703E+02  0.54206697968E+02  0.10566000000E+00 0.  1.
         22    1    1    0    0    0 -0.18881599975E+02  0.15238476847E+02 -0.10039719334E+01  0.24284438513E+02  0.00000000000E+00 0. -1.
</event>
<event>
 5    1  0.1264731E-009  0.9118800E+02  0.7815553E-02  0.1125453E+00
         25   -1    0    0    0    0  0.00000000000E+00  0.00000000000E+00  0.99999998245E-14  0.12509000000E+03  0.12509000000E+03 0.  0.
        -13    1    3    3    0    0 -0.83959775019E+01 -0.28744600907E+02  0.22312637680E+02  0.37344470592E+02  0.10566000000E+00 0. -1.
         23    2    1    0    0    0  0.28155656034E+02  0.75978107430E+01 -0.47207045739E+01  0.95547611023E+02  0.90865797888E+02 0.  0.
         13    1    3    3    0    0  0.36551633536E+02  0.36342411650E+02 -0.27033342254E+02  0.58203140432E+02  0.10566000000E+00 0.  1.
         22    1    1    0    0    0 -0.28155656034E+02 -0.75978107430E+01  0.47207045739E+01  0.29542388977E+02  0.00000000000E+00 0.  1.
</event>
<event>
 5    1  0.1264731E-009  0.9118800E+02  0.7815553E-02  0.1125453E+00
         25   -1    0    0    0    0  0.00000000000E+00  0.00000000000E+00  0.99999998245E-14  0.12509000000E+03  0.12509000000E+03 0.  0.
        -13    1    3    3    0    0  0.17746521301E+02  0.31730859764E+02 -0.69108737755E+01  0.37007537341E+02  0.10566000000E+00 0. -1.
         23    2    1    0    0    0 -0.29412295769E+02 -0.22077418210E+01  0.57485574650E+00  0.95589360592E+02  0.90923254083E+02 0.  0.
         13    1    3    3    0    0 -0.47158817069E+02 -0.33938601585E+02  0.74857295220E+01  0.58581823251E+02  0.10566000000E+00 0.  1.
         22    1    1    0    0    0  0.29412295769E+02  0.22077418210E+01 -0.57485574650E+00  0.29500639408E+02  0.00000000000E+00 0.  1.
</event>
<event>
 5    1  0.1264731E-009  0.9118800E+02  0.7815553E-02  0.1125453E+00
         25   -1    0    0    0    0  0.00000000000E+00  0.00000000000E+00  0.99999998245E-14  0.12509000000E+03  0.12509000000E+03 0.  0.
        -13    1    3    3    0    0  0.24464996478E+02  0.16546043648E+02  0.10866831346E+02  0.31470729267E+02  0.10566000000E+00 0. -1.
         23    2    1    0    0    0  0.11848083261E+02 -0.33396376057E+02 -0.11789296402E+02  0.87744551544E+02  0.79400401796E+02 0.  0.
         13    1    3    3    0    0 -0.12616913217E+02 -0.49942419705E+02 -0.22656127748E+02  0.56273822277E+02  0.10566000000E+00 0.  1.
         22    1    1    0    0    0 -0.11848083261E+02  0.33396376057E+02  0.11789296402E+02  0.37345448456E+02  0.00000000000E+00 0.  1.
</event>
<event>
 5    1  0.1264731E-009  0.9118800E+02  0.7815553E-02  0.1125453E+00
         25   -1    0    0    0    0  0.00000000000E+00  0.00000000000E+00  0.99999998245E-14  0.12509000000E+03  0.12509000000E+03 0.  0.
        -13    1    3    3    0    0 -0.43754378111E+01 -0.10391086241E+02  0.38821327764E+02  0.40425558533E+02  0.10566000000E+00 0.  1.
         23    2    1    0    0    0  0.19590515810E+02 -0.18700080227E+02 -0.10624189626E+02  0.95997823811E+02  0.91483481902E+02 0.  0.
         13    1    3    3    0    0  0.23965953622E+02 -0.83089939857E+01 -0.49445517391E+02  0.55572265278E+02  0.10566000000E+00 0. -1.
         22    1    1    0    0    0 -0.19590515810E+02  0.18700080227E+02  0.10624189626E+02  0.29092176189E+02  0.00000000000E+00 0. -1.
</event>
