<event>
 5    1  0.1751020E-003  0.9118800E+02  0.7818608E-02  0.1130116E+00
         25   -1    0    0    0    0  0.00000000000E+00  0.00000000000E+00  0.99999998245E-14  0.12500000000E+03  0.12500000000E+03 0.  0.
        -13    1    3    3    0    0  0.24326087816E+02 -0.18602279954E+02  0.30574904638E+02  0.43274002884E+02  0.10566000000E+00 0.  1.
         23    2    1    0    0    0  0.10844131337E+01  0.24812367319E+02  0.23022334905E+01  0.10005747000E+03  0.96898748701E+02 0.  0.
         13    1    3    3    0    0 -0.23241674682E+02  0.43414647272E+02 -0.28272671148E+02  0.56783467116E+02  0.10566000000E+00 0. -1.
         22    1    1    0    0    0 -0.10844131337E+01 -0.24812367319E+02 -0.23022334905E+01  0.24942530001E+02  0.00000000000E+00 0. -1.
</event>
<event>
 5    1  0.1751020E-003  0.9118800E+02  0.7818608E-02  0.1130116E+00
         25   -1    0    0    0    0  0.00000000000E+00  0.00000000000E+00  0.99999998245E-14  0.12500000000E+03  0.12500000000E+03 0.  0.
        -13    1    3    3    0    0  0.55240375309E+01  0.29768000188E+00 -0.42114958062E+02  0.42476869713E+02  0.10566000000E+00 0. -1.
         23    2    1    0    0    0  0.33942759140E+02  0.15422262440E+01 -0.29331468023E+01  0.90895854945E+02  0.84255348413E+02 0.  0.
         13    1    3    3    0    0  0.28418721609E+02  0.12445462422E+01  0.39181811260E+02  0.48418985232E+02  0.10566000000E+00 0.  1.
         22    1    1    0    0    0 -0.33942759140E+02 -0.15422262440E+01  0.29331468023E+01  0.34104145055E+02  0.00000000000E+00 0. -1.
</event>
<event>
 5    1  0.1751020E-003  0.9118800E+02  0.7818608E-02  0.1130116E+00
         25   -1    0    0    0    0  0.00000000000E+00  0.00000000000E+00  0.99999998245E-14  0.12500000000E+03  0.12500000000E+03 0.  0.
        -13    1    3    3    0    0  0.20902722542E+02 -0.50285037377E+02  0.14951074026E+02  0.56471714798E+02  0.10566000000E+00 0. -1.
         23    2    1    0    0    0 -0.86396993522E+01 -0.22486684504E+02  0.14186268506E+02  0.97043862945E+02  0.92929896892E+02 0.  0.
         13    1    3    3    0    0 -0.29542421894E+02  0.27798352872E+02 -0.76480551962E+00  0.40572148147E+02  0.10566000000E+00 0.  1.
         22    1    1    0    0    0  0.86396993522E+01  0.22486684504E+02 -0.14186268506E+02  0.27956137055E+02  0.00000000000E+00 0. -1.
</event>
<event>
 5    1  0.1751020E-003  0.9118800E+02  0.7818608E-02  0.1130116E+00
         25   -1    0    0    0    0  0.00000000000E+00  0.00000000000E+00  0.99999998245E-14  0.12500000000E+03  0.12500000000E+03 0.  0.
        -13    1    3    3    0    0 -0.50037994280E+02 -0.13069981535E+02  0.23585598615E+02  0.56841155116E+02  0.10566000000E+00 0. -1.
         23    2    1    0    0    0 -0.26618498044E+02  0.11453540069E+02  0.47375805799E+01  0.95637222748E+02  0.91018161303E+02 0.  0.
         13    1    3    3    0    0  0.23419496236E+02  0.24523521604E+02 -0.18848018035E+02  0.38796067632E+02  0.10566000000E+00 0.  1.
         22    1    1    0    0    0  0.26618498044E+02 -0.11453540069E+02 -0.47375805799E+01  0.29362777252E+02  0.00000000000E+00 0. -1.
</event>
<event>
 5    1  0.1751020E-003  0.9118800E+02  0.7818608E-02  0.1130116E+00
         25   -1    0    0    0    0  0.00000000000E+00  0.00000000000E+00  0.99999998245E-14  0.12500000000E+03  0.12500000000E+03 0.  0.
        -13    1    3    3    0    0  0.75499970672E+01  0.10102630766E+02 -0.30262239688E+02  0.32785361354E+02  0.10566000000E+00 0. -1.
         23    2    1    0    0    0 -0.12215759740E+02  0.31657111313E+02  0.15975068696E+02  0.87495329590E+02  0.79049556593E+02 0.  0.
         13    1    3    3    0    0 -0.19765756807E+02  0.21554480547E+02  0.46237308384E+02  0.54709968237E+02  0.10566000000E+00 0.  1.
         22    1    1    0    0    0  0.12215759740E+02 -0.31657111313E+02 -0.15975068696E+02  0.37504670410E+02  0.00000000000E+00 0.  1.
</event>
<event>
 5    1  0.1751020E-003  0.9118800E+02  0.7818608E-02  0.1130116E+00
         25   -1    0    0    0    0  0.00000000000E+00  0.00000000000E+00  0.99999998245E-14  0.12500000000E+03  0.12500000000E+03 0.  0.
        -13    1    3    3    0    0 -0.25491585464E+02 -0.21210235993E+01  0.51217485044E+02  0.57249992217E+02  0.10566000000E+00 0.  1.
         23    2    1    0    0    0 -0.25126087693E+02 -0.49342288791E+01  0.11737329571E+02  0.96832078478E+02  0.92644587643E+02 0.  0.
         13    1    3    3    0    0  0.36549777106E+00 -0.28132052798E+01 -0.39480155473E+02  0.39582086261E+02  0.10566000000E+00 0. -1.
         22    1    1    0    0    0  0.25126087693E+02  0.49342288791E+01 -0.11737329571E+02  0.28167921522E+02  0.00000000000E+00 0.  1.
</event>
<event>
 5    1  0.1751020E-003  0.9118800E+02  0.7818608E-02  0.1130116E+00
         25   -1    0    0    0    0  0.00000000000E+00  0.00000000000E+00  0.99999998245E-14  0.12500000000E+03  0.12500000000E+03 0.  0.
        -13    1    3    3    0    0  0.33568142293E+02  0.33671006780E+01  0.16007210704E+01  0.33774709709E+02  0.10566000000E+00 0.  1.
         23    2    1    0    0    0 -0.27764000481E+02 -0.38248746519E+01  0.79906629020E+01  0.95856903348E+02  0.91319361787E+02 0.  0.
         13    1    3    3    0    0 -0.61332142774E+02 -0.71919753299E+01  0.63899418316E+01  0.62082193639E+02  0.10566000000E+00 0. -1.
         22    1    1    0    0    0  0.27764000481E+02  0.38248746519E+01 -0.79906629020E+01  0.29143096652E+02  0.00000000000E+00 0. -1.
</event>
<event>
 5    1  0.1751020E-003  0.9118800E+02  0.7818608E-02  0.1130116E+00
         25   -1    0    0    0    0  0.00000000000E+00  0.00000000000E+00  0.99999998245E-14  0.12500000000E+03  0.12500000000E+03 0.  0.
        -13    1    3    3    0    0 -0.15851865378E+02  0.31336906069E+02  0.51549198306E+02  0.62374789202E+02  0.10566000000E+00 0.  1.
         23    2    1    0    0    0 -0.57413829896E+01  0.16190536556E+02  0.21958096623E+02  0.97120707328E+02  0.93033202847E+02 0.  0.
         13    1    3    3    0    0  0.10110482388E+02 -0.15146369513E+02 -0.29591101684E+02  0.34745918126E+02  0.10566000000E+00 0. -1.
         22    1    1    0    0    0  0.57413829896E+01 -0.16190536556E+02 -0.21958096623E+02  0.27879292672E+02  0.00000000000E+00 0.  1.
</event>
<event>
 5    1  0.1751020E-003  0.9118800E+02  0.7818608E-02  0.1130116E+00
         25   -1    0    0    0    0  0.00000000000E+00  0.00000000000E+00  0.99999998245E-14  0.12500000000E+03  0.12500000000E+03 0.  0.
        -13    1    3    3    0    0 -0.47999253601E+02  0.70746492804E+01 -0.39066469522E+02  0.62291084544E+02  0.10566000000E+00 0. -1.
         23    2    1    0    0    0 -0.24823578146E+02  0.20365894072E+01 -0.15866142627E+02  0.95468792604E+02  0.90786552699E+02 0.  0.
         13    1    3    3    0    0  0.23175675455E+02 -0.50380598732E+01  0.23200326894E+02  0.33177708060E+02  0.10566000000E+00 0.  1.
         22    1    1    0    0    0  0.24823578146E+02 -0.20365894072E+01  0.15866142627E+02  0.29531207396E+02  0.00000000000E+00 0. -1.
</event>
<event>
 5    1  0.1751020E-003  0.9118800E+02  0.7818608E-02  0.1130116E+00
         25   -1    0    0    0    0  0.00000000000E+00  0.00000000000E+00  0.99999998245E-14  0.12500000000E+03  0.12500000000E+03 0.  0.
        -13    1    3    3    0    0  0.33485778578E+02 -0.15157310125E+02  0.70511995104E+01  0.37426888673E+02  0.10566000000E+00 0.  1.
         23    2    1    0    0    0 -0.42498584148E+01  0.28570484973E+02 -0.26455741984E+01  0.95994259689E+02  0.91507185085E+02 0.  0.
         13    1    3    3    0    0 -0.37735636992E+02  0.43727795098E+02 -0.96967737088E+01  0.58567371016E+02  0.10566000000E+00 0. -1.
         22    1    1    0    0    0  0.42498584148E+01 -0.28570484973E+02  0.26455741984E+01  0.29005740311E+02  0.00000000000E+00 0. -1.
</event>
<event>
 5    1  0.1751020E-003  0.9118800E+02  0.7818608E-02  0.1130116E+00
         25   -1    0    0    0    0  0.00000000000E+00  0.00000000000E+00  0.99999998245E-14  0.12500000000E+03  0.12500000000E+03 0.  0.
        -13    1    3    3    0    0 -0.17100523133E+02  0.20228119056E+01 -0.57250083142E+02  0.59783800843E+02  0.10566000000E+00 0.  1.
         23    2    1    0    0    0 -0.71838640909E+01 -0.12043231542E+02 -0.25505742626E+02  0.95893467466E+02  0.91369397867E+02 0.  0.
         13    1    3    3    0    0  0.99166590419E+01 -0.14066043447E+02  0.31744340516E+02  0.36109666623E+02  0.10566000000E+00 0. -1.
         22    1    1    0    0    0  0.71838640909E+01  0.12043231542E+02  0.25505742626E+02  0.29106532534E+02  0.00000000000E+00 0.  1.
</event>
<event>
 5    1  0.1751020E-003  0.9118800E+02  0.7818608E-02  0.1130116E+00
         25   -1    0    0    0    0  0.00000000000E+00  0.00000000000E+00  0.99999998245E-14  0.12500000000E+03  0.12500000000E+03 0.  0.
        -13    1    3    3    0    0 -0.16224749985E+02 -0.53997361574E+02 -0.17655442586E+02  0.59082005603E+02  0.10566000000E+00 0.  1.
         23    2    1    0    0    0  0.30264218907E+01 -0.14975015214E+02 -0.16362231041E+02  0.10261400181E+03  0.10014240088E+03 0.  0.
         13    1    3    3    0    0  0.19251171876E+02  0.39022346361E+02  0.12932115457E+01  0.43531996212E+02  0.10566000000E+00 0. -1.
         22    1    1    0    0    0 -0.30264218907E+01  0.14975015214E+02  0.16362231041E+02  0.22385998185E+02  0.00000000000E+00 0. -1.
</event>
<event>
 5    1  0.1751020E-003  0.9118800E+02  0.7818608E-02  0.1130116E+00
         25   -1    0    0    0    0  0.00000000000E+00  0.00000000000E+00  0.99999998245E-14  0.12500000000E+03  0.12500000000E+03 0.  0.
        -13    1    3    3    0    0 -0.25007373151E+01 -0.14749607724E+02  0.53623812656E+02  0.55671618109E+02  0.10566000000E+00 0. -1.
         23    2    1    0    0    0 -0.20486438778E+02  0.24581505660E+00  0.23604257062E+02  0.93744351706E+02  0.88380359393E+02 0.  0.
         13    1    3    3    0    0 -0.17985701462E+02  0.14995422780E+02 -0.30019555594E+02  0.38072733597E+02  0.10566000000E+00 0.  1.
         22    1    1    0    0    0  0.20486438778E+02 -0.24581505660E+00 -0.23604257062E+02  0.31255648294E+02  0.00000000000E+00 0. -1.
</event>
<event>
 5    1  0.1751020E-003  0.9118800E+02  0.7818608E-02  0.1130116E+00
         25   -1    0    0    0    0  0.00000000000E+00  0.00000000000E+00  0.99999998245E-14  0.12500000000E+03  0.12500000000E+03 0.  0.
        -13    1    3    3    0    0 -0.33758681441E+02  0.19772474208E+02  0.11708514936E+02  0.40837480272E+02  0.10566000000E+00 0.  1.
         23    2    1    0    0    0  0.18064671351E+02  0.22632415110E+02 -0.55124023684E+01  0.95522124490E+02  0.90859953349E+02 0.  0.
         13    1    3    3    0    0  0.51823352791E+02  0.28599409020E+01 -0.17220917304E+02  0.54684644219E+02  0.10566000000E+00 0. -1.
         22    1    1    0    0    0 -0.18064671351E+02 -0.22632415110E+02  0.55124023684E+01  0.29477875510E+02  0.00000000000E+00 0. -1.
</event>
<event>
 5    1  0.1751020E-003  0.9118800E+02  0.7818608E-02  0.1130116E+00
         25   -1    0    0    0    0  0.00000000000E+00  0.00000000000E+00  0.99999998245E-14  0.12500000000E+03  0.12500000000E+03 0.  0.
        -13    1    3    3    0    0 -0.10286814624E+02 -0.45159959192E+01 -0.24904294191E+02  0.27321197035E+02  0.10566000000E+00 0. -1.
         23    2    1    0    0    0 -0.43859540006E+02  0.18972673129E+02  0.33549841986E+01  0.77095120352E+02  0.60405132960E+02 0.  0.
         13    1    3    3    0    0 -0.33572725381E+02  0.23488669048E+02  0.28259278390E+02  0.49773923316E+02  0.10566000000E+00 0.  1.
         22    1    1    0    0    0  0.43859540006E+02 -0.18972673129E+02 -0.33549841986E+01  0.47904879648E+02  0.00000000000E+00 0.  1.
</event>
<event>
 5    1  0.1751020E-003  0.9118800E+02  0.7818608E-02  0.1130116E+00
         25   -1    0    0    0    0  0.00000000000E+00  0.00000000000E+00  0.99999998245E-14  0.12500000000E+03  0.12500000000E+03 0.  0.
        -13    1    3    3    0    0  0.45225047570E+01  0.54543385424E+02 -0.21644602711E+02  0.58855194617E+02  0.10566000000E+00 0. -1.
         23    2    1    0    0    0 -0.46396630689E+01  0.18846765529E+02 -0.21935510987E+02  0.95710177765E+02  0.91118299157E+02 0.  0.
         13    1    3    3    0    0 -0.91621678259E+01 -0.35696619895E+02 -0.29090827534E+00  0.36854983149E+02  0.10566000000E+00 0.  1.
         22    1    1    0    0    0  0.46396630689E+01 -0.18846765529E+02  0.21935510987E+02  0.29289822235E+02  0.00000000000E+00 0. -1.
</event>
<event>
 5    1  0.1751020E-003  0.9118800E+02  0.7818608E-02  0.1130116E+00
         25   -1    0    0    0    0  0.00000000000E+00  0.00000000000E+00  0.99999998245E-14  0.12500000000E+03  0.12500000000E+03 0.  0.
        -13    1    3    3    0    0  0.29268514389E+02 -0.26167345996E+01 -0.41150360182E+02  0.50565368996E+02  0.10566000000E+00 0.  1.
         23    2    1    0    0    0  0.28948876626E+02  0.14648033871E+01  0.38569337512E+01  0.95758607338E+02  0.91184712724E+02 0.  0.
         13    1    3    3    0    0 -0.31963776385E+00  0.40815379866E+01  0.45007293933E+02  0.45193238342E+02  0.10566000000E+00 0. -1.
         22    1    1    0    0    0 -0.28948876626E+02 -0.14648033871E+01 -0.38569337512E+01  0.29241392662E+02  0.00000000000E+00 0.  1.
</event>
<event>
 5    1  0.1751020E-003  0.9118800E+02  0.7818608E-02  0.1130116E+00
         25   -1    0    0    0    0  0.00000000000E+00  0.00000000000E+00  0.99999998245E-14  0.12500000000E+03  0.12500000000E+03 0.  0.
        -13    1    3    3    0    0  0.17599248896E+02  0.37017873227E+02  0.30507724893E+02  0.51095879894E+02  0.10566000000E+00 0.  1.
         23    2    1    0    0    0 -0.93048609630E+01  0.27761814731E+02 -0.35855580655E+01  0.95501609852E+02  0.90831726081E+02 0.  0.
         13    1    3    3    0    0 -0.26904109859E+02 -0.92560584959E+01 -0.34093282958E+02  0.44405729958E+02  0.10566000000E+00 0. -1.
         22    1    1    0    0    0  0.93048609630E+01 -0.27761814731E+02  0.35855580655E+01  0.29498390148E+02  0.00000000000E+00 0. -1.
</event>
<event>
 5    1  0.1751020E-003  0.9118800E+02  0.7818608E-02  0.1130116E+00
         25   -1    0    0    0    0  0.00000000000E+00  0.00000000000E+00  0.99999998245E-14  0.12500000000E+03  0.12500000000E+03 0.  0.
        -13    1    3    3    0    0  0.40842723928E+02 -0.38260360063E+01  0.43661388513E+02  0.59909053242E+02  0.10566000000E+00 0. -1.
         23    2    1    0    0    0  0.17994005679E+02  0.10942246131E+02  0.18416110476E+02  0.97023758011E+02  0.92902849810E+02 0.  0.
         13    1    3    3    0    0 -0.22848718249E+02  0.14768282137E+02 -0.25245278038E+02  0.37114704769E+02  0.10566000000E+00 0.  1.
         22    1    1    0    0    0 -0.17994005679E+02 -0.10942246131E+02 -0.18416110476E+02  0.27976241989E+02  0.00000000000E+00 0. -1.
</event>
<event>
 5    1  0.1751020E-003  0.9118800E+02  0.7818608E-02  0.1130116E+00
         25   -1    0    0    0    0  0.00000000000E+00  0.00000000000E+00  0.99999998245E-14  0.12500000000E+03  0.12500000000E+03 0.  0.
        -13    1    3    3    0    0  0.46720069188E+02  0.25530612325E+02  0.28934514847E+02  0.60595332692E+02  0.10566000000E+00 0.  1.
         23    2    1    0    0    0  0.13943811635E+02  0.16625592227E+02  0.19451543326E+02  0.95858916671E+02  0.91322117627E+02 0.  0.
         13    1    3    3    0    0 -0.32776257553E+02 -0.89050200986E+01 -0.94829715204E+01  0.35263583979E+02  0.10566000000E+00 0. -1.
         22    1    1    0    0    0 -0.13943811635E+02 -0.16625592227E+02 -0.19451543326E+02  0.29141083329E+02  0.00000000000E+00 0.  1.
</event>
<event>
 5    1  0.1751020E-003  0.9118800E+02  0.7818608E-02  0.1130116E+00
         25   -1    0    0    0    0  0.00000000000E+00  0.00000000000E+00  0.99999998245E-14  0.12500000000E+03  0.12500000000E+03 0.  0.
        -13    1    3    3    0    0  0.24285579123E+02  0.11618214011E+02 -0.25295874976E+02  0.36941368477E+02  0.10566000000E+00 0.  1.
         23    2    1    0    0    0  0.65209478735E+01 -0.55816738193E+01  0.28010623689E+02  0.95703705299E+02  0.91109419517E+02 0.  0.
         13    1    3    3    0    0 -0.17764631249E+02 -0.17199887830E+02  0.53306498665E+02  0.58762336821E+02  0.10566000000E+00 0. -1.
         22    1    1    0    0    0 -0.65209478735E+01  0.55816738193E+01 -0.28010623689E+02  0.29296294701E+02  0.00000000000E+00 0. -1.
</event>
<event>
 5    1  0.1751020E-003  0.9118800E+02  0.7818608E-02  0.1130116E+00
         25   -1    0    0    0    0  0.00000000000E+00  0.00000000000E+00  0.99999998245E-14  0.12500000000E+03  0.12500000000E+03 0.  0.
        -13    1    3    3    0    0  0.83813432956E+01 -0.34692172024E+02 -0.40282620439E+02  0.53819089445E+02  0.10566000000E+00 0.  1.
         23    2    1    0    0    0 -0.18858779696E+01  0.26794657290E+01 -0.31203645623E+02  0.93624793667E+02  0.88211101437E+02 0.  0.
         13    1    3    3    0    0 -0.10267221265E+02  0.37371637753E+02  0.90789748161E+01  0.39805704222E+02  0.10566000000E+00 0. -1.
         22    1    1    0    0    0  0.18858779696E+01 -0.26794657290E+01  0.31203645623E+02  0.31375206333E+02  0.00000000000E+00 0.  1.
</event>
<event>
 5    1  0.1751020E-003  0.9118800E+02  0.7818608E-02  0.1130116E+00
         25   -1    0    0    0    0  0.00000000000E+00  0.00000000000E+00  0.99999998245E-14  0.12500000000E+03  0.12500000000E+03 0.  0.
        -13    1    3    3    0    0  0.50333189092E+02 -0.29728906456E+02  0.18423232820E+00  0.58457530813E+02  0.10566000000E+00 0. -1.
         23    2    1    0    0    0  0.15775162537E+02 -0.21411823369E+02  0.11872370515E+02  0.95874837087E+02  0.91343906593E+02 0.  0.
         13    1    3    3    0    0 -0.34558026555E+02  0.83170830864E+01  0.11688138187E+02  0.37417306274E+02  0.10566000000E+00 0.  1.
         22    1    1    0    0    0 -0.15775162537E+02  0.21411823369E+02 -0.11872370515E+02  0.29125162913E+02  0.00000000000E+00 0. -1.
</event>
<event>
 5    1  0.1751020E-003  0.9118800E+02  0.7818608E-02  0.1130116E+00
         25   -1    0    0    0    0  0.00000000000E+00  0.00000000000E+00  0.99999998245E-14  0.12500000000E+03  0.12500000000E+03 0.  0.
        -13    1    3    3    0    0 -0.18423270812E+02 -0.69973709155E+01 -0.54686010752E+02  0.58128745411E+02  0.10566000000E+00 0. -1.
         23    2    1    0    0    0  0.79334600852E+01 -0.81439996407E+01 -0.22869517758E+02  0.99460239594E+02  0.96125230292E+02 0.  0.
         13    1    3    3    0    0  0.26356730897E+02 -0.11466287252E+01  0.31816492993E+02  0.41331494183E+02  0.10566000000E+00 0.  1.
         22    1    1    0    0    0 -0.79334600852E+01  0.81439996407E+01  0.22869517758E+02  0.25539760406E+02  0.00000000000E+00 0. -1.
</event>
<event>
 5    1  0.1751020E-003  0.9118800E+02  0.7818608E-02  0.1130116E+00
         25   -1    0    0    0    0  0.00000000000E+00  0.00000000000E+00  0.99999998245E-14  0.12500000000E+03  0.12500000000E+03 0.  0.
        -13    1    3    3    0    0 -0.12182300664E+02 -0.35036152985E+02 -0.97333731545E+01  0.38349578648E+02  0.10566000000E+00 0.  1.
         23    2    1    0    0    0  0.31481107069E+01  0.18281249874E+02 -0.23059277304E+02  0.95405321969E+02  0.90699120680E+02 0.  0.
         13    1    3    3    0    0  0.15330411371E+02  0.53317402859E+02 -0.13325904150E+02  0.57055743321E+02  0.10566000000E+00 0. -1.
         22    1    1    0    0    0 -0.31481107069E+01 -0.18281249874E+02  0.23059277304E+02  0.29594678031E+02  0.00000000000E+00 0. -1.
</event>
<event>
 5    1  0.1751020E-003  0.9118800E+02  0.7818608E-02  0.1130116E+00
         25   -1    0    0    0    0  0.00000000000E+00  0.00000000000E+00  0.99999998245E-14  0.12500000000E+03  0.12500000000E+03 0.  0.
        -13    1    3    3    0    0 -0.46954839741E+02 -0.21186340962E+02  0.35597649182E+01  0.51636238329E+02  0.10566000000E+00 0. -1.
         23    2    1    0    0    0 -0.20189801825E+02 -0.24295147190E+01 -0.23396085117E+02  0.94001492967E+02  0.88743299700E+02 0.  0.
         13    1    3    3    0    0  0.26765037916E+02  0.18756826243E+02 -0.26955850035E+02  0.42365254637E+02  0.10566000000E+00 0.  1.
         22    1    1    0    0    0  0.20189801825E+02  0.24295147190E+01  0.23396085117E+02  0.30998507033E+02  0.00000000000E+00 0.  1.
</event>
<event>
 5    1  0.1751020E-003  0.9118800E+02  0.7818608E-02  0.1130116E+00
         25   -1    0    0    0    0  0.00000000000E+00  0.00000000000E+00  0.99999998245E-14  0.12500000000E+03  0.12500000000E+03 0.  0.
        -13    1    3    3    0    0  0.36383105181E+02  0.15766518551E+02 -0.52870937464E+00  0.39656073273E+02  0.10566000000E+00 0. -1.
         23    2    1    0    0    0 -0.56773875569E+01 -0.15190485945E+02  0.22935972869E+02  0.96910100674E+02  0.92749798751E+02 0.  0.
         13    1    3    3    0    0 -0.42060492738E+02 -0.30957004496E+02  0.23464682244E+02  0.57254027400E+02  0.10566000000E+00 0.  1.
         22    1    1    0    0    0  0.56773875569E+01  0.15190485945E+02 -0.22935972869E+02  0.28089899326E+02  0.00000000000E+00 0.  1.
</event>
<event>
 5    1  0.1751020E-003  0.9118800E+02  0.7818608E-02  0.1130116E+00
         25   -1    0    0    0    0  0.00000000000E+00  0.00000000000E+00  0.99999998245E-14  0.12500000000E+03  0.12500000000E+03 0.  0.
        -13    1    3    3    0    0 -0.31250575853E+02  0.11099232653E+02 -0.17495237534E+01  0.33209388040E+02  0.10566000000E+00 0.  1.
         23    2    1    0    0    0  0.25307980874E+02 -0.14978304066E+02 -0.24027529413E+01  0.95493785226E+02  0.90820957419E+02 0.  0.
         13    1    3    3    0    0  0.56558556727E+02 -0.26077536719E+02 -0.65322918789E+00  0.62284397185E+02  0.10566000000E+00 0. -1.
         22    1    1    0    0    0 -0.25307980874E+02  0.14978304066E+02  0.24027529413E+01  0.29506214774E+02  0.00000000000E+00 0. -1.
</event>
<event>
 5    1  0.1751020E-003  0.9118800E+02  0.7818608E-02  0.1130116E+00
         25   -1    0    0    0    0  0.00000000000E+00  0.00000000000E+00  0.99999998245E-14  0.12500000000E+03  0.12500000000E+03 0.  0.
        -13    1    3    3    0    0  0.46494294703E+01  0.29340503503E+02  0.41269365630E+02  0.50849326876E+02  0.10566000000E+00 0. -1.
         23    2    1    0    0    0  0.14610330846E+02 -0.10572980565E+02  0.22764262844E+02  0.95957593965E+02  0.91457085518E+02 0.  0.
         13    1    3    3    0    0  0.99609013758E+01 -0.39913484068E+02 -0.18505102786E+02  0.45108267089E+02  0.10566000000E+00 0.  1.
         22    1    1    0    0    0 -0.14610330846E+02  0.10572980565E+02 -0.22764262844E+02  0.29042406035E+02  0.00000000000E+00 0. -1.
</event>
<event>
 5    1  0.1751020E-003  0.9118800E+02  0.7818608E-02  0.1130116E+00
         25   -1    0    0    0    0  0.00000000000E+00  0.00000000000E+00  0.99999998245E-14  0.12500000000E+03  0.12500000000E+03 0.  0.
        -13    1    3    3    0    0 -0.53731606889E+02  0.17915516473E+02 -0.26198410297E+02  0.62405281631E+02  0.10566000000E+00 0.  1.
         23    2    1    0    0    0 -0.28522184264E+02  0.70144452716E+01 -0.14146837424E+02  0.92398612809E+02  0.86456076723E+02 0.  0.
         13    1    3    3    0    0  0.25209422625E+02 -0.10901071201E+02  0.12051572872E+02  0.29993331178E+02  0.10566000000E+00 0. -1.
         22    1    1    0    0    0  0.28522184264E+02 -0.70144452716E+01  0.14146837424E+02  0.32601387191E+02  0.00000000000E+00 0.  1.
</event>
<event>
 5    1  0.1751020E-003  0.9118800E+02  0.7818608E-02  0.1130116E+00
         25   -1    0    0    0    0  0.00000000000E+00  0.00000000000E+00  0.99999998245E-14  0.12500000000E+03  0.12500000000E+03 0.  0.
        -13    1    3    3    0    0 -0.33028753240E+02 -0.19670216134E+02 -0.11668208917E+02  0.40174297837E+02  0.10566000000E+00 0. -1.
         23    2    1    0    0    0 -0.11682110366E+02  0.87508523317E+01  0.27991411101E+02  0.93431531324E+02  0.87936811581E+02 0.  0.
         13    1    3    3    0    0  0.21346642874E+02  0.28421068465E+02  0.39659620018E+02  0.53257233487E+02  0.10566000000E+00 0.  1.
         22    1    1    0    0    0  0.11682110366E+02 -0.87508523317E+01 -0.27991411101E+02  0.31568468676E+02  0.00000000000E+00 0.  1.
</event>
<event>
 5    1  0.1751020E-003  0.9118800E+02  0.7818608E-02  0.1130116E+00
         25   -1    0    0    0    0  0.00000000000E+00  0.00000000000E+00  0.99999998245E-14  0.12500000000E+03  0.12500000000E+03 0.  0.
        -13    1    3    3    0    0 -0.12577798609E+02 -0.43781524546E+02 -0.40799914596E+02  0.61152817634E+02  0.10566000000E+00 0. -1.
         23    2    1    0    0    0 -0.14443052129E+02 -0.19060185824E+02 -0.15951329960E+02  0.96253915641E+02  0.91861193713E+02 0.  0.
         13    1    3    3    0    0 -0.18652535203E+01  0.24721338722E+02  0.24848584636E+02  0.35101098008E+02  0.10566000000E+00 0.  1.
         22    1    1    0    0    0  0.14443052129E+02  0.19060185824E+02  0.15951329960E+02  0.28746084359E+02  0.00000000000E+00 0. -1.
</event>
<event>
 5    1  0.1751020E-003  0.9118800E+02  0.7818608E-02  0.1130116E+00
         25   -1    0    0    0    0  0.00000000000E+00  0.00000000000E+00  0.99999998245E-14  0.12500000000E+03  0.12500000000E+03 0.  0.
        -13    1    3    3    0    0  0.14666275817E+02  0.28890664126E+02 -0.34588362718E+02  0.47393418525E+02  0.10566000000E+00 0. -1.
         23    2    1    0    0    0  0.23122437040E+02  0.13356465870E+02  0.10868526129E+02  0.96170030603E+02  0.91746976249E+02 0.  0.
         13    1    3    3    0    0  0.84561612232E+01 -0.15534198256E+02  0.45456888847E+02  0.48776612078E+02  0.10566000000E+00 0.  1.
         22    1    1    0    0    0 -0.23122437040E+02 -0.13356465870E+02 -0.10868526129E+02  0.28829969397E+02  0.00000000000E+00 0.  1.
</event>
<event>
 5    1  0.1751020E-003  0.9118800E+02  0.7818608E-02  0.1130116E+00
         25   -1    0    0    0    0  0.00000000000E+00  0.00000000000E+00  0.99999998245E-14  0.12500000000E+03  0.12500000000E+03 0.  0.
        -13    1    3    3    0    0 -0.20050140748E+02 -0.12490634125E+02  0.36631872764E+02  0.43588179029E+02  0.10566000000E+00 0. -1.
         23    2    1    0    0    0 -0.17518544964E+02 -0.15043046907E+02 -0.16359292439E+02  0.96701252201E+02  0.92467902811E+02 0.  0.
         13    1    3    3    0    0  0.25315957838E+01 -0.25524127819E+01 -0.52991165203E+02  0.53113073172E+02  0.10566000000E+00 0.  1.
         22    1    1    0    0    0  0.17518544964E+02  0.15043046907E+02  0.16359292439E+02  0.28298747799E+02  0.00000000000E+00 0.  1.
</event>
<event>
 5    1  0.1751020E-003  0.9118800E+02  0.7818608E-02  0.1130116E+00
         25   -1    0    0    0    0  0.00000000000E+00  0.00000000000E+00  0.99999998245E-14  0.12500000000E+03  0.12500000000E+03 0.  0.
        -13    1    3    3    0    0  0.48970225874E+01 -0.37119189502E+02 -0.16217301771E+02  0.40802292831E+02  0.10566000000E+00 0.  1.
         23    2    1    0    0    0  0.24424886432E+02  0.13801518714E+02 -0.44402595891E+01  0.96596251986E+02  0.92325852265E+02 0.  0.
         13    1    3    3    0    0  0.19527863844E+02  0.50920708216E+02  0.11777042182E+02  0.55793959155E+02  0.10566000000E+00 0. -1.
         22    1    1    0    0    0 -0.24424886432E+02 -0.13801518714E+02  0.44402595891E+01  0.28403748014E+02  0.00000000000E+00 0. -1.
</event>
<event>
 5    1  0.1751020E-003  0.9118800E+02  0.7818608E-02  0.1130116E+00
         25   -1    0    0    0    0  0.00000000000E+00  0.00000000000E+00  0.99999998245E-14  0.12500000000E+03  0.12500000000E+03 0.  0.
        -13    1    3    3    0    0 -0.35482823351E+02  0.31416081862E+01 -0.16856915672E+02  0.39408973914E+02  0.10566000000E+00 0.  1.
         23    2    1    0    0    0  0.20252268027E+02 -0.72108240412E+01 -0.19243353744E+02  0.96147668952E+02  0.91716504719E+02 0.  0.
         13    1    3    3    0    0  0.55735091378E+02 -0.10352432227E+02 -0.23864380728E+01  0.56738695038E+02  0.10566000000E+00 0. -1.
         22    1    1    0    0    0 -0.20252268027E+02  0.72108240412E+01  0.19243353744E+02  0.28852331048E+02  0.00000000000E+00 0. -1.
</event>
<event>
 5    1  0.1751020E-003  0.9118800E+02  0.7818608E-02  0.1130116E+00
         25   -1    0    0    0    0  0.00000000000E+00  0.00000000000E+00  0.99999998245E-14  0.12500000000E+03  0.12500000000E+03 0.  0.
        -13    1    3    3    0    0 -0.19912494523E+02 -0.30041624100E+02  0.23231784555E+02  0.42880457022E+02  0.10566000000E+00 0.  1.
         23    2    1    0    0    0  0.23998279332E+02 -0.42383926950E+01  0.19208537757E+02  0.93970186815E+02  0.88699192238E+02 0.  0.
         13    1    3    3    0    0  0.43910773856E+02  0.25803231405E+02 -0.40232467983E+01  0.51089729793E+02  0.10566000000E+00 0. -1.
         22    1    1    0    0    0 -0.23998279332E+02  0.42383926950E+01 -0.19208537757E+02  0.31029813185E+02  0.00000000000E+00 0. -1.
</event>
<event>
 5    1  0.1751020E-003  0.9118800E+02  0.7818608E-02  0.1130116E+00
         25   -1    0    0    0    0  0.00000000000E+00  0.00000000000E+00  0.99999998245E-14  0.12500000000E+03  0.12500000000E+03 0.  0.
        -13    1    3    3    0    0  0.35997786263E+02  0.80642489529E+01 -0.27992557307E+01  0.36996212288E+02  0.10566000000E+00 0. -1.
         23    2    1    0    0    0 -0.10745277874E+02 -0.21189259906E+02  0.17217239570E+02  0.95659259205E+02  0.91048420092E+02 0.  0.
         13    1    3    3    0    0 -0.46743064136E+02 -0.29253508859E+02  0.20016495301E+02  0.58663046917E+02  0.10566000000E+00 0.  1.
         22    1    1    0    0    0  0.10745277874E+02  0.21189259906E+02 -0.17217239570E+02  0.29340740795E+02  0.00000000000E+00 0.  1.
</event>
<event>
 5    1  0.1751020E-003  0.9118800E+02  0.7818608E-02  0.1130116E+00
         25   -1    0    0    0    0  0.00000000000E+00  0.00000000000E+00  0.99999998245E-14  0.12500000000E+03  0.12500000000E+03 0.  0.
        -13    1    3    3    0    0 -0.18095880582E+02  0.11313974091E+02  0.31580386870E+02  0.38115599203E+02  0.10566000000E+00 0.  1.
         23    2    1    0    0    0 -0.12047627434E+02 -0.24325292596E+02 -0.12493356131E+02  0.95117745498E+02  0.90301917890E+02 0.  0.
         13    1    3    3    0    0  0.60482531475E+01 -0.35639266687E+02 -0.44073743000E+02  0.57002146295E+02  0.10566000000E+00 0. -1.
         22    1    1    0    0    0  0.12047627434E+02  0.24325292596E+02  0.12493356131E+02  0.29882254502E+02  0.00000000000E+00 0. -1.
</event>
<event>
 5    1  0.1751020E-003  0.9118800E+02  0.7818608E-02  0.1130116E+00
         25   -1    0    0    0    0  0.00000000000E+00  0.00000000000E+00  0.99999998245E-14  0.12500000000E+03  0.12500000000E+03 0.  0.
        -13    1    3    3    0    0  0.33748992317E+02  0.16133143001E+02 -0.44654304336E+01  0.37672589751E+02  0.10566000000E+00 0.  1.
         23    2    1    0    0    0 -0.21487418675E+02  0.14683384712E+02  0.13377951442E+02  0.95737728511E+02  0.91156086619E+02 0.  0.
         13    1    3    3    0    0 -0.55236410993E+02 -0.14497582894E+01  0.17843381875E+02  0.58065138760E+02  0.10566000000E+00 0. -1.
         22    1    1    0    0    0  0.21487418675E+02 -0.14683384712E+02 -0.13377951442E+02  0.29262271489E+02  0.00000000000E+00 0. -1.
</event>
<event>
 5    1  0.1751020E-003  0.9118800E+02  0.7818608E-02  0.1130116E+00
         25   -1    0    0    0    0  0.00000000000E+00  0.00000000000E+00  0.99999998245E-14  0.12500000000E+03  0.12500000000E+03 0.  0.
        -13    1    3    3    0    0 -0.50449812412E+01 -0.42001350666E+02  0.26768958059E+02  0.50061497911E+02  0.10566000000E+00 0. -1.
         23    2    1    0    0    0 -0.22644440961E+02 -0.16184482489E+02 -0.72356274980E+01  0.96241305920E+02  0.91844033448E+02 0.  0.
         13    1    3    3    0    0 -0.17599459720E+02  0.25816868177E+02 -0.34004585557E+02  0.46179808010E+02  0.10566000000E+00 0.  1.
         22    1    1    0    0    0  0.22644440961E+02  0.16184482489E+02  0.72356274980E+01  0.28758694080E+02  0.00000000000E+00 0. -1.
</event>
<event>
 5    1  0.1751020E-003  0.9118800E+02  0.7818608E-02  0.1130116E+00
         25   -1    0    0    0    0  0.00000000000E+00  0.00000000000E+00  0.99999998245E-14  0.12500000000E+03  0.12500000000E+03 0.  0.
        -13    1    3    3    0    0  0.51938645548E+02  0.99814287700E+01  0.88702083634E+01  0.53627824701E+02  0.10566000000E+00 0. -1.
         23    2    1    0    0    0  0.12166619507E+02  0.11276318896E+01  0.24781385624E+02  0.97370029726E+02  0.93367593047E+02 0.  0.
         13    1    3    3    0    0 -0.39772026041E+02 -0.88537968805E+01  0.15911177261E+02  0.43742205025E+02  0.10566000000E+00 0.  1.
         22    1    1    0    0    0 -0.12166619507E+02 -0.11276318896E+01 -0.24781385624E+02  0.27629970274E+02  0.00000000000E+00 0.  1.
</event>
<event>
 5    1  0.1751020E-003  0.9118800E+02  0.7818608E-02  0.1130116E+00
         25   -1    0    0    0    0  0.00000000000E+00  0.00000000000E+00  0.99999998245E-14  0.12500000000E+03  0.12500000000E+03 0.  0.
        -13    1    3    3    0    0 -0.43570996089E+02 -0.28190868830E+02  0.22496736994E+02  0.56562099722E+02  0.10566000000E+00 0. -1.
         23    2    1    0    0    0 -0.63874941378E+01 -0.17146926699E+02  0.23317810064E+02  0.95359867700E+02  0.90636454725E+02 0.  0.
         13    1    3    3    0    0  0.37183501951E+02  0.11043942131E+02  0.82107307018E+00  0.38797767979E+02  0.10566000000E+00 0.  1.
         22    1    1    0    0    0  0.63874941378E+01  0.17146926699E+02 -0.23317810064E+02  0.29640132300E+02  0.00000000000E+00 0. -1.
</event>
<event>
 5    1  0.1751020E-003  0.9118800E+02  0.7818608E-02  0.1130116E+00
         25   -1    0    0    0    0  0.00000000000E+00  0.00000000000E+00  0.99999998245E-14  0.12500000000E+03  0.12500000000E+03 0.  0.
        -13    1    3    3    0    0  0.69513865765E+01 -0.37245173171E+02  0.29580842789E+01  0.38003764636E+02  0.10566000000E+00 0.  1.
         23    2    1    0    0    0 -0.36378890419E+01  0.22518410418E+02  0.11765578097E+02  0.99334032798E+02  0.95960972273E+02 0.  0.
         13    1    3    3    0    0 -0.10589275618E+02  0.59763583589E+02  0.88074938177E+01  0.61330268163E+02  0.10566000000E+00 0. -1.
         22    1    1    0    0    0  0.36378890419E+01 -0.22518410418E+02 -0.11765578097E+02  0.25665967202E+02  0.00000000000E+00 0. -1.
</event>
<event>
 5    1  0.1751020E-003  0.9118800E+02  0.7818608E-02  0.1130116E+00
         25   -1    0    0    0    0  0.00000000000E+00  0.00000000000E+00  0.99999998245E-14  0.12500000000E+03  0.12500000000E+03 0.  0.
        -13    1    3    3    0    0 -0.56500545297E+02 -0.62101393443E+01 -0.24156539182E+02  0.61761047585E+02  0.10566000000E+00 0.  1.
         23    2    1    0    0    0 -0.23370793363E+02 -0.90319477036E+01 -0.12540061527E+02  0.96981734443E+02  0.92846290237E+02 0.  0.
         13    1    3    3    0    0  0.33129751934E+02 -0.28218083593E+01  0.11616477655E+02  0.35220686858E+02  0.10566000000E+00 0. -1.
         22    1    1    0    0    0  0.23370793363E+02  0.90319477036E+01  0.12540061527E+02  0.28018265557E+02  0.00000000000E+00 0.  1.
</event>
<event>
 5    1  0.1751020E-003  0.9118800E+02  0.7818608E-02  0.1130116E+00
         25   -1    0    0    0    0  0.00000000000E+00  0.00000000000E+00  0.99999998245E-14  0.12500000000E+03  0.12500000000E+03 0.  0.
        -13    1    3    3    0    0  0.25932110896E+02  0.33006380861E+02 -0.41797276137E+02  0.59236129259E+02  0.10566000000E+00 0.  1.
         23    2    1    0    0    0 -0.76907977072E+00  0.21768848835E+02 -0.18868249720E+02  0.96181861428E+02  0.91763093654E+02 0.  0.
         13    1    3    3    0    0 -0.26701190666E+02 -0.11237532027E+02  0.22929026417E+02  0.36945732169E+02  0.10566000000E+00 0. -1.
         22    1    1    0    0    0  0.76907977072E+00 -0.21768848835E+02  0.18868249720E+02  0.28818138572E+02  0.00000000000E+00 0.  1.
</event>
<event>
 5    1  0.1751020E-003  0.9118800E+02  0.7818608E-02  0.1130116E+00
         25   -1    0    0    0    0  0.00000000000E+00  0.00000000000E+00  0.99999998245E-14  0.12500000000E+03  0.12500000000E+03 0.  0.
        -13    1    3    3    0    0 -0.25363104327E+02  0.27813215422E+02  0.54120700265E+01  0.38028458807E+02  0.10566000000E+00 0.  1.
         23    2    1    0    0    0  0.20432670076E+02  0.77329489578E+01 -0.21100415955E+02  0.94626984683E+02  0.89620009879E+02 0.  0.
         13    1    3    3    0    0  0.45795774402E+02 -0.20080266465E+02 -0.26512485981E+02  0.56598525876E+02  0.10566000000E+00 0. -1.
         22    1    1    0    0    0 -0.20432670076E+02 -0.77329489578E+01  0.21100415955E+02  0.30373015317E+02  0.00000000000E+00 0. -1.
</event>
<event>
 5    1  0.1751020E-003  0.9118800E+02  0.7818608E-02  0.1130116E+00
         25   -1    0    0    0    0  0.00000000000E+00  0.00000000000E+00  0.99999998245E-14  0.12500000000E+03  0.12500000000E+03 0.  0.
        -13    1    3    3    0    0 -0.25818565424E+02 -0.37954736615E+02  0.42312636229E+01  0.46098536939E+02  0.10566000000E+00 0. -1.
         23    2    1    0    0    0  0.14170601046E+02 -0.20160715195E+02 -0.17313511841E+02  0.94883259415E+02  0.89976746184E+02 0.  0.
         13    1    3    3    0    0  0.39989166470E+02  0.17794021420E+02 -0.21544775464E+02  0.48784722476E+02  0.10566000000E+00 0.  1.
         22    1    1    0    0    0 -0.14170601046E+02  0.20160715195E+02  0.17313511841E+02  0.30116740585E+02  0.00000000000E+00 0.  1.
</event>
<event>
 5    1  0.1751020E-003  0.9118800E+02  0.7818608E-02  0.1130116E+00
         25   -1    0    0    0    0  0.00000000000E+00  0.00000000000E+00  0.99999998245E-14  0.12500000000E+03  0.12500000000E+03 0.  0.
        -13    1    3    3    0    0 -0.43729148180E+01  0.19176957654E+01 -0.52131461765E+02  0.52349789024E+02  0.10566000000E+00 0.  1.
         23    2    1    0    0    0 -0.18810750995E+02  0.17755102528E+02 -0.15343463373E+02  0.94924929143E+02  0.90034617152E+02 0.  0.
         13    1    3    3    0    0 -0.14437836177E+02  0.15837406763E+02  0.36787998392E+02  0.42575140119E+02  0.10566000000E+00 0. -1.
         22    1    1    0    0    0  0.18810750995E+02 -0.17755102528E+02  0.15343463373E+02  0.30075070857E+02  0.00000000000E+00 0.  1.
</event>
<event>
 5    1  0.1751020E-003  0.9118800E+02  0.7818608E-02  0.1130116E+00
         25   -1    0    0    0    0  0.00000000000E+00  0.00000000000E+00  0.99999998245E-14  0.12500000000E+03  0.12500000000E+03 0.  0.
        -13    1    3    3    0    0 -0.29313035486E+02  0.12243718635E+02  0.38382257953E+01  0.31998528664E+02  0.10566000000E+00 0.  1.
         23    2    1    0    0    0  0.23192377331E+02 -0.18978078413E+02  0.10029774320E+02  0.93398572826E+02  0.87889949406E+02 0.  0.
         13    1    3    3    0    0  0.52505412817E+02 -0.31221797048E+02  0.61915485244E+01  0.61400044162E+02  0.10566000000E+00 0. -1.
         22    1    1    0    0    0 -0.23192377331E+02  0.18978078413E+02 -0.10029774320E+02  0.31601427174E+02  0.00000000000E+00 0. -1.
</event>
<event>
 5    1  0.1751020E-003  0.9118800E+02  0.7818608E-02  0.1130116E+00
         25   -1    0    0    0    0  0.00000000000E+00  0.00000000000E+00  0.99999998245E-14  0.12500000000E+03  0.12500000000E+03 0.  0.
        -13    1    3    3    0    0 -0.49728516556E+02  0.12933331933E+02 -0.68315600053E+01  0.51835102101E+02  0.10566000000E+00 0. -1.
         23    2    1    0    0    0 -0.15326065662E+02 -0.78102761846E+01 -0.23958258971E+02  0.95506155291E+02  0.90837981169E+02 0.  0.
         13    1    3    3    0    0  0.34402450894E+02 -0.20743608117E+02 -0.17126698966E+02  0.43671053190E+02  0.10566000000E+00 0.  1.
         22    1    1    0    0    0  0.15326065662E+02  0.78102761846E+01  0.23958258971E+02  0.29493844709E+02  0.00000000000E+00 0. -1.
</event>
<event>
 5    1  0.1751020E-003  0.9118800E+02  0.7818608E-02  0.1130116E+00
         25   -1    0    0    0    0  0.00000000000E+00  0.00000000000E+00  0.99999998245E-14  0.12500000000E+03  0.12500000000E+03 0.  0.
        -13    1    3    3    0    0  0.23877957866E+02 -0.57063881244E+02 -0.19068511536E+01  0.61887726245E+02  0.10566000000E+00 0. -1.
         23    2    1    0    0    0  0.16006080893E+02 -0.22911146650E+02  0.79681569775E+00  0.97040204192E+02  0.92924975373E+02 0.  0.
         13    1    3    3    0    0 -0.78718769733E+01  0.34152734594E+02  0.27036668513E+01  0.35152477947E+02  0.10566000000E+00 0.  1.
         22    1    1    0    0    0 -0.16006080893E+02  0.22911146650E+02 -0.79681569775E+00  0.27959795808E+02  0.00000000000E+00 0. -1.
</event>
<event>
 5    1  0.1751020E-003  0.9118800E+02  0.7818608E-02  0.1130116E+00
         25   -1    0    0    0    0  0.00000000000E+00  0.00000000000E+00  0.99999998245E-14  0.12500000000E+03  0.12500000000E+03 0.  0.
        -13    1    3    3    0    0  0.29430756262E+01 -0.36074375524E+02 -0.14208103182E+02  0.38883204904E+02  0.10566000000E+00 0.  1.
         23    2    1    0    0    0 -0.24181345188E+02  0.14014759227E+02 -0.56713246504E+01  0.96481324459E+02  0.92170120510E+02 0.  0.
         13    1    3    3    0    0 -0.27124420814E+02  0.50089134751E+02  0.85367785312E+01  0.57598119555E+02  0.10566000000E+00 0. -1.
         22    1    1    0    0    0  0.24181345188E+02 -0.14014759227E+02  0.56713246504E+01  0.28518675541E+02  0.00000000000E+00 0. -1.
</event>
<event>
 5    1  0.1751020E-003  0.9118800E+02  0.7818608E-02  0.1130116E+00
         25   -1    0    0    0    0  0.00000000000E+00  0.00000000000E+00  0.99999998245E-14  0.12500000000E+03  0.12500000000E+03 0.  0.
        -13    1    3    3    0    0 -0.98689370745E+01  0.17515708048E+02  0.47760082642E+02  0.51819230074E+02  0.10566000000E+00 0.  1.
         23    2    1    0    0    0 -0.15334485994E+01  0.27736030119E+02  0.47342918330E+01  0.96821065482E+02  0.92629727251E+02 0.  0.
         13    1    3    3    0    0  0.83354884751E+01  0.10220322071E+02 -0.43025790809E+02  0.45001835409E+02  0.10566000000E+00 0. -1.
         22    1    1    0    0    0  0.15334485994E+01 -0.27736030119E+02 -0.47342918330E+01  0.28178934518E+02  0.00000000000E+00 0.  1.
</event>
<event>
 5    1  0.1751020E-003  0.9118800E+02  0.7818608E-02  0.1130116E+00
         25   -1    0    0    0    0  0.00000000000E+00  0.00000000000E+00  0.99999998245E-14  0.12500000000E+03  0.12500000000E+03 0.  0.
        -13    1    3    3    0    0  0.28516718722E+02  0.29295428678E+01  0.46716469045E+02  0.54810812001E+02  0.10566000000E+00 0.  1.
         23    2    1    0    0    0  0.25228195279E+02 -0.11910384786E+02  0.86634181733E+01  0.95787435628E+02  0.91224223247E+02 0.  0.
         13    1    3    3    0    0 -0.32885234439E+01 -0.14839927653E+02 -0.38053050872E+02  0.40976623627E+02  0.10566000000E+00 0. -1.
         22    1    1    0    0    0 -0.25228195279E+02  0.11910384786E+02 -0.86634181733E+01  0.29212564372E+02  0.00000000000E+00 0.  1.
</event>
<event>
 5    1  0.1751020E-003  0.9118800E+02  0.7818608E-02  0.1130116E+00
         25   -1    0    0    0    0  0.00000000000E+00  0.00000000000E+00  0.99999998245E-14  0.12500000000E+03  0.12500000000E+03 0.  0.
        -13    1    3    3    0    0 -0.24343547277E+02 -0.30488500830E+02 -0.14259410166E+02  0.41539125162E+02  0.10566000000E+00 0. -1.
         23    2    1    0    0    0  0.37864270163E+01 -0.28124267881E+01  0.26389382040E+02  0.98192421623E+02  0.94462190350E+02 0.  0.
         13    1    3    3    0    0  0.28129974293E+02  0.27676074042E+02  0.40648792206E+02  0.56653296461E+02  0.10566000000E+00 0.  1.
         22    1    1    0    0    0 -0.37864270163E+01  0.28124267881E+01 -0.26389382040E+02  0.26807578377E+02  0.00000000000E+00 0.  1.
</event>
<event>
 5    1  0.1751020E-003  0.9118800E+02  0.7818608E-02  0.1130116E+00
         25   -1    0    0    0    0  0.00000000000E+00  0.00000000000E+00  0.99999998245E-14  0.12500000000E+03  0.12500000000E+03 0.  0.
        -13    1    3    3    0    0 -0.56055582416E+02 -0.13160660797E+02 -0.15292259626E+02  0.59575965633E+02  0.10566000000E+00 0.  1.
         23    2    1    0    0    0 -0.22824415414E+02 -0.53795858356E+00 -0.18974014338E+02  0.95314034317E+02  0.90573222198E+02 0.  0.
         13    1    3    3    0    0  0.33231167002E+02  0.12622702213E+02 -0.36817547119E+01  0.35738068684E+02  0.10566000000E+00 0. -1.
         22    1    1    0    0    0  0.22824415414E+02  0.53795858356E+00  0.18974014338E+02  0.29685965683E+02  0.00000000000E+00 0.  1.
</event>
<event>
 5    1  0.1751020E-003  0.9118800E+02  0.7818608E-02  0.1130116E+00
         25   -1    0    0    0    0  0.00000000000E+00  0.00000000000E+00  0.99999998245E-14  0.12500000000E+03  0.12500000000E+03 0.  0.
        -13    1    3    3    0    0  0.41616745689E+02 -0.31539448070E+02 -0.12393365592E+02  0.53668398346E+02  0.10566000000E+00 0.  1.
         23    2    1    0    0    0  0.12525315867E+02 -0.77666518219E+01 -0.27210819859E+02  0.94054351913E+02  0.88817723335E+02 0.  0.
         13    1    3    3    0    0 -0.29091429822E+02  0.23772796248E+02 -0.14817454267E+02  0.40385953568E+02  0.10566000000E+00 0. -1.
         22    1    1    0    0    0 -0.12525315867E+02  0.77666518219E+01  0.27210819859E+02  0.30945648087E+02  0.00000000000E+00 0.  1.
</event>
<event>
 5    1  0.1751020E-003  0.9118800E+02  0.7818608E-02  0.1130116E+00
         25   -1    0    0    0    0  0.00000000000E+00  0.00000000000E+00  0.99999998245E-14  0.12500000000E+03  0.12500000000E+03 0.  0.
        -13    1    3    3    0    0  0.36052916669E+01 -0.32768808224E+02 -0.20732438322E+02  0.38944037839E+02  0.10566000000E+00 0.  1.
         23    2    1    0    0    0  0.24637463650E+02  0.96242978179E+01  0.11453873772E+02  0.96176000486E+02  0.91755109512E+02 0.  0.
         13    1    3    3    0    0  0.21032171983E+02  0.42393106042E+02  0.32186312094E+02  0.57231962647E+02  0.10566000000E+00 0. -1.
         22    1    1    0    0    0 -0.24637463650E+02 -0.96242978179E+01 -0.11453873772E+02  0.28823999514E+02  0.00000000000E+00 0. -1.
</event>
<event>
 5    1  0.1751020E-003  0.9118800E+02  0.7818608E-02  0.1130116E+00
         25   -1    0    0    0    0  0.00000000000E+00  0.00000000000E+00  0.99999998245E-14  0.12500000000E+03  0.12500000000E+03 0.  0.
        -13    1    3    3    0    0  0.53533659369E+02 -0.18705453055E+02  0.86859582059E+01  0.57369013355E+02  0.10566000000E+00 0.  1.
         23    2    1    0    0    0  0.26645230787E+02  0.85256195369E+01  0.89119055483E+01  0.95638859479E+02  0.91020409084E+02 0.  0.
         13    1    3    3    0    0 -0.26888428581E+02  0.27231072592E+02  0.22594734239E+00  0.38269846124E+02  0.10566000000E+00 0. -1.
         22    1    1    0    0    0 -0.26645230787E+02 -0.85256195369E+01 -0.89119055483E+01  0.29361140521E+02  0.00000000000E+00 0.  1.
</event>
<event>
 5    1  0.1751020E-003  0.9118800E+02  0.7818608E-02  0.1130116E+00
         25   -1    0    0    0    0  0.00000000000E+00  0.00000000000E+00  0.99999998245E-14  0.12500000000E+03  0.12500000000E+03 0.  0.
        -13    1    3    3    0    0  0.52887175519E+02  0.25289106852E+02  0.63575274708E+01  0.58966274932E+02  0.10566000000E+00 0.  1.
         23    2    1    0    0    0  0.28128442431E+02  0.40770753239E+01 -0.92469978116E+01  0.95111226433E+02  0.90292893454E+02 0.  0.
         13    1    3    3    0    0 -0.24758733088E+02 -0.21212031528E+02 -0.15604525282E+02  0.36144951501E+02  0.10566000000E+00 0. -1.
         22    1    1    0    0    0 -0.28128442431E+02 -0.40770753239E+01  0.92469978116E+01  0.29888773567E+02  0.00000000000E+00 0.  1.
</event>
<event>
 5    1  0.1751020E-003  0.9118800E+02  0.7818608E-02  0.1130116E+00
         25   -1    0    0    0    0  0.00000000000E+00  0.00000000000E+00  0.99999998245E-14  0.12500000000E+03  0.12500000000E+03 0.  0.
        -13    1    3    3    0    0  0.17242792371E+02 -0.18094479441E+02 -0.41310611543E+02  0.48283556881E+02  0.10566000000E+00 0. -1.
         23    2    1    0    0    0  0.29614979973E+02  0.13938894979E+01 -0.29298760289E+00  0.95350787389E+02  0.90623930874E+02 0.  0.
         13    1    3    3    0    0  0.12372187602E+02  0.19488368939E+02  0.41017623940E+02  0.47067230508E+02  0.10566000000E+00 0.  1.
         22    1    1    0    0    0 -0.29614979973E+02 -0.13938894979E+01  0.29298760289E+00  0.29649212611E+02  0.00000000000E+00 0.  1.
</event>
<event>
 5    1  0.1751020E-003  0.9118800E+02  0.7818608E-02  0.1130116E+00
         25   -1    0    0    0    0  0.00000000000E+00  0.00000000000E+00  0.99999998245E-14  0.12500000000E+03  0.12500000000E+03 0.  0.
        -13    1    3    3    0    0 -0.27846631300E+02 -0.17947037574E+02 -0.50802910906E+01  0.33516437072E+02  0.10566000000E+00 0.  1.
         23    2    1    0    0    0  0.15357406012E+02  0.25632703969E+02  0.29378703087E+00  0.95117367201E+02  0.90301394232E+02 0.  0.
         13    1    3    3    0    0  0.43204037312E+02  0.43579741543E+02  0.53740781215E+01  0.61600930129E+02  0.10566000000E+00 0. -1.
         22    1    1    0    0    0 -0.15357406012E+02 -0.25632703969E+02 -0.29378703087E+00  0.29882632799E+02  0.00000000000E+00 0. -1.
</event>
<event>
 5    1  0.1751020E-003  0.9118800E+02  0.7818608E-02  0.1130116E+00
         25   -1    0    0    0    0  0.00000000000E+00  0.00000000000E+00  0.99999998245E-14  0.12500000000E+03  0.12500000000E+03 0.  0.
        -13    1    3    3    0    0 -0.77956352427E+01 -0.13111157683E+02  0.58511853580E+02  0.60467533091E+02  0.10566000000E+00 0. -1.
         23    2    1    0    0    0  0.60310127456E+01 -0.34698661053E+00  0.28313967136E+02  0.96048760831E+02  0.91581604090E+02 0.  0.
         13    1    3    3    0    0  0.13826647988E+02  0.12764171073E+02 -0.30197886444E+02  0.35581227740E+02  0.10566000000E+00 0.  1.
         22    1    1    0    0    0 -0.60310127456E+01  0.34698661053E+00 -0.28313967136E+02  0.28951239169E+02  0.00000000000E+00 0. -1.
</event>
<event>
 5    1  0.1751020E-003  0.9118800E+02  0.7818608E-02  0.1130116E+00
         25   -1    0    0    0    0  0.00000000000E+00  0.00000000000E+00  0.99999998245E-14  0.12500000000E+03  0.12500000000E+03 0.  0.
        -13    1    3    3    0    0  0.32965035958E+02  0.32504137323E+02 -0.19880853962E+02  0.50383251752E+02  0.10566000000E+00 0.  1.
         23    2    1    0    0    0 -0.61388091489E+01  0.10440258976E+02 -0.26590678417E+02  0.95781030752E+02  0.91215446543E+02 0.  0.
         13    1    3    3    0    0 -0.39103845107E+02 -0.22063878347E+02 -0.67098244550E+01  0.45397779000E+02  0.10566000000E+00 0. -1.
         22    1    1    0    0    0  0.61388091489E+01 -0.10440258976E+02  0.26590678417E+02  0.29218969248E+02  0.00000000000E+00 0.  1.
</event>
<event>
 5    1  0.1751020E-003  0.9118800E+02  0.7818608E-02  0.1130116E+00
         25   -1    0    0    0    0  0.00000000000E+00  0.00000000000E+00  0.99999998245E-14  0.12500000000E+03  0.12500000000E+03 0.  0.
        -13    1    3    3    0    0  0.46540211950E+01 -0.12213165186E+02 -0.32941023513E+02  0.35439293324E+02  0.10566000000E+00 0.  1.
         23    2    1    0    0    0  0.36448574593E+02 -0.61611122790E+01  0.75450264654E+01  0.87272220861E+02  0.78695966957E+02 0.  0.
         13    1    3    3    0    0  0.31794553398E+02  0.60520529066E+01  0.40486049979E+02  0.51832927537E+02  0.10566000000E+00 0. -1.
         22    1    1    0    0    0 -0.36448574593E+02  0.61611122790E+01 -0.75450264654E+01  0.37727779139E+02  0.00000000000E+00 0. -1.
</event>
<event>
 5    1  0.1751020E-003  0.9118800E+02  0.7818608E-02  0.1130116E+00
         25   -1    0    0    0    0  0.00000000000E+00  0.00000000000E+00  0.99999998245E-14  0.12500000000E+03  0.12500000000E+03 0.  0.
        -13    1    3    3    0    0 -0.15473634152E+02 -0.10002807220E+02  0.43034845446E+02  0.46813444573E+02  0.10566000000E+00 0.  1.
         23    2    1    0    0    0  0.24006820584E+02  0.17849214200E+01  0.15610863750E+02  0.96308320962E+02  0.91935195874E+02 0.  0.
         13    1    3    3    0    0  0.39480454736E+02  0.11787728640E+02 -0.27423981696E+02  0.49494876389E+02  0.10566000000E+00 0. -1.
         22    1    1    0    0    0 -0.24006820584E+02 -0.17849214200E+01 -0.15610863750E+02  0.28691679038E+02  0.00000000000E+00 0.  1.
</event>
<event>
 5    1  0.1751020E-003  0.9118800E+02  0.7818608E-02  0.1130116E+00
         25   -1    0    0    0    0  0.00000000000E+00  0.00000000000E+00  0.99999998245E-14  0.12500000000E+03  0.12500000000E+03 0.  0.
        -13    1    3    3    0    0  0.18658446555E+02  0.20414164701E+02  0.46214017706E+02  0.53857426088E+02  0.10566000000E+00 0.  1.
         23    2    1    0    0    0  0.21966894555E+02 -0.93999925636E+01  0.17493441776E+02  0.95387083531E+02  0.90673981289E+02 0.  0.
         13    1    3    3    0    0  0.33084480001E+01 -0.29814157264E+02 -0.28720575930E+02  0.41529657443E+02  0.10566000000E+00 0. -1.
         22    1    1    0    0    0 -0.21966894555E+02  0.93999925636E+01 -0.17493441776E+02  0.29612916469E+02  0.00000000000E+00 0.  1.
</event>
<event>
 5    1  0.1751020E-003  0.9118800E+02  0.7818608E-02  0.1130116E+00
         25   -1    0    0    0    0  0.00000000000E+00  0.00000000000E+00  0.99999998245E-14  0.12500000000E+03  0.12500000000E+03 0.  0.
        -13    1    3    3    0    0 -0.39033593295E+02  0.25912775941E+02  0.32899435035E+02  0.57249256346E+02  0.10566000000E+00 0. -1.
         23    2    1    0    0    0 -0.21999670635E+02 -0.57666101340E+01  0.17153217951E+02  0.96513649118E+02  0.92213948400E+02 0.  0.
         13    1    3    3    0    0  0.17033922660E+02 -0.31679386075E+02 -0.15746217084E+02  0.39264392772E+02  0.10566000000E+00 0.  1.
         22    1    1    0    0    0  0.21999670635E+02  0.57666101340E+01 -0.17153217951E+02  0.28486350882E+02  0.00000000000E+00 0. -1.
</event>
<event>
 5    1  0.1751020E-003  0.9118800E+02  0.7818608E-02  0.1130116E+00
         25   -1    0    0    0    0  0.00000000000E+00  0.00000000000E+00  0.99999998245E-14  0.12500000000E+03  0.12500000000E+03 0.  0.
        -13    1    3    3    0    0  0.58464745235E+02 -0.51916950869E+01 -0.17859781275E+02  0.61351960723E+02  0.10566000000E+00 0. -1.
         23    2    1    0    0    0  0.24588011592E+02 -0.10613996899E+02 -0.80672170580E+01  0.97030244275E+02  0.92911576614E+02 0.  0.
         13    1    3    3    0    0 -0.33876733643E+02 -0.54223018125E+01  0.97925642169E+01  0.35678283553E+02  0.10566000000E+00 0.  1.
         22    1    1    0    0    0 -0.24588011592E+02  0.10613996899E+02  0.80672170580E+01  0.27969755725E+02  0.00000000000E+00 0. -1.
</event>
<event>
 5    1  0.1751020E-003  0.9118800E+02  0.7818608E-02  0.1130116E+00
         25   -1    0    0    0    0  0.00000000000E+00  0.00000000000E+00  0.99999998245E-14  0.12500000000E+03  0.12500000000E+03 0.  0.
        -13    1    3    3    0    0  0.67088128815E+01 -0.37709745072E+02  0.37737828572E+02  0.53769767649E+02  0.10566000000E+00 0.  1.
         23    2    1    0    0    0  0.57895138023E+01  0.14081878369E+01  0.30948340272E+02  0.93483318249E+02  0.88010394626E+02 0.  0.
         13    1    3    3    0    0 -0.91929907918E+00  0.39117932909E+02 -0.67894883001E+01  0.39713550600E+02  0.10566000000E+00 0. -1.
         22    1    1    0    0    0 -0.57895138023E+01 -0.14081878369E+01 -0.30948340272E+02  0.31516681751E+02  0.00000000000E+00 0.  1.
</event>
<event>
 5    1  0.1751020E-003  0.9118800E+02  0.7818608E-02  0.1130116E+00
         25   -1    0    0    0    0  0.00000000000E+00  0.00000000000E+00  0.99999998245E-14  0.12500000000E+03  0.12500000000E+03 0.  0.
        -13    1    3    3    0    0 -0.20617488709E+02 -0.28593199379E+02  0.34562689961E+02  0.49368437212E+02  0.10566000000E+00 0. -1.
         23    2    1    0    0    0 -0.29950276528E+02  0.65030834836E+01  0.12230588505E+02  0.92001568914E+02  0.85880103799E+02 0.  0.
         13    1    3    3    0    0 -0.93327878191E+01  0.35096282862E+02 -0.22332101456E+02  0.42633131702E+02  0.10566000000E+00 0.  1.
         22    1    1    0    0    0  0.29950276528E+02 -0.65030834836E+01 -0.12230588505E+02  0.32998431086E+02  0.00000000000E+00 0. -1.
</event>
<event>
 5    1  0.1751020E-003  0.9118800E+02  0.7818608E-02  0.1130116E+00
         25   -1    0    0    0    0  0.00000000000E+00  0.00000000000E+00  0.99999998245E-14  0.12500000000E+03  0.12500000000E+03 0.  0.
        -13    1    3    3    0    0 -0.28106537812E+02 -0.94130100262E+01  0.54064934340E+02  0.61657201646E+02  0.10566000000E+00 0. -1.
         23    2    1    0    0    0 -0.17342474035E+02  0.13664359656E+01  0.24037415544E+02  0.95328028395E+02  0.90592533350E+02 0.  0.
         13    1    3    3    0    0  0.10764063777E+02  0.10779445992E+02 -0.30027518796E+02  0.33670826749E+02  0.10566000000E+00 0.  1.
         22    1    1    0    0    0  0.17342474035E+02 -0.13664359656E+01 -0.24037415544E+02  0.29671971605E+02  0.00000000000E+00 0. -1.
</event>
<event>
 5    1  0.1751020E-003  0.9118800E+02  0.7818608E-02  0.1130116E+00
         25   -1    0    0    0    0  0.00000000000E+00  0.00000000000E+00  0.99999998245E-14  0.12500000000E+03  0.12500000000E+03 0.  0.
        -13    1    3    3    0    0  0.29583205929E+02  0.13829459966E+02 -0.52924281923E+02  0.62188510330E+02  0.10566000000E+00 0. -1.
         23    2    1    0    0    0  0.16392143102E+02  0.28776468919E+01 -0.24551450815E+02  0.95339303039E+02  0.90608088820E+02 0.  0.
         13    1    3    3    0    0 -0.13191062827E+02 -0.10951813074E+02  0.28372831108E+02  0.33150792709E+02  0.10566000000E+00 0.  1.
         22    1    1    0    0    0 -0.16392143102E+02 -0.28776468919E+01  0.24551450815E+02  0.29660696961E+02  0.00000000000E+00 0. -1.
</event>
<event>
 5    1  0.1751020E-003  0.9118800E+02  0.7818608E-02  0.1130116E+00
         25   -1    0    0    0    0  0.00000000000E+00  0.00000000000E+00  0.99999998245E-14  0.12500000000E+03  0.12500000000E+03 0.  0.
        -13    1    3    3    0    0  0.54796892203E+02  0.19106630971E+02  0.18165416408E+02  0.60809179073E+02  0.10566000000E+00 0.  1.
         23    2    1    0    0    0  0.25114390934E+02  0.36606216076E+00  0.14227978593E+02  0.96133029111E+02  0.91696549977E+02 0.  0.
         13    1    3    3    0    0 -0.29682501269E+02 -0.18740568810E+02 -0.39374378157E+01  0.35323850038E+02  0.10566000000E+00 0. -1.
         22    1    1    0    0    0 -0.25114390934E+02 -0.36606216076E+00 -0.14227978593E+02  0.28866970889E+02  0.00000000000E+00 0.  1.
</event>
<event>
 5    1  0.1751020E-003  0.9118800E+02  0.7818608E-02  0.1130116E+00
         25   -1    0    0    0    0  0.00000000000E+00  0.00000000000E+00  0.99999998245E-14  0.12500000000E+03  0.12500000000E+03 0.  0.
        -13    1    3    3    0    0  0.23508025474E+01  0.38717811373E+02 -0.13545497388E+02  0.41086334147E+02  0.10566000000E+00 0.  1.
         23    2    1    0    0    0  0.20230054150E+02 -0.13360658233E+02 -0.15572238692E+02  0.96185821247E+02  0.91768487575E+02 0.  0.
         13    1    3    3    0    0  0.17879251603E+02 -0.52078469606E+02 -0.20267413040E+01  0.55099487100E+02  0.10566000000E+00 0. -1.
         22    1    1    0    0    0 -0.20230054150E+02  0.13360658233E+02  0.15572238692E+02  0.28814178753E+02  0.00000000000E+00 0. -1.
</event>
<event>
 5    1  0.1751020E-003  0.9118800E+02  0.7818608E-02  0.1130116E+00
         25   -1    0    0    0    0  0.00000000000E+00  0.00000000000E+00  0.99999998245E-14  0.12500000000E+03  0.12500000000E+03 0.  0.
        -13    1    3    3    0    0 -0.30947508027E+02 -0.53405995108E+01 -0.14714550606E+02  0.34681398758E+02  0.10566000000E+00 0.  1.
         23    2    1    0    0    0  0.14126936953E+02  0.12713015688E+02  0.22273402346E+02  0.95720389900E+02  0.91132307526E+02 0.  0.
         13    1    3    3    0    0  0.45074444981E+02  0.18053615199E+02  0.36987952952E+02  0.61038991142E+02  0.10566000000E+00 0. -1.
         22    1    1    0    0    0 -0.14126936953E+02 -0.12713015688E+02 -0.22273402346E+02  0.29279610100E+02  0.00000000000E+00 0. -1.
</event>
<event>
 5    1  0.1751020E-003  0.9118800E+02  0.7818608E-02  0.1130116E+00
         25   -1    0    0    0    0  0.00000000000E+00  0.00000000000E+00  0.99999998245E-14  0.12500000000E+03  0.12500000000E+03 0.  0.
        -13    1    3    3    0    0  0.20452274637E+02 -0.25185668958E+02  0.51286317444E+02  0.60686991849E+02  0.10566000000E+00 0. -1.
         23    2    1    0    0    0 -0.37210508517E+00 -0.88255528902E+01  0.26898593312E+02  0.96688109067E+02  0.92450133947E+02 0.  0.
         13    1    3    3    0    0 -0.20824379722E+02  0.16360116068E+02 -0.24387724132E+02  0.36001117218E+02  0.10566000000E+00 0.  1.
         22    1    1    0    0    0  0.37210508517E+00  0.88255528902E+01 -0.26898593312E+02  0.28311890933E+02  0.00000000000E+00 0. -1.
</event>
<event>
 5    1  0.1751020E-003  0.9118800E+02  0.7818608E-02  0.1130116E+00
         25   -1    0    0    0    0  0.00000000000E+00  0.00000000000E+00  0.99999998245E-14  0.12500000000E+03  0.12500000000E+03 0.  0.
        -13    1    3    3    0    0 -0.14009925842E+02  0.15312445725E+02  0.30811588629E+02  0.37149887942E+02  0.10566000000E+00 0. -1.
         23    2    1    0    0    0 -0.13911512489E+02 -0.25404608429E+02 -0.95697940595E+01  0.94495815574E+02  0.89436870996E+02 0.  0.
         13    1    3    3    0    0  0.98413353305E-01 -0.40717054154E+02 -0.40381382689E+02  0.57345927632E+02  0.10566000000E+00 0.  1.
         22    1    1    0    0    0  0.13911512489E+02  0.25404608429E+02  0.95697940595E+01  0.30504184426E+02  0.00000000000E+00 0.  1.
</event>
<event>
 4    1  0.1751020E-003  0.9118800E+02  0.7818608E-02  0.1130116E+00
         25   -1    0    0    0    0  0.00000000000E+00  0.00000000000E+00  0.99999998245E-14  0.12500000000E+03  0.12500000000E+03 0.  0.
        -13    1    1    0    0    0  0.38826397400E+02 -0.44944478922E+02 -0.12657343519E+02  0.60726557860E+02  0.10566000000E+00 0.  1.
         13    1    1    0    0    0 -0.12038330212E+02  0.17181064841E+01  0.24950344430E+01  0.12414090586E+02  0.10566000000E+00 0. -1.
         22    1    1    0    0    0 -0.26788067188E+02  0.43226372437E+02  0.10162309076E+02  0.51859351553E+02  0.00000000000E+00 0.  1.
</event>
<event>
 5    1  0.1751020E-003  0.9118800E+02  0.7818608E-02  0.1130116E+00
         25   -1    0    0    0    0  0.00000000000E+00  0.00000000000E+00  0.99999998245E-14  0.12500000000E+03  0.12500000000E+03 0.  0.
        -13    1    3    3    0    0  0.22415659389E+02 -0.19705550158E+02 -0.21985123430E+02  0.37069223206E+02  0.10566000000E+00 0.  1.
         23    2    1    0    0    0 -0.34538755197E+01 -0.45027926601E+01  0.28577207811E+02  0.95864777260E+02  0.91330139138E+02 0.  0.
         13    1    3    3    0    0 -0.25869534909E+02  0.15202757498E+02  0.50562331241E+02  0.58795554053E+02  0.10566000000E+00 0. -1.
         22    1    1    0    0    0  0.34538755197E+01  0.45027926601E+01 -0.28577207811E+02  0.29135222740E+02  0.00000000000E+00 0. -1.
</event>
<event>
 5    1  0.1751020E-003  0.9118800E+02  0.7818608E-02  0.1130116E+00
         25   -1    0    0    0    0  0.00000000000E+00  0.00000000000E+00  0.99999998245E-14  0.12500000000E+03  0.12500000000E+03 0.  0.
        -13    1    3    3    0    0  0.22878713064E+01 -0.58312813580E+02  0.20695720406E+01  0.58394459285E+02  0.10566000000E+00 0. -1.
         23    2    1    0    0    0  0.14531165292E+02 -0.39116188264E+02  0.92312556597E+01  0.82263048423E+02  0.70290554883E+02 0.  0.
         13    1    3    3    0    0  0.12243293986E+02  0.19196625316E+02  0.71616836191E+01  0.23868589138E+02  0.10566000000E+00 0.  1.
         22    1    1    0    0    0 -0.14531165292E+02  0.39116188264E+02 -0.92312556597E+01  0.42736951577E+02  0.00000000000E+00 0. -1.
</event>
<event>
 5    1  0.1751020E-003  0.9118800E+02  0.7818608E-02  0.1130116E+00
         25   -1    0    0    0    0  0.00000000000E+00  0.00000000000E+00  0.99999998245E-14  0.12500000000E+03  0.12500000000E+03 0.  0.
        -13    1    3    3    0    0 -0.18131712866E+02 -0.20201519975E+01  0.27779692918E+02  0.33234959428E+02  0.10566000000E+00 0. -1.
         23    2    1    0    0    0  0.19435067524E+02 -0.38655926255E+01 -0.21847351451E+02  0.95504722049E+02  0.90836008896E+02 0.  0.
         13    1    3    3    0    0  0.37566780390E+02 -0.18454406280E+01 -0.49627044369E+02  0.62269762620E+02  0.10566000000E+00 0.  1.
         22    1    1    0    0    0 -0.19435067524E+02  0.38655926255E+01  0.21847351451E+02  0.29495277951E+02  0.00000000000E+00 0.  1.
</event>
<event>
 5    1  0.1751020E-003  0.9118800E+02  0.7818608E-02  0.1130116E+00
         25   -1    0    0    0    0  0.00000000000E+00  0.00000000000E+00  0.99999998245E-14  0.12500000000E+03  0.12500000000E+03 0.  0.
        -13    1    3    3    0    0  0.61182267471E+01 -0.34312384158E+02 -0.13266761591E+02  0.37293304122E+02  0.10566000000E+00 0. -1.
         23    2    1    0    0    0 -0.16988113321E+02  0.13339395617E+02  0.16294422512E+02  0.97943694365E+02  0.94132478939E+02 0.  0.
         13    1    3    3    0    0 -0.23106340068E+02  0.47651779775E+02  0.29561184103E+02  0.60650390243E+02  0.10566000000E+00 0.  1.
         22    1    1    0    0    0  0.16988113321E+02 -0.13339395617E+02 -0.16294422512E+02  0.27056305635E+02  0.00000000000E+00 0.  1.
</event>
<event>
 5    1  0.1751020E-003  0.9118800E+02  0.7818608E-02  0.1130116E+00
         25   -1    0    0    0    0  0.00000000000E+00  0.00000000000E+00  0.99999998245E-14  0.12500000000E+03  0.12500000000E+03 0.  0.
        -13    1    3    3    0    0 -0.22124981828E+01  0.22126644608E+02  0.24762461837E+02  0.33281740190E+02  0.10566000000E+00 0.  1.
         23    2    1    0    0    0  0.17142939806E+01 -0.24456692820E+02 -0.16345788105E+02  0.95533859833E+02  0.90876096738E+02 0.  0.
         13    1    3    3    0    0  0.39267921634E+01 -0.46583337429E+02 -0.41108249942E+02  0.62252119643E+02  0.10566000000E+00 0. -1.
         22    1    1    0    0    0 -0.17142939806E+01  0.24456692820E+02  0.16345788105E+02  0.29466140167E+02  0.00000000000E+00 0. -1.
</event>
<event>
 5    1  0.1751020E-003  0.9118800E+02  0.7818608E-02  0.1130116E+00
         25   -1    0    0    0    0  0.00000000000E+00  0.00000000000E+00  0.99999998245E-14  0.12500000000E+03  0.12500000000E+03 0.  0.
        -13    1    3    3    0    0  0.27705988529E+02  0.43419816364E+02 -0.26795627053E+02  0.58059616315E+02  0.10566000000E+00 0.  1.
         23    2    1    0    0    0  0.13980153475E+02  0.24762932019E+02  0.36669163532E+01  0.96327822390E+02  0.91961707234E+02 0.  0.
         13    1    3    3    0    0 -0.13725835054E+02 -0.18656884345E+02  0.30462543406E+02  0.38268206075E+02  0.10566000000E+00 0. -1.
         22    1    1    0    0    0 -0.13980153475E+02 -0.24762932019E+02 -0.36669163532E+01  0.28672177610E+02  0.00000000000E+00 0.  1.
</event>
<event>
 5    1  0.1751020E-003  0.9118800E+02  0.7818608E-02  0.1130116E+00
         25   -1    0    0    0    0  0.00000000000E+00  0.00000000000E+00  0.99999998245E-14  0.12500000000E+03  0.12500000000E+03 0.  0.
        -13    1    3    3    0    0 -0.15569312340E+02 -0.41814670077E+01 -0.54089229260E+02  0.56440624013E+02  0.10566000000E+00 0.  1.
         23    2    1    0    0    0 -0.28998500137E+01  0.17035298211E+02 -0.24992860302E+02  0.94614911860E+02  0.89603169391E+02 0.  0.
         13    1    3    3    0    0  0.12669462326E+02  0.21216765219E+02  0.29096368958E+02  0.38174287846E+02  0.10566000000E+00 0. -1.
         22    1    1    0    0    0  0.28998500137E+01 -0.17035298211E+02  0.24992860302E+02  0.30385088140E+02  0.00000000000E+00 0.  1.
</event>
<event>
 5    1  0.1751020E-003  0.9118800E+02  0.7818608E-02  0.1130116E+00
         25   -1    0    0    0    0  0.00000000000E+00  0.00000000000E+00  0.99999998245E-14  0.12500000000E+03  0.12500000000E+03 0.  0.
        -13    1    3    3    0    0  0.50810229486E+02  0.94281065080E+01 -0.17549977951E+02  0.54576382281E+02  0.10566000000E+00 0. -1.
         23    2    1    0    0    0  0.26638028446E+02 -0.14799306838E+02  0.28086556029E+01  0.94397833595E+02  0.89299823062E+02 0.  0.
         13    1    3    3    0    0 -0.24172201040E+02 -0.24227413346E+02  0.20358633554E+02  0.39821451314E+02  0.10566000000E+00 0.  1.
         22    1    1    0    0    0 -0.26638028446E+02  0.14799306838E+02 -0.28086556029E+01  0.30602166405E+02  0.00000000000E+00 0. -1.
</event>
<event>
 5    1  0.1751020E-003  0.9118800E+02  0.7818608E-02  0.1130116E+00
         25   -1    0    0    0    0  0.00000000000E+00  0.00000000000E+00  0.99999998245E-14  0.12500000000E+03  0.12500000000E+03 0.  0.
        -13    1    3    3    0    0 -0.22974330112E+02 -0.25581923014E+02 -0.13470959690E+02  0.36928749616E+02  0.10566000000E+00 0.  1.
         23    2    1    0    0    0  0.54550971339E+01  0.15743791688E+01  0.29376185688E+02  0.95080156416E+02  0.90249870383E+02 0.  0.
         13    1    3    3    0    0  0.28429427246E+02  0.27156302183E+02  0.42847145378E+02  0.58151406800E+02  0.10566000000E+00 0. -1.
         22    1    1    0    0    0 -0.54550971339E+01 -0.15743791688E+01 -0.29376185688E+02  0.29919843584E+02  0.00000000000E+00 0. -1.
</event>
<event>
 5    1  0.1751020E-003  0.9118800E+02  0.7818608E-02  0.1130116E+00
         25   -1    0    0    0    0  0.00000000000E+00  0.00000000000E+00  0.99999998245E-14  0.12500000000E+03  0.12500000000E+03 0.  0.
        -13    1    3    3    0    0  0.37468416028E+02 -0.10648666533E+01 -0.11077324984E+02  0.39086243532E+02  0.10566000000E+00 0.  1.
         23    2    1    0    0    0 -0.37786587403E+01 -0.11350414527E+02  0.26564068325E+02  0.95866515866E+02  0.91332518669E+02 0.  0.
         13    1    3    3    0    0 -0.41247074768E+02 -0.10285547874E+02  0.37641393309E+02  0.56780272334E+02  0.10566000000E+00 0. -1.
         22    1    1    0    0    0  0.37786587403E+01  0.11350414527E+02 -0.26564068325E+02  0.29133484134E+02  0.00000000000E+00 0. -1.
</event>
<event>
 5    1  0.1751020E-003  0.9118800E+02  0.7818608E-02  0.1130116E+00
         25   -1    0    0    0    0  0.00000000000E+00  0.00000000000E+00  0.99999998245E-14  0.12500000000E+03  0.12500000000E+03 0.  0.
        -13    1    3    3    0    0  0.22482451389E+02  0.51703806358E+01  0.21326927009E+02  0.31417231515E+02  0.10566000000E+00 0. -1.
         23    2    1    0    0    0  0.49194029440E+01 -0.30486555957E+02 -0.19564236015E+02  0.88443332341E+02  0.80534670082E+02 0.  0.
         13    1    3    3    0    0 -0.17563048445E+02 -0.35656936593E+02 -0.40891163024E+02  0.57026100826E+02  0.10566000000E+00 0.  1.
         22    1    1    0    0    0 -0.49194029440E+01  0.30486555957E+02  0.19564236015E+02  0.36556667659E+02  0.00000000000E+00 0.  1.
</event>
<event>
 5    1  0.1751020E-003  0.9118800E+02  0.7818608E-02  0.1130116E+00
         25   -1    0    0    0    0  0.00000000000E+00  0.00000000000E+00  0.99999998245E-14  0.12500000000E+03  0.12500000000E+03 0.  0.
        -13    1    3    3    0    0 -0.37735090463E+02  0.68062958017E-01 -0.23837201290E+02  0.44633675786E+02  0.10566000000E+00 0.  1.
         23    2    1    0    0    0 -0.14402323753E+02 -0.20906795555E+02  0.15732917540E+02  0.95132865485E+02  0.90322845234E+02 0.  0.
         13    1    3    3    0    0  0.23332766710E+02 -0.20974858513E+02  0.39570118830E+02  0.50499189698E+02  0.10566000000E+00 0. -1.
         22    1    1    0    0    0  0.14402323753E+02  0.20906795555E+02 -0.15732917540E+02  0.29867134515E+02  0.00000000000E+00 0. -1.
</event>
<event>
 5    1  0.1751020E-003  0.9118800E+02  0.7818608E-02  0.1130116E+00
         25   -1    0    0    0    0  0.00000000000E+00  0.00000000000E+00  0.99999998245E-14  0.12500000000E+03  0.12500000000E+03 0.  0.
        -13    1    3    3    0    0 -0.36060526533E+02  0.46537688210E+02 -0.18949380665E+02  0.61848267473E+02  0.10566000000E+00 0.  1.
         23    2    1    0    0    0 -0.19301577610E+02  0.32765639879E+02 -0.16012493753E+02  0.83738177317E+02  0.72866620131E+02 0.  0.
         13    1    3    3    0    0  0.16758948923E+02 -0.13772048331E+02  0.29368869122E+01  0.21889909845E+02  0.10566000000E+00 0. -1.
         22    1    1    0    0    0  0.19301577610E+02 -0.32765639879E+02  0.16012493753E+02  0.41261822683E+02  0.00000000000E+00 0.  1.
</event>
<event>
 5    1  0.1751020E-003  0.9118800E+02  0.7818608E-02  0.1130116E+00
         25   -1    0    0    0    0  0.00000000000E+00  0.00000000000E+00  0.99999998245E-14  0.12500000000E+03  0.12500000000E+03 0.  0.
        -13    1    3    3    0    0 -0.13127462315E+02  0.14976628224E+01 -0.34549225643E+02  0.36989639324E+02  0.10566000000E+00 0. -1.
         23    2    1    0    0    0  0.31484079993E+02 -0.70450715875E+01 -0.23800133972E+01  0.92649655482E+02  0.86818280739E+02 0.  0.
         13    1    3    3    0    0  0.44611542307E+02 -0.85427344099E+01  0.32169212246E+02  0.55660016158E+02  0.10566000000E+00 0.  1.
         22    1    1    0    0    0 -0.31484079993E+02  0.70450715875E+01  0.23800133972E+01  0.32350344518E+02  0.00000000000E+00 0.  1.
</event>
<event>
 5    1  0.1751020E-003  0.9118800E+02  0.7818608E-02  0.1130116E+00
         25   -1    0    0    0    0  0.00000000000E+00  0.00000000000E+00  0.99999998245E-14  0.12500000000E+03  0.12500000000E+03 0.  0.
        -13    1    3    3    0    0 -0.28253797882E+02 -0.35065859121E+02  0.12590383273E+02  0.46759175417E+02  0.10566000000E+00 0. -1.
         23    2    1    0    0    0  0.18495436293E+02 -0.21647944410E+02  0.66803215056E+01  0.95753780479E+02  0.91178095614E+02 0.  0.
         13    1    3    3    0    0  0.46749234175E+02  0.13417914711E+02 -0.59100617676E+01  0.48994605062E+02  0.10566000000E+00 0.  1.
         22    1    1    0    0    0 -0.18495436293E+02  0.21647944410E+02 -0.66803215056E+01  0.29246219521E+02  0.00000000000E+00 0.  1.
</event>
<event>
 5    1  0.1751020E-003  0.9118800E+02  0.7818608E-02  0.1130116E+00
         25   -1    0    0    0    0  0.00000000000E+00  0.00000000000E+00  0.99999998245E-14  0.12500000000E+03  0.12500000000E+03 0.  0.
        -13    1    3    3    0    0  0.85616447298E+01  0.35732740333E+02  0.44640040513E+02  0.57817600029E+02  0.10566000000E+00 0.  1.
         23    2    1    0    0    0  0.10968900826E+02  0.22993236079E+01  0.27153157239E+02  0.95624880895E+02  0.91001210013E+02 0.  0.
         13    1    3    3    0    0  0.24072560959E+01 -0.33433416725E+02 -0.17486883273E+02  0.37807280866E+02  0.10566000000E+00 0. -1.
         22    1    1    0    0    0 -0.10968900826E+02 -0.22993236079E+01 -0.27153157239E+02  0.29375119105E+02  0.00000000000E+00 0.  1.
</event>
<event>
 5    1  0.1751020E-003  0.9118800E+02  0.7818608E-02  0.1130116E+00
         25   -1    0    0    0    0  0.00000000000E+00  0.00000000000E+00  0.99999998245E-14  0.12500000000E+03  0.12500000000E+03 0.  0.
        -13    1    3    3    0    0 -0.17500972209E+02 -0.16071735481E+02  0.22559119828E+02  0.32764458809E+02  0.10566000000E+00 0.  1.
         23    2    1    0    0    0  0.21886645302E+02  0.49650210201E+01 -0.20358710823E+02  0.94698947498E+02  0.89720325872E+02 0.  0.
         13    1    3    3    0    0  0.39387617511E+02  0.21036756501E+02 -0.42917830651E+02  0.61934488689E+02  0.10566000000E+00 0. -1.
         22    1    1    0    0    0 -0.21886645302E+02 -0.49650210201E+01  0.20358710823E+02  0.30301052502E+02  0.00000000000E+00 0. -1.
</event>
<event>
 5    1  0.1751020E-003  0.9118800E+02  0.7818608E-02  0.1130116E+00
         25   -1    0    0    0    0  0.00000000000E+00  0.00000000000E+00  0.99999998245E-14  0.12500000000E+03  0.12500000000E+03 0.  0.
        -13    1    3    3    0    0 -0.37150557153E+02 -0.29921874583E+01  0.27571672264E+02  0.46360817056E+02  0.10566000000E+00 0. -1.
         23    2    1    0    0    0 -0.14502720448E+02  0.22667591011E+02 -0.91671671008E+01  0.96571395826E+02  0.92292193367E+02 0.  0.
         13    1    3    3    0    0  0.22647836705E+02  0.25659778469E+02 -0.36738839365E+02  0.50210578770E+02  0.10566000000E+00 0.  1.
         22    1    1    0    0    0  0.14502720448E+02 -0.22667591011E+02  0.91671671008E+01  0.28428604174E+02  0.00000000000E+00 0.  1.
</event>
<event>
 5    1  0.1751020E-003  0.9118800E+02  0.7818608E-02  0.1130116E+00
         25   -1    0    0    0    0  0.00000000000E+00  0.00000000000E+00  0.99999998245E-14  0.12500000000E+03  0.12500000000E+03 0.  0.
        -13    1    3    3    0    0 -0.21041821896E+02  0.38962103093E+02  0.23708745603E+02  0.50228672372E+02  0.10566000000E+00 0.  1.
         23    2    1    0    0    0 -0.20223563507E+02 -0.63951673323E+01  0.20168312117E+02  0.95731390539E+02  0.91147395106E+02 0.  0.
         13    1    3    3    0    0  0.81825838845E+00 -0.45357270426E+02 -0.35404334858E+01  0.45502718167E+02  0.10566000000E+00 0. -1.
         22    1    1    0    0    0  0.20223563507E+02  0.63951673323E+01 -0.20168312117E+02  0.29268609461E+02  0.00000000000E+00 0.  1.
</event>
<event>
 5    1  0.1751020E-003  0.9118800E+02  0.7818608E-02  0.1130116E+00
         25   -1    0    0    0    0  0.00000000000E+00  0.00000000000E+00  0.99999998245E-14  0.12500000000E+03  0.12500000000E+03 0.  0.
        -13    1    3    3    0    0  0.37998097872E+02 -0.28414255255E+02  0.16312615008E+02  0.50173079595E+02  0.10566000000E+00 0.  1.
         23    2    1    0    0    0  0.29079761755E+02  0.11500905980E+02  0.14310294092E+01  0.93695827319E+02  0.88311702677E+02 0.  0.
         13    1    3    3    0    0 -0.89183361170E+01  0.39915161235E+02 -0.14881585599E+02  0.43522747724E+02  0.10566000000E+00 0. -1.
         22    1    1    0    0    0 -0.29079761755E+02 -0.11500905980E+02 -0.14310294092E+01  0.31304172681E+02  0.00000000000E+00 0.  1.
</event>
<event>
 5    1  0.1751020E-003  0.9118800E+02  0.7818608E-02  0.1130116E+00
         25   -1    0    0    0    0  0.00000000000E+00  0.00000000000E+00  0.99999998245E-14  0.12500000000E+03  0.12500000000E+03 0.  0.
        -13    1    3    3    0    0 -0.83907603481E+01 -0.75019942248E+00  0.37944328700E+02  0.38868379216E+02  0.10566000000E+00 0.  1.
         23    2    1    0    0    0 -0.28068849101E+01  0.26118339015E+02 -0.12204225993E+02  0.96034686815E+02  0.91562392410E+02 0.  0.
         13    1    3    3    0    0  0.55838754380E+01  0.26868538437E+02 -0.50148554693E+02  0.57166307599E+02  0.10566000000E+00 0. -1.
         22    1    1    0    0    0  0.28068849101E+01 -0.26118339015E+02  0.12204225993E+02  0.28965313185E+02  0.00000000000E+00 0. -1.
</event>
<event>
 5    1  0.1751020E-003  0.9118800E+02  0.7818608E-02  0.1130116E+00
         25   -1    0    0    0    0  0.00000000000E+00  0.00000000000E+00  0.99999998245E-14  0.12500000000E+03  0.12500000000E+03 0.  0.
        -13    1    3    3    0    0  0.14036689281E+02  0.23033384297E+02 -0.22546749035E+02  0.35155831582E+02  0.10566000000E+00 0.  1.
         23    2    1    0    0    0  0.27976674119E+01  0.17839800317E+01  0.30985298852E+02  0.93837550279E+02  0.88512075841E+02 0.  0.
         13    1    3    3    0    0 -0.11239021869E+02 -0.21249404265E+02  0.53532047887E+02  0.58681718697E+02  0.10566000000E+00 0. -1.
         22    1    1    0    0    0 -0.27976674119E+01 -0.17839800317E+01 -0.30985298852E+02  0.31162449721E+02  0.00000000000E+00 0. -1.
</event>
<event>
 5    1  0.1751020E-003  0.9118800E+02  0.7818608E-02  0.1130116E+00
         25   -1    0    0    0    0  0.00000000000E+00  0.00000000000E+00  0.99999998245E-14  0.12500000000E+03  0.12500000000E+03 0.  0.
        -13    1    3    3    0    0  0.14081090207E+01  0.41329906472E+02 -0.42129309964E+02  0.59034175374E+02  0.10566000000E+00 0. -1.
         23    2    1    0    0    0 -0.10708211589E+02  0.29285835311E+02 -0.36436945484E+02  0.77041925169E+02  0.60294952461E+02 0.  0.
         13    1    3    3    0    0 -0.12116320609E+02 -0.12044071162E+02  0.56923644799E+01  0.18007749795E+02  0.10566000000E+00 0.  1.
         22    1    1    0    0    0  0.10708211589E+02 -0.29285835311E+02  0.36436945484E+02  0.47958074831E+02  0.00000000000E+00 0. -1.
</event>
<event>
 5    1  0.1751020E-003  0.9118800E+02  0.7818608E-02  0.1130116E+00
         25   -1    0    0    0    0  0.00000000000E+00  0.00000000000E+00  0.99999998245E-14  0.12500000000E+03  0.12500000000E+03 0.  0.
        -13    1    3    3    0    0  0.20423892418E+01 -0.35858173069E+02 -0.33262138432E+02  0.48952639835E+02  0.10566000000E+00 0.  1.
         23    2    1    0    0    0 -0.23216594148E+02  0.36417474408E+00 -0.17806029724E+02  0.95739146260E+02  0.91158030721E+02 0.  0.
         13    1    3    3    0    0 -0.25258983390E+02  0.36222347813E+02  0.15456108709E+02  0.46786506425E+02  0.10566000000E+00 0. -1.
         22    1    1    0    0    0  0.23216594148E+02 -0.36417474408E+00  0.17806029724E+02  0.29260853740E+02  0.00000000000E+00 0.  1.
</event>
<event>
 5    1  0.1751020E-003  0.9118800E+02  0.7818608E-02  0.1130116E+00
         25   -1    0    0    0    0  0.00000000000E+00  0.00000000000E+00  0.99999998245E-14  0.12500000000E+03  0.12500000000E+03 0.  0.
        -13    1    3    3    0    0 -0.27055752153E+02  0.29412876131E+02  0.38426328592E+02  0.55441184150E+02  0.10566000000E+00 0.  1.
         23    2    1    0    0    0 -0.22522019122E+02  0.17886218269E+02 -0.44276471895E+00  0.96236234775E+02  0.91837131346E+02 0.  0.
         13    1    3    3    0    0  0.45337330310E+01 -0.11526657862E+02 -0.38869093311E+02  0.40795050625E+02  0.10566000000E+00 0. -1.
         22    1    1    0    0    0  0.22522019122E+02 -0.17886218269E+02  0.44276471895E+00  0.28763765225E+02  0.00000000000E+00 0.  1.
</event>
<event>
 5    1  0.1751020E-003  0.9118800E+02  0.7818608E-02  0.1130116E+00
         25   -1    0    0    0    0  0.00000000000E+00  0.00000000000E+00  0.99999998245E-14  0.12500000000E+03  0.12500000000E+03 0.  0.
        -13    1    3    3    0    0 -0.15804423393E+01 -0.55438446589E+02 -0.39103525628E+01  0.55598751599E+02  0.10566000000E+00 0. -1.
         23    2    1    0    0    0 -0.17198760974E+02 -0.20435775845E+02  0.10151529272E+02  0.96426028277E+02  0.92095097966E+02 0.  0.
         13    1    3    3    0    0 -0.15618318635E+02  0.35002670744E+02  0.14061881835E+02  0.40827276678E+02  0.10566000000E+00 0.  1.
         22    1    1    0    0    0  0.17198760974E+02  0.20435775845E+02 -0.10151529272E+02  0.28573971723E+02  0.00000000000E+00 0. -1.
</event>
<event>
 5    1  0.1751020E-003  0.9118800E+02  0.7818608E-02  0.1130116E+00
         25   -1    0    0    0    0  0.00000000000E+00  0.00000000000E+00  0.99999998245E-14  0.12500000000E+03  0.12500000000E+03 0.  0.
        -13    1    3    3    0    0  0.94080364686E+01 -0.55227683702E+02  0.21459577146E+02  0.59992773003E+02  0.10566000000E+00 0. -1.
         23    2    1    0    0    0  0.69950145285E+01 -0.17932819870E+02  0.19774679434E+02  0.97403728450E+02  0.93412697812E+02 0.  0.
         13    1    3    3    0    0 -0.24130219400E+01  0.37294863832E+02 -0.16848977123E+01  0.37410955447E+02  0.10566000000E+00 0.  1.
         22    1    1    0    0    0 -0.69950145285E+01  0.17932819870E+02 -0.19774679434E+02  0.27596271550E+02  0.00000000000E+00 0. -1.
</event>
<event>
 5    1  0.1751020E-003  0.9118800E+02  0.7818608E-02  0.1130116E+00
         25   -1    0    0    0    0  0.00000000000E+00  0.00000000000E+00  0.99999998245E-14  0.12500000000E+03  0.12500000000E+03 0.  0.
        -13    1    3    3    0    0 -0.16624330001E+02  0.20756304114E+02  0.23241476860E+02  0.35318124513E+02  0.10566000000E+00 0. -1.
         23    2    1    0    0    0  0.85707227682E+01 -0.26816424014E+02 -0.54576806165E+01  0.96323107502E+02  0.91955298246E+02 0.  0.
         13    1    3    3    0    0  0.25195052769E+02 -0.47572728127E+02 -0.28699157477E+02  0.61004982989E+02  0.10566000000E+00 0.  1.
         22    1    1    0    0    0 -0.85707227682E+01  0.26816424014E+02  0.54576806165E+01  0.28676892498E+02  0.00000000000E+00 0.  1.
</event>
<event>
 5    1  0.1751020E-003  0.9118800E+02  0.7818608E-02  0.1130116E+00
         25   -1    0    0    0    0  0.00000000000E+00  0.00000000000E+00  0.99999998245E-14  0.12500000000E+03  0.12500000000E+03 0.  0.
        -13    1    3    3    0    0  0.59053439342E+02  0.14246054402E+02 -0.57300373504E+01  0.61017237370E+02  0.10566000000E+00 0.  1.
         23    2    1    0    0    0  0.28883582143E+02 -0.28551513987E+01 -0.34403503389E+01  0.95772457897E+02  0.91203697701E+02 0.  0.
         13    1    3    3    0    0 -0.30169857199E+02 -0.17101205801E+02  0.22896870115E+01  0.34755220528E+02  0.10566000000E+00 0. -1.
         22    1    1    0    0    0 -0.28883582143E+02  0.28551513987E+01  0.34403503389E+01  0.29227542103E+02  0.00000000000E+00 0.  1.
</event>
<event>
 5    1  0.1751020E-003  0.9118800E+02  0.7818608E-02  0.1130116E+00
         25   -1    0    0    0    0  0.00000000000E+00  0.00000000000E+00  0.99999998245E-14  0.12500000000E+03  0.12500000000E+03 0.  0.
        -13    1    3    3    0    0  0.32732722307E+02  0.48690950690E+01 -0.41933554194E+02  0.53418848057E+02  0.10566000000E+00 0. -1.
         23    2    1    0    0    0  0.12737001203E+02  0.24747153646E+02 -0.11559234065E+02  0.94862503332E+02  0.89947906218E+02 0.  0.
         13    1    3    3    0    0 -0.19995721103E+02  0.19878058577E+02  0.30374320129E+02  0.41443655275E+02  0.10566000000E+00 0.  1.
         22    1    1    0    0    0 -0.12737001203E+02 -0.24747153646E+02  0.11559234065E+02  0.30137496668E+02  0.00000000000E+00 0.  1.
</event>
<event>
 5    1  0.1751020E-003  0.9118800E+02  0.7818608E-02  0.1130116E+00
         25   -1    0    0    0    0  0.00000000000E+00  0.00000000000E+00  0.99999998245E-14  0.12500000000E+03  0.12500000000E+03 0.  0.
        -13    1    3    3    0    0 -0.11289278566E+02  0.35395444792E+02 -0.49225704154E+02  0.61672250130E+02  0.10566000000E+00 0. -1.
         23    2    1    0    0    0  0.69749469228E+00  0.12403200620E+02 -0.24644938873E+02  0.97401106969E+02  0.93409189818E+02 0.  0.
         13    1    3    3    0    0  0.11986773258E+02 -0.22992244172E+02  0.24580765282E+02  0.35728856840E+02  0.10566000000E+00 0.  1.
         22    1    1    0    0    0 -0.69749469228E+00 -0.12403200620E+02  0.24644938873E+02  0.27598893031E+02  0.00000000000E+00 0. -1.
</event>
<event>
 5    1  0.1751020E-003  0.9118800E+02  0.7818608E-02  0.1130116E+00
         25   -1    0    0    0    0  0.00000000000E+00  0.00000000000E+00  0.99999998245E-14  0.12500000000E+03  0.12500000000E+03 0.  0.
        -13    1    3    3    0    0 -0.16718745698E+02  0.56554576456E+02  0.80969685849E+01  0.59527377232E+02  0.10566000000E+00 0.  1.
         23    2    1    0    0    0 -0.17748346420E+02  0.20566184891E+02  0.11096592660E+02  0.95655390099E+02  0.91043108057E+02 0.  0.
         13    1    3    3    0    0 -0.10296007217E+01 -0.35988391565E+02  0.29996240752E+01  0.36128012867E+02  0.10566000000E+00 0. -1.
         22    1    1    0    0    0  0.17748346420E+02 -0.20566184891E+02 -0.11096592660E+02  0.29344609901E+02  0.00000000000E+00 0.  1.
</event>
<event>
 5    1  0.1751020E-003  0.9118800E+02  0.7818608E-02  0.1130116E+00
         25   -1    0    0    0    0  0.00000000000E+00  0.00000000000E+00  0.99999998245E-14  0.12500000000E+03  0.12500000000E+03 0.  0.
        -13    1    3    3    0    0  0.64054735466E+01 -0.48999804000E+02 -0.14952373594E+02  0.51629405609E+02  0.10566000000E+00 0. -1.
         23    2    1    0    0    0  0.49662994816E+01 -0.69801982751E+01 -0.28053488220E+02  0.95667671422E+02  0.91059968457E+02 0.  0.
         13    1    3    3    0    0 -0.14391740650E+01  0.42019605725E+02 -0.13101114626E+02  0.44038265813E+02  0.10566000000E+00 0.  1.
         22    1    1    0    0    0 -0.49662994816E+01  0.69801982751E+01  0.28053488220E+02  0.29332328578E+02  0.00000000000E+00 0. -1.
</event>
<event>
 5    1  0.1751020E-003  0.9118800E+02  0.7818608E-02  0.1130116E+00
         25   -1    0    0    0    0  0.00000000000E+00  0.00000000000E+00  0.99999998245E-14  0.12500000000E+03  0.12500000000E+03 0.  0.
        -13    1    3    3    0    0  0.32818098781E+01  0.17484935717E+02  0.25379688596E+02  0.30994080248E+02  0.10566000000E+00 0. -1.
         23    2    1    0    0    0  0.10016301260E+02 -0.13729074946E+01 -0.31827865032E+02  0.91605027947E+02  0.85300978814E+02 0.  0.
         13    1    3    3    0    0  0.67344913818E+01 -0.18857843212E+02 -0.57207553629E+02  0.60610947699E+02  0.10566000000E+00 0.  1.
         22    1    1    0    0    0 -0.10016301260E+02  0.13729074946E+01  0.31827865032E+02  0.33394972053E+02  0.00000000000E+00 0.  1.
</event>
<event>
 5    1  0.1751020E-003  0.9118800E+02  0.7818608E-02  0.1130116E+00
         25   -1    0    0    0    0  0.00000000000E+00  0.00000000000E+00  0.99999998245E-14  0.12500000000E+03  0.12500000000E+03 0.  0.
        -13    1    3    3    0    0 -0.35307027884E+02  0.10715232351E+02  0.19410941592E+02  0.41691704689E+02  0.10566000000E+00 0.  1.
         23    2    1    0    0    0  0.19450918500E+02  0.13556984794E+02  0.15522966682E+02  0.96661112199E+02  0.92413624806E+02 0.  0.
         13    1    3    3    0    0  0.54757946384E+02  0.28417524430E+01 -0.38879749093E+01  0.54969407510E+02  0.10566000000E+00 0. -1.
         22    1    1    0    0    0 -0.19450918500E+02 -0.13556984794E+02 -0.15522966682E+02  0.28338887801E+02  0.00000000000E+00 0. -1.
</event>
<event>
 4    1  0.1751020E-003  0.9118800E+02  0.7818608E-02  0.1130116E+00
         25   -1    0    0    0    0  0.00000000000E+00  0.00000000000E+00  0.99999998245E-14  0.12500000000E+03  0.12500000000E+03 0.  0.
        -13    1    1    0    0    0  0.20069616371E+01 -0.42227674907E+01  0.22165155617E+01  0.51753034272E+01  0.10566000000E+00 0. -1.
         13    1    1    0    0    0 -0.52330903863E+01  0.58212978979E+02 -0.21685193940E+02  0.62340957298E+02  0.10566000000E+00 0.  1.
         22    1    1    0    0    0  0.32261287492E+01 -0.53990211488E+02  0.19468678378E+02  0.57483739275E+02  0.00000000000E+00 0.  1.
</event>
<event>
 5    1  0.1751020E-003  0.9118800E+02  0.7818608E-02  0.1130116E+00
         25   -1    0    0    0    0  0.00000000000E+00  0.00000000000E+00  0.99999998245E-14  0.12500000000E+03  0.12500000000E+03 0.  0.
        -13    1    3    3    0    0  0.40257384006E+02  0.23421544976E+01 -0.26703102232E+02  0.48365374883E+02  0.10566000000E+00 0. -1.
         23    2    1    0    0    0  0.22075995236E+02  0.13233729454E+02  0.15046005417E+02  0.95186187095E+02  0.90396608198E+02 0.  0.
         13    1    3    3    0    0 -0.18181388770E+02  0.10891574956E+02  0.41749107650E+02  0.46820812212E+02  0.10566000000E+00 0.  1.
         22    1    1    0    0    0 -0.22075995236E+02 -0.13233729454E+02 -0.15046005417E+02  0.29813812905E+02  0.00000000000E+00 0.  1.
</event>
<event>
 5    1  0.1751020E-003  0.9118800E+02  0.7818608E-02  0.1130116E+00
         25   -1    0    0    0    0  0.00000000000E+00  0.00000000000E+00  0.99999998245E-14  0.12500000000E+03  0.12500000000E+03 0.  0.
        -13    1    3    3    0    0 -0.21129876152E+02 -0.71298474090E+01  0.26126895917E+02  0.34350141842E+02  0.10566000000E+00 0. -1.
         23    2    1    0    0    0  0.29216004704E+02  0.51615742785E+01 -0.51593239998E+01  0.94886292091E+02  0.89980959223E+02 0.  0.
         13    1    3    3    0    0  0.50345880856E+02  0.12291421687E+02 -0.31286219917E+02  0.60536150249E+02  0.10566000000E+00 0.  1.
         22    1    1    0    0    0 -0.29216004704E+02 -0.51615742785E+01  0.51593239998E+01  0.30113707909E+02  0.00000000000E+00 0.  1.
</event>
<event>
 5    1  0.1751020E-003  0.9118800E+02  0.7818608E-02  0.1130116E+00
         25   -1    0    0    0    0  0.00000000000E+00  0.00000000000E+00  0.99999998245E-14  0.12500000000E+03  0.12500000000E+03 0.  0.
        -13    1    3    3    0    0 -0.21352077547E+02  0.39669157614E+02  0.70863603590E+01  0.45604615430E+02  0.10566000000E+00 0. -1.
         23    2    1    0    0    0  0.22274017310E+02  0.20385883492E+02  0.94501552321E+01  0.93361075764E+02  0.87836603651E+02 0.  0.
         13    1    3    3    0    0  0.43626094858E+02 -0.19283274121E+02  0.23637948730E+01  0.47756460334E+02  0.10566000000E+00 0.  1.
         22    1    1    0    0    0 -0.22274017310E+02 -0.20385883492E+02 -0.94501552321E+01  0.31638924236E+02  0.00000000000E+00 0.  1.
</event>
<event>
 5    1  0.1751020E-003  0.9118800E+02  0.7818608E-02  0.1130116E+00
         25   -1    0    0    0    0  0.00000000000E+00  0.00000000000E+00  0.99999998245E-14  0.12500000000E+03  0.12500000000E+03 0.  0.
        -13    1    3    3    0    0 -0.10342489857E+02 -0.21453170737E+02 -0.20644457330E+02  0.31518413881E+02  0.10566000000E+00 0.  1.
         23    2    1    0    0    0  0.11110605931E+02  0.23881719882E+02  0.16490154657E+02  0.93924168406E+02  0.88634316726E+02 0.  0.
         13    1    3    3    0    0  0.21453095788E+02  0.45334890619E+02  0.37134611987E+02  0.62405754524E+02  0.10566000000E+00 0. -1.
         22    1    1    0    0    0 -0.11110605931E+02 -0.23881719882E+02 -0.16490154657E+02  0.31075831594E+02  0.00000000000E+00 0. -1.
</event>
<event>
 5    1  0.1751020E-003  0.9118800E+02  0.7818608E-02  0.1130116E+00
         25   -1    0    0    0    0  0.00000000000E+00  0.00000000000E+00  0.99999998245E-14  0.12500000000E+03  0.12500000000E+03 0.  0.
        -13    1    3    3    0    0  0.10901529395E+02  0.12835793576E+02  0.28187255231E+02  0.32834942689E+02  0.10566000000E+00 0. -1.
         23    2    1    0    0    0 -0.10096836747E+02 -0.14118025139E+02 -0.24102464253E+02  0.95298257136E+02  0.90551445510E+02 0.  0.
         13    1    3    3    0    0 -0.20998366142E+02 -0.26953818714E+02 -0.52289719484E+02  0.62463314447E+02  0.10566000000E+00 0.  1.
         22    1    1    0    0    0  0.10096836747E+02  0.14118025139E+02  0.24102464253E+02  0.29701742864E+02  0.00000000000E+00 0.  1.
</event>
<event>
 5    1  0.1751020E-003  0.9118800E+02  0.7818608E-02  0.1130116E+00
         25   -1    0    0    0    0  0.00000000000E+00  0.00000000000E+00  0.99999998245E-14  0.12500000000E+03  0.12500000000E+03 0.  0.
        -13    1    3    3    0    0 -0.14633441436E+02 -0.28544916764E+02 -0.51146824275E+00  0.32081500045E+02  0.10566000000E+00 0. -1.
         23    2    1    0    0    0 -0.72984166546E+01  0.30475211308E+02  0.91932652341E+01  0.92342359001E+02  0.86374705501E+02 0.  0.
         13    1    3    3    0    0  0.73350247819E+01  0.59020128072E+02  0.97047334768E+01  0.60260858956E+02  0.10566000000E+00 0.  1.
         22    1    1    0    0    0  0.72984166546E+01 -0.30475211308E+02 -0.91932652341E+01  0.32657640999E+02  0.00000000000E+00 0.  1.
</event>
<event>
 5    1  0.1751020E-003  0.9118800E+02  0.7818608E-02  0.1130116E+00
         25   -1    0    0    0    0  0.00000000000E+00  0.00000000000E+00  0.99999998245E-14  0.12500000000E+03  0.12500000000E+03 0.  0.
        -13    1    3    3    0    0  0.37304185235E+02  0.32027628526E+00 -0.31864908212E+02  0.49062086710E+02  0.10566000000E+00 0.  1.
         23    2    1    0    0    0 -0.15773908279E+01  0.23328067353E+02 -0.14640740534E+02  0.97413079701E+02  0.93425210330E+02 0.  0.
         13    1    3    3    0    0 -0.38881576063E+02  0.23007791067E+02  0.17224167678E+02  0.48350992991E+02  0.10566000000E+00 0. -1.
         22    1    1    0    0    0  0.15773908279E+01 -0.23328067353E+02  0.14640740534E+02  0.27586920299E+02  0.00000000000E+00 0. -1.
</event>
<event>
 5    1  0.1751020E-003  0.9118800E+02  0.7818608E-02  0.1130116E+00
         25   -1    0    0    0    0  0.00000000000E+00  0.00000000000E+00  0.99999998245E-14  0.12500000000E+03  0.12500000000E+03 0.  0.
        -13    1    3    3    0    0  0.24656759275E+02  0.35042374340E+02 -0.15374551526E+02  0.45522651240E+02  0.10566000000E+00 0. -1.
         23    2    1    0    0    0  0.49360405491E+01  0.30633755927E+02  0.21277687930E+02  0.87376450166E+02  0.78861350112E+02 0.  0.
         13    1    3    3    0    0 -0.19720718726E+02 -0.44086184127E+01  0.36652239456E+02  0.41853798926E+02  0.10566000000E+00 0.  1.
         22    1    1    0    0    0 -0.49360405491E+01 -0.30633755927E+02 -0.21277687930E+02  0.37623549834E+02  0.00000000000E+00 0. -1.
</event>
<event>
 5    1  0.1751020E-003  0.9118800E+02  0.7818608E-02  0.1130116E+00
         25   -1    0    0    0    0  0.00000000000E+00  0.00000000000E+00  0.99999998245E-14  0.12500000000E+03  0.12500000000E+03 0.  0.
        -13    1    3    3    0    0  0.14207654004E+02  0.80968557568E+01  0.55362113149E+02  0.57726867591E+02  0.10566000000E+00 0.  1.
         23    2    1    0    0    0  0.21843735496E+02  0.20503267882E+00  0.17922385388E+02  0.96743979105E+02  0.92525643885E+02 0.  0.
         13    1    3    3    0    0  0.76360814916E+01 -0.78918230780E+01 -0.37439727762E+02  0.39017111514E+02  0.10566000000E+00 0. -1.
         22    1    1    0    0    0 -0.21843735496E+02 -0.20503267882E+00 -0.17922385388E+02  0.28256020895E+02  0.00000000000E+00 0.  1.
</event>
<event>
 5    1  0.1751020E-003  0.9118800E+02  0.7818608E-02  0.1130116E+00
         25   -1    0    0    0    0  0.00000000000E+00  0.00000000000E+00  0.99999998245E-14  0.12500000000E+03  0.12500000000E+03 0.  0.
        -13    1    3    3    0    0 -0.16417422060E+02  0.27848683584E+02 -0.77703360969E+01  0.33248612175E+02  0.10566000000E+00 0.  1.
         23    2    1    0    0    0  0.26860203929E+02 -0.69874096350E+01  0.15188037739E+02  0.93361875231E+02  0.87837741363E+02 0.  0.
         13    1    3    3    0    0  0.43277625989E+02 -0.34836093219E+02  0.22958373836E+02  0.60113263056E+02  0.10566000000E+00 0. -1.
         22    1    1    0    0    0 -0.26860203929E+02  0.69874096350E+01 -0.15188037739E+02  0.31638124769E+02  0.00000000000E+00 0. -1.
</event>
<event>
 5    1  0.1751020E-003  0.9118800E+02  0.7818608E-02  0.1130116E+00
         25   -1    0    0    0    0  0.00000000000E+00  0.00000000000E+00  0.99999998245E-14  0.12500000000E+03  0.12500000000E+03 0.  0.
        -13    1    3    3    0    0 -0.32493443688E+02 -0.23553594379E+02 -0.27702199483E+01  0.40227863148E+02  0.10566000000E+00 0.  1.
         23    2    1    0    0    0  0.11982980629E+01  0.24209045980E+02  0.76147163351E+01  0.99593352634E+02  0.96298173184E+02 0.  0.
         13    1    3    3    0    0  0.33691741751E+02  0.47762640359E+02  0.10384936283E+02  0.59365489486E+02  0.10566000000E+00 0. -1.
         22    1    1    0    0    0 -0.11982980629E+01 -0.24209045980E+02 -0.76147163351E+01  0.25406647366E+02  0.00000000000E+00 0. -1.
</event>
<event>
 5    1  0.1751020E-003  0.9118800E+02  0.7818608E-02  0.1130116E+00
         25   -1    0    0    0    0  0.00000000000E+00  0.00000000000E+00  0.99999998245E-14  0.12500000000E+03  0.12500000000E+03 0.  0.
        -13    1    3    3    0    0 -0.16308579463E+02 -0.10193820359E+02 -0.38952604875E+02  0.43441919020E+02  0.10566000000E+00 0.  1.
         23    2    1    0    0    0 -0.82518019531E+01 -0.23915645568E+02  0.12128228738E+02  0.96943908492E+02  0.92795350762E+02 0.  0.
         13    1    3    3    0    0  0.80567775102E+01 -0.13721825208E+02  0.51080833612E+02  0.53501989472E+02  0.10566000000E+00 0. -1.
         22    1    1    0    0    0  0.82518019531E+01  0.23915645568E+02 -0.12128228738E+02  0.28056091508E+02  0.00000000000E+00 0.  1.
</event>
<event>
 5    1  0.1751020E-003  0.9118800E+02  0.7818608E-02  0.1130116E+00
         25   -1    0    0    0    0  0.00000000000E+00  0.00000000000E+00  0.99999998245E-14  0.12500000000E+03  0.12500000000E+03 0.  0.
        -13    1    3    3    0    0  0.19958193289E+02  0.12037796842E+02 -0.41099954202E+02  0.47248866987E+02  0.10566000000E+00 0.  1.
         23    2    1    0    0    0 -0.21102499418E+01 -0.23567176401E+02 -0.19264582189E+02  0.94487886254E+02  0.89425788023E+02 0.  0.
         13    1    3    3    0    0 -0.22068443231E+02 -0.35604973243E+02  0.21835372013E+02  0.47239019267E+02  0.10566000000E+00 0. -1.
         22    1    1    0    0    0  0.21102499418E+01  0.23567176401E+02  0.19264582189E+02  0.30512113746E+02  0.00000000000E+00 0. -1.
</event>
<event>
 5    1  0.1751020E-003  0.9118800E+02  0.7818608E-02  0.1130116E+00
         25   -1    0    0    0    0  0.00000000000E+00  0.00000000000E+00  0.99999998245E-14  0.12500000000E+03  0.12500000000E+03 0.  0.
        -13    1    3    3    0    0  0.14115086648E+02 -0.17931365721E+02  0.34086771392E+02  0.41020588680E+02  0.10566000000E+00 0.  1.
         23    2    1    0    0    0 -0.21826515905E+02 -0.14907858631E+02 -0.88770774210E+01  0.97117325289E+02  0.93028658607E+02 0.  0.
         13    1    3    3    0    0 -0.35941602553E+02  0.30235070895E+01 -0.42963848813E+02  0.56096736608E+02  0.10566000000E+00 0. -1.
         22    1    1    0    0    0  0.21826515905E+02  0.14907858631E+02  0.88770774210E+01  0.27882674711E+02  0.00000000000E+00 0. -1.
</event>
<event>
 5    1  0.1751020E-003  0.9118800E+02  0.7818608E-02  0.1130116E+00
         25   -1    0    0    0    0  0.00000000000E+00  0.00000000000E+00  0.99999998245E-14  0.12500000000E+03  0.12500000000E+03 0.  0.
        -13    1    3    3    0    0  0.60740563587E+02  0.78431829731E+01 -0.45860660846E+01  0.61416404569E+02  0.10566000000E+00 0.  1.
         23    2    1    0    0    0  0.27789907749E+02  0.45350297709E+00  0.55159818293E+01  0.96664321198E+02  0.92417965242E+02 0.  0.
         13    1    3    3    0    0 -0.32950655838E+02 -0.73896799960E+01  0.10102047914E+02  0.35247916629E+02  0.10566000000E+00 0. -1.
         22    1    1    0    0    0 -0.27789907749E+02 -0.45350297709E+00 -0.55159818293E+01  0.28335678802E+02  0.00000000000E+00 0.  1.
</event>
<event>
 5    1  0.1751020E-003  0.9118800E+02  0.7818608E-02  0.1130116E+00
         25   -1    0    0    0    0  0.00000000000E+00  0.00000000000E+00  0.99999998245E-14  0.12500000000E+03  0.12500000000E+03 0.  0.
        -13    1    3    3    0    0 -0.27099707975E+02  0.28455097300E+02  0.35521448531E+02  0.52970474837E+02  0.10566000000E+00 0. -1.
         23    2    1    0    0    0 -0.29384875778E+02  0.32064542335E+01  0.14952219089E+01  0.95402906194E+02  0.90695791239E+02 0.  0.
         13    1    3    3    0    0 -0.22851678028E+01 -0.25248643067E+02 -0.34026226622E+02  0.42432431356E+02  0.10566000000E+00 0.  1.
         22    1    1    0    0    0  0.29384875778E+02 -0.32064542335E+01 -0.14952219089E+01  0.29597093806E+02  0.00000000000E+00 0. -1.
</event>
<event>
 5    1  0.1751020E-003  0.9118800E+02  0.7818608E-02  0.1130116E+00
         25   -1    0    0    0    0  0.00000000000E+00  0.00000000000E+00  0.99999998245E-14  0.12500000000E+03  0.12500000000E+03 0.  0.
        -13    1    3    3    0    0  0.38145356936E+02  0.38228237096E+02 -0.57280665307E+01  0.54307350124E+02  0.10566000000E+00 0.  1.
         23    2    1    0    0    0  0.12791441426E+02  0.24386652697E+02  0.18346281952E+02  0.91910487085E+02  0.85747430114E+02 0.  0.
         13    1    3    3    0    0 -0.25353915510E+02 -0.13841584399E+02  0.24074348482E+02  0.37603136960E+02  0.10566000000E+00 0. -1.
         22    1    1    0    0    0 -0.12791441426E+02 -0.24386652697E+02 -0.18346281952E+02  0.33089512915E+02  0.00000000000E+00 0.  1.
</event>
<event>
 5    1  0.1751020E-003  0.9118800E+02  0.7818608E-02  0.1130116E+00
         25   -1    0    0    0    0  0.00000000000E+00  0.00000000000E+00  0.99999998245E-14  0.12500000000E+03  0.12500000000E+03 0.  0.
        -13    1    3    3    0    0  0.11541370558E+02 -0.22846959855E+02 -0.49081443218E+02  0.55355090474E+02  0.10566000000E+00 0. -1.
         23    2    1    0    0    0 -0.15498382775E+02 -0.73187221572E+01 -0.24693581353E+02  0.94941115744E+02  0.90057087095E+02 0.  0.
         13    1    3    3    0    0 -0.27039753334E+02  0.15528237698E+02  0.24387861864E+02  0.39586025270E+02  0.10566000000E+00 0.  1.
         22    1    1    0    0    0  0.15498382775E+02  0.73187221572E+01  0.24693581353E+02  0.30058884256E+02  0.00000000000E+00 0.  1.
</event>
<event>
 5    1  0.1751020E-003  0.9118800E+02  0.7818608E-02  0.1130116E+00
         25   -1    0    0    0    0  0.00000000000E+00  0.00000000000E+00  0.99999998245E-14  0.12500000000E+03  0.12500000000E+03 0.  0.
        -13    1    3    3    0    0  0.16633809085E+02  0.52910820978E+01  0.35745699493E+01  0.17817628035E+02  0.10566000000E+00 0. -1.
         23    2    1    0    0    0 -0.42811350878E+02  0.11207758193E+02 -0.11187881165E+02  0.79353594964E+02  0.64910698202E+02 0.  0.
         13    1    3    3    0    0 -0.59445159963E+02  0.59166760951E+01 -0.14762451114E+02  0.61535966929E+02  0.10566000000E+00 0.  1.
         22    1    1    0    0    0  0.42811350878E+02 -0.11207758193E+02  0.11187881165E+02  0.45646405036E+02  0.00000000000E+00 0.  1.
</event>
<event>
 5    1  0.1751020E-003  0.9118800E+02  0.7818608E-02  0.1130116E+00
         25   -1    0    0    0    0  0.00000000000E+00  0.00000000000E+00  0.99999998245E-14  0.12500000000E+03  0.12500000000E+03 0.  0.
        -13    1    3    3    0    0  0.43557433471E+02  0.12911079577E+02  0.18269401703E+02  0.48966602792E+02  0.10566000000E+00 0. -1.
         23    2    1    0    0    0  0.19795815544E+02  0.12621927035E+02 -0.20096585805E+02  0.94095953078E+02  0.88876252562E+02 0.  0.
         13    1    3    3    0    0 -0.23761617926E+02 -0.28915254158E+00 -0.38365987508E+02  0.45129350285E+02  0.10566000000E+00 0.  1.
         22    1    1    0    0    0 -0.19795815544E+02 -0.12621927035E+02  0.20096585805E+02  0.30904046922E+02  0.00000000000E+00 0. -1.
</event>
<event>
 5    1  0.1751020E-003  0.9118800E+02  0.7818608E-02  0.1130116E+00
         25   -1    0    0    0    0  0.00000000000E+00  0.00000000000E+00  0.99999998245E-14  0.12500000000E+03  0.12500000000E+03 0.  0.
        -13    1    3    3    0    0 -0.37412735394E+02 -0.27108555123E+02  0.16459751739E+02  0.49046112200E+02  0.10566000000E+00 0. -1.
         23    2    1    0    0    0 -0.27384251163E+02  0.52702185885E+01 -0.13255248220E+02  0.94123244647E+02  0.88914628503E+02 0.  0.
         13    1    3    3    0    0  0.10028484231E+02  0.32378773712E+02 -0.29714999960E+02  0.45077132448E+02  0.10566000000E+00 0.  1.
         22    1    1    0    0    0  0.27384251163E+02 -0.52702185885E+01  0.13255248220E+02  0.30876755353E+02  0.00000000000E+00 0. -1.
</event>
<event>
 5    1  0.1751020E-003  0.9118800E+02  0.7818608E-02  0.1130116E+00
         25   -1    0    0    0    0  0.00000000000E+00  0.00000000000E+00  0.99999998245E-14  0.12500000000E+03  0.12500000000E+03 0.  0.
        -13    1    3    3    0    0 -0.38291704465E+02 -0.23474463479E+02 -0.37135623909E+02  0.58278390452E+02  0.10566000000E+00 0.  1.
         23    2    1    0    0    0 -0.13863625641E+02 -0.22375672075E+02 -0.57648841426E+01  0.98053669899E+02  0.94278404075E+02 0.  0.
         13    1    3    3    0    0  0.24428078824E+02  0.10987914049E+01  0.31370739767E+02  0.39775279447E+02  0.10566000000E+00 0. -1.
         22    1    1    0    0    0  0.13863625641E+02  0.22375672075E+02  0.57648841426E+01  0.26946330101E+02  0.00000000000E+00 0.  1.
</event>
<event>
 5    1  0.1751020E-003  0.9118800E+02  0.7818608E-02  0.1130116E+00
         25   -1    0    0    0    0  0.00000000000E+00  0.00000000000E+00  0.99999998245E-14  0.12500000000E+03  0.12500000000E+03 0.  0.
        -13    1    3    3    0    0  0.26183862617E+02 -0.48932596508E+02 -0.48325636803E+00  0.55499895165E+02  0.10566000000E+00 0. -1.
         23    2    1    0    0    0  0.87769210424E+01 -0.18733147628E+02  0.20245197406E+02  0.96054651824E+02  0.91589644371E+02 0.  0.
         13    1    3    3    0    0 -0.17406941575E+02  0.30199448881E+02  0.20728453774E+02  0.40554756658E+02  0.10566000000E+00 0.  1.
         22    1    1    0    0    0 -0.87769210424E+01  0.18733147628E+02 -0.20245197406E+02  0.28945348176E+02  0.00000000000E+00 0. -1.
</event>
<event>
 5    1  0.1751020E-003  0.9118800E+02  0.7818608E-02  0.1130116E+00
         25   -1    0    0    0    0  0.00000000000E+00  0.00000000000E+00  0.99999998245E-14  0.12500000000E+03  0.12500000000E+03 0.  0.
        -13    1    3    3    0    0  0.32824249827E+02  0.35316959222E+02  0.26857262514E+02  0.55190965739E+02  0.10566000000E+00 0.  1.
         23    2    1    0    0    0  0.18979721223E+02 -0.24360765688E+01  0.22230863077E+02  0.95667840859E+02  0.91060201047E+02 0.  0.
         13    1    3    3    0    0 -0.13844528604E+02 -0.37753035790E+02 -0.46263994374E+01  0.40476875120E+02  0.10566000000E+00 0. -1.
         22    1    1    0    0    0 -0.18979721223E+02  0.24360765688E+01 -0.22230863077E+02  0.29332159141E+02  0.00000000000E+00 0.  1.
</event>
<event>
 5    1  0.1751020E-003  0.9118800E+02  0.7818608E-02  0.1130116E+00
         25   -1    0    0    0    0  0.00000000000E+00  0.00000000000E+00  0.99999998245E-14  0.12500000000E+03  0.12500000000E+03 0.  0.
        -13    1    3    3    0    0 -0.21974897388E+02  0.58672980769E+01 -0.36571436955E+02  0.43067417696E+02  0.10566000000E+00 0. -1.
         23    2    1    0    0    0  0.35034373727E+01 -0.28130372777E+02 -0.45031487645E+01  0.96296859147E+02  0.91919610458E+02 0.  0.
         13    1    3    3    0    0  0.25478334761E+02 -0.33997670854E+02  0.32068288191E+02  0.53229441452E+02  0.10566000000E+00 0.  1.
         22    1    1    0    0    0 -0.35034373727E+01  0.28130372777E+02  0.45031487645E+01  0.28703140853E+02  0.00000000000E+00 0.  1.
</event>
<event>
 5    1  0.1751020E-003  0.9118800E+02  0.7818608E-02  0.1130116E+00
         25   -1    0    0    0    0  0.00000000000E+00  0.00000000000E+00  0.99999998245E-14  0.12500000000E+03  0.12500000000E+03 0.  0.
        -13    1    3    3    0    0  0.28857991070E+02 -0.20750817978E+02 -0.36003492542E+02  0.50592911901E+02  0.10566000000E+00 0. -1.
         23    2    1    0    0    0 -0.83511071830E+01 -0.25798574086E+02 -0.10827875808E+02  0.95801535818E+02  0.91243541988E+02 0.  0.
         13    1    3    3    0    0 -0.37209098253E+02 -0.50477561083E+01  0.25175616734E+02  0.45208623917E+02  0.10566000000E+00 0.  1.
         22    1    1    0    0    0  0.83511071830E+01  0.25798574086E+02  0.10827875808E+02  0.29198464182E+02  0.00000000000E+00 0. -1.
</event>
<event>
 5    1  0.1751020E-003  0.9118800E+02  0.7818608E-02  0.1130116E+00
         25   -1    0    0    0    0  0.00000000000E+00  0.00000000000E+00  0.99999998245E-14  0.12500000000E+03  0.12500000000E+03 0.  0.
        -13    1    3    3    0    0 -0.44628849572E+02  0.68061185292E+01  0.43219256909E+02  0.62497782324E+02  0.10566000000E+00 0.  1.
         23    2    1    0    0    0 -0.20029128153E+02  0.34150453698E+01  0.19325612839E+02  0.96958819193E+02  0.92815434052E+02 0.  0.
         13    1    3    3    0    0  0.24599721420E+02 -0.33910731595E+01 -0.23893644070E+02  0.34461036869E+02  0.10566000000E+00 0. -1.
         22    1    1    0    0    0  0.20029128153E+02 -0.34150453698E+01 -0.19325612839E+02  0.28041180807E+02  0.00000000000E+00 0.  1.
</event>
<event>
 5    1  0.1751020E-003  0.9118800E+02  0.7818608E-02  0.1130116E+00
         25   -1    0    0    0    0  0.00000000000E+00  0.00000000000E+00  0.99999998245E-14  0.12500000000E+03  0.12500000000E+03 0.  0.
        -13    1    3    3    0    0 -0.25291327518E+02 -0.32723697882E+02  0.12098769459E+01  0.41375918322E+02  0.10566000000E+00 0.  1.
         23    2    1    0    0    0  0.15419048086E+01  0.69831315419E+01 -0.27056395283E+02  0.97014465839E+02  0.92890346429E+02 0.  0.
         13    1    3    3    0    0  0.26833232326E+02  0.39706829424E+02 -0.28266272229E+02  0.55638547517E+02  0.10566000000E+00 0. -1.
         22    1    1    0    0    0 -0.15419048086E+01 -0.69831315419E+01  0.27056395283E+02  0.27985534161E+02  0.00000000000E+00 0. -1.
</event>
<event>
 5    1  0.1751020E-003  0.9118800E+02  0.7818608E-02  0.1130116E+00
         25   -1    0    0    0    0  0.00000000000E+00  0.00000000000E+00  0.99999998245E-14  0.12500000000E+03  0.12500000000E+03 0.  0.
        -13    1    3    3    0    0 -0.34015335657E+02  0.44285172325E+02  0.13122771012E+02  0.57362338087E+02  0.10566000000E+00 0. -1.
         23    2    1    0    0    0 -0.19292141755E+02  0.10610536920E+02  0.20577584451E+02  0.94863523612E+02  0.89949324083E+02 0.  0.
         13    1    3    3    0    0  0.14723193902E+02 -0.33674635405E+02  0.74548134384E+01  0.37501185525E+02  0.10566000000E+00 0.  1.
         22    1    1    0    0    0  0.19292141755E+02 -0.10610536920E+02 -0.20577584451E+02  0.30136476388E+02  0.00000000000E+00 0. -1.
</event>
<event>
 5    1  0.1751020E-003  0.9118800E+02  0.7818608E-02  0.1130116E+00
         25   -1    0    0    0    0  0.00000000000E+00  0.00000000000E+00  0.99999998245E-14  0.12500000000E+03  0.12500000000E+03 0.  0.
        -13    1    3    3    0    0 -0.13149607198E+02  0.58643158873E+02 -0.29750276658E+00  0.60100182396E+02  0.10566000000E+00 0. -1.
         23    2    1    0    0    0 -0.31274240920E+01  0.26597188282E+02  0.11726168590E+02  0.95764845891E+02  0.91193264405E+02 0.  0.
         13    1    3    3    0    0  0.10022183106E+02 -0.32045970591E+02  0.12023671356E+02  0.35664663496E+02  0.10566000000E+00 0.  1.
         22    1    1    0    0    0  0.31274240920E+01 -0.26597188282E+02 -0.11726168590E+02  0.29235154109E+02  0.00000000000E+00 0. -1.
</event>
<event>
 5    1  0.1751020E-003  0.9118800E+02  0.7818608E-02  0.1130116E+00
         25   -1    0    0    0    0  0.00000000000E+00  0.00000000000E+00  0.99999998245E-14  0.12500000000E+03  0.12500000000E+03 0.  0.
        -13    1    3    3    0    0  0.29297798166E+02 -0.36493799348E+02 -0.86835747855E+01  0.47598046213E+02  0.10566000000E+00 0. -1.
         23    2    1    0    0    0 -0.14622223167E+02 -0.24212562586E+02  0.70652289995E+01  0.95845668278E+02  0.91303981674E+02 0.  0.
         13    1    3    3    0    0 -0.43920021332E+02  0.12281236762E+02  0.15748803785E+02  0.48247622065E+02  0.10566000000E+00 0.  1.
         22    1    1    0    0    0  0.14622223167E+02  0.24212562586E+02 -0.70652289995E+01  0.29154331722E+02  0.00000000000E+00 0. -1.
</event>
<event>
 5    1  0.1751020E-003  0.9118800E+02  0.7818608E-02  0.1130116E+00
         25   -1    0    0    0    0  0.00000000000E+00  0.00000000000E+00  0.99999998245E-14  0.12500000000E+03  0.12500000000E+03 0.  0.
        -13    1    3    3    0    0 -0.33965936288E+02  0.20829040792E+01 -0.13313081848E+01  0.34055937263E+02  0.10566000000E+00 0.  1.
         23    2    1    0    0    0  0.25339001370E+02 -0.76626042118E+01  0.12496217834E+02  0.95726531571E+02  0.91140731250E+02 0.  0.
         13    1    3    3    0    0  0.59304937658E+02 -0.97455082910E+01  0.13827526019E+02  0.61670594308E+02  0.10566000000E+00 0. -1.
         22    1    1    0    0    0 -0.25339001370E+02  0.76626042118E+01 -0.12496217834E+02  0.29273468429E+02  0.00000000000E+00 0. -1.
</event>
<event>
 5    1  0.1751020E-003  0.9118800E+02  0.7818608E-02  0.1130116E+00
         25   -1    0    0    0    0  0.00000000000E+00  0.00000000000E+00  0.99999998245E-14  0.12500000000E+03  0.12500000000E+03 0.  0.
        -13    1    3    3    0    0  0.50711979227E+02 -0.10364881758E+01  0.18665291823E+02  0.54047973391E+02  0.10566000000E+00 0.  1.
         23    2    1    0    0    0  0.13155613557E+02 -0.40889134962E+01  0.28806157506E+02  0.93069073113E+02  0.87420067938E+02 0.  0.
         13    1    3    3    0    0 -0.37556365670E+02 -0.30524253204E+01  0.10140865682E+02  0.39021099721E+02  0.10566000000E+00 0. -1.
         22    1    1    0    0    0 -0.13155613557E+02  0.40889134962E+01 -0.28806157506E+02  0.31930926887E+02  0.00000000000E+00 0.  1.
</event>
<event>
 5    1  0.1751020E-003  0.9118800E+02  0.7818608E-02  0.1130116E+00
         25   -1    0    0    0    0  0.00000000000E+00  0.00000000000E+00  0.99999998245E-14  0.12500000000E+03  0.12500000000E+03 0.  0.
        -13    1    3    3    0    0  0.20821702660E+02  0.10711530021E+02  0.23728961550E+02  0.33336990826E+02  0.10566000000E+00 0. -1.
         23    2    1    0    0    0 -0.23919457440E+02 -0.15814742454E+02 -0.91852044309E+01  0.94889960087E+02  0.89986054596E+02 0.  0.
         13    1    3    3    0    0 -0.44741160101E+02 -0.26526272475E+02 -0.32914165981E+02  0.61552969261E+02  0.10566000000E+00 0.  1.
         22    1    1    0    0    0  0.23919457440E+02  0.15814742454E+02  0.91852044309E+01  0.30110039913E+02  0.00000000000E+00 0.  1.
</event>
<event>
 5    1  0.1751020E-003  0.9118800E+02  0.7818608E-02  0.1130116E+00
         25   -1    0    0    0    0  0.00000000000E+00  0.00000000000E+00  0.99999998245E-14  0.12500000000E+03  0.12500000000E+03 0.  0.
        -13    1    3    3    0    0 -0.17998292878E+02  0.31470452453E+02  0.31647967002E+02  0.48124140548E+02  0.10566000000E+00 0.  1.
         23    2    1    0    0    0 -0.20364929960E+02  0.15963809829E+02 -0.13424876304E+02  0.95848655257E+02  0.91308070916E+02 0.  0.
         13    1    3    3    0    0 -0.23666370821E+01 -0.15506642624E+02 -0.45072843306E+02  0.47724514709E+02  0.10566000000E+00 0. -1.
         22    1    1    0    0    0  0.20364929960E+02 -0.15963809829E+02  0.13424876304E+02  0.29151344743E+02  0.00000000000E+00 0. -1.
</event>
<event>
 5    1  0.1751020E-003  0.9118800E+02  0.7818608E-02  0.1130116E+00
         25   -1    0    0    0    0  0.00000000000E+00  0.00000000000E+00  0.99999998245E-14  0.12500000000E+03  0.12500000000E+03 0.  0.
        -13    1    3    3    0    0  0.12141148847E+02  0.11082555756E+02 -0.11319024514E+02  0.19959008427E+02  0.10566000000E+00 0.  1.
         23    2    1    0    0    0  0.29667709665E+02 -0.21009354724E+02  0.31944640146E+02  0.76605516670E+02  0.59383323986E+02 0.  0.
         13    1    3    3    0    0  0.17526560818E+02 -0.32091910480E+02  0.43263664660E+02  0.56646508244E+02  0.10566000000E+00 0. -1.
         22    1    1    0    0    0 -0.29667709665E+02  0.21009354724E+02 -0.31944640146E+02  0.48394483330E+02  0.00000000000E+00 0. -1.
</event>
<event>
 5    1  0.1751020E-003  0.9118800E+02  0.7818608E-02  0.1130116E+00
         25   -1    0    0    0    0  0.00000000000E+00  0.00000000000E+00  0.99999998245E-14  0.12500000000E+03  0.12500000000E+03 0.  0.
        -13    1    3    3    0    0  0.35591601078E+01  0.10868955317E+02 -0.56160348790E+02  0.57313155127E+02  0.10566000000E+00 0.  1.
         23    2    1    0    0    0  0.19247051182E+02  0.38621632617E+01 -0.22249982075E+02  0.95328010067E+02  0.90592508061E+02 0.  0.
         13    1    3    3    0    0  0.15687891074E+02 -0.70067920552E+01  0.33910366715E+02  0.38014854939E+02  0.10566000000E+00 0. -1.
         22    1    1    0    0    0 -0.19247051182E+02 -0.38621632617E+01  0.22249982075E+02  0.29671989933E+02  0.00000000000E+00 0.  1.
</event>
<event>
 5    1  0.1751020E-003  0.9118800E+02  0.7818608E-02  0.1130116E+00
         25   -1    0    0    0    0  0.00000000000E+00  0.00000000000E+00  0.99999998245E-14  0.12500000000E+03  0.12500000000E+03 0.  0.
        -13    1    3    3    0    0 -0.24766050076E+02  0.70260642964E+01  0.31727658703E+02  0.40858026222E+02  0.10566000000E+00 0. -1.
         23    2    1    0    0    0 -0.16690597884E+02 -0.18127977193E+02 -0.16147790058E+02  0.95538996307E+02  0.90883161679E+02 0.  0.
         13    1    3    3    0    0  0.80754521922E+01 -0.25154041490E+02 -0.47875448761E+02  0.54680970085E+02  0.10566000000E+00 0.  1.
         22    1    1    0    0    0  0.16690597884E+02  0.18127977193E+02  0.16147790058E+02  0.29461003693E+02  0.00000000000E+00 0. -1.
</event>
<event>
 5    1  0.1751020E-003  0.9118800E+02  0.7818608E-02  0.1130116E+00
         25   -1    0    0    0    0  0.00000000000E+00  0.00000000000E+00  0.99999998245E-14  0.12500000000E+03  0.12500000000E+03 0.  0.
        -13    1    3    3    0    0 -0.77307435205E+01 -0.24041376381E+02  0.34056725175E+02  0.42398394632E+02  0.10566000000E+00 0. -1.
         23    2    1    0    0    0 -0.25289048585E+02 -0.36109463600E+01 -0.12784744873E+02  0.96433855469E+02  0.92105721142E+02 0.  0.
         13    1    3    3    0    0 -0.17558305064E+02  0.20430430021E+02 -0.46841470048E+02  0.54035460837E+02  0.10566000000E+00 0.  1.
         22    1    1    0    0    0  0.25289048585E+02  0.36109463600E+01  0.12784744873E+02  0.28566144531E+02  0.00000000000E+00 0.  1.
</event>
<event>
 5    1  0.1751020E-003  0.9118800E+02  0.7818608E-02  0.1130116E+00
         25   -1    0    0    0    0  0.00000000000E+00  0.00000000000E+00  0.99999998245E-14  0.12500000000E+03  0.12500000000E+03 0.  0.
        -13    1    3    3    0    0  0.22323395580E+02 -0.53350656080E+02  0.28503322855E+01  0.57903040097E+02  0.10566000000E+00 0. -1.
         23    2    1    0    0    0 -0.33147392454E+01 -0.27423291776E+02 -0.85119312166E+01  0.96095374053E+02  0.91645204530E+02 0.  0.
         13    1    3    3    0    0 -0.25638134825E+02  0.25927364304E+02 -0.11362263502E+02  0.38192333956E+02  0.10566000000E+00 0.  1.
         22    1    1    0    0    0  0.33147392454E+01  0.27423291776E+02  0.85119312166E+01  0.28904625947E+02  0.00000000000E+00 0.  1.
</event>
<event>
 5    1  0.1751020E-003  0.9118800E+02  0.7818608E-02  0.1130116E+00
         25   -1    0    0    0    0  0.00000000000E+00  0.00000000000E+00  0.99999998245E-14  0.12500000000E+03  0.12500000000E+03 0.  0.
        -13    1    3    3    0    0 -0.42661505776E+02 -0.20087636060E+02 -0.33089738500E+02  0.57606068739E+02  0.10566000000E+00 0. -1.
         23    2    1    0    0    0 -0.11052472585E+02 -0.22641736448E+02 -0.23001864010E+02  0.90884151373E+02  0.84237983376E+02 0.  0.
         13    1    3    3    0    0  0.31609033190E+02 -0.25541003878E+01  0.10087874490E+02  0.33278082634E+02  0.10566000000E+00 0.  1.
         22    1    1    0    0    0  0.11052472585E+02  0.22641736448E+02  0.23001864010E+02  0.34115848627E+02  0.00000000000E+00 0. -1.
</event>
<event>
 5    1  0.1751020E-003  0.9118800E+02  0.7818608E-02  0.1130116E+00
         25   -1    0    0    0    0  0.00000000000E+00  0.00000000000E+00  0.99999998245E-14  0.12500000000E+03  0.12500000000E+03 0.  0.
        -13    1    3    3    0    0  0.18498177035E+02 -0.96308413959E+01 -0.52736187224E+02  0.56710248338E+02  0.10566000000E+00 0. -1.
         23    2    1    0    0    0  0.26853589167E+02  0.35956458555E+01 -0.38893934587E+02  0.77599767217E+02  0.61440555045E+02 0.  0.
         13    1    3    3    0    0  0.83554121319E+01  0.13226487251E+02  0.13842252637E+02  0.20889518879E+02  0.10566000000E+00 0.  1.
         22    1    1    0    0    0 -0.26853589167E+02 -0.35956458555E+01  0.38893934587E+02  0.47400232783E+02  0.00000000000E+00 0. -1.
</event>
<event>
 5    1  0.1751020E-003  0.9118800E+02  0.7818608E-02  0.1130116E+00
         25   -1    0    0    0    0  0.00000000000E+00  0.00000000000E+00  0.99999998245E-14  0.12500000000E+03  0.12500000000E+03 0.  0.
        -13    1    3    3    0    0 -0.40148252970E+02 -0.17141503372E+02  0.89159898763E+01  0.44555800901E+02  0.10566000000E+00 0.  1.
         23    2    1    0    0    0  0.80445733669E+01 -0.27515594021E+02 -0.52677358132E+01  0.95852579607E+02  0.91313443160E+02 0.  0.
         13    1    3    3    0    0  0.48192826337E+02 -0.10374090648E+02 -0.14183725690E+02  0.51296778706E+02  0.10566000000E+00 0. -1.
         22    1    1    0    0    0 -0.80445733669E+01  0.27515594021E+02  0.52677358132E+01  0.29147420393E+02  0.00000000000E+00 0. -1.
</event>
<event>
 5    1  0.1751020E-003  0.9118800E+02  0.7818608E-02  0.1130116E+00
         25   -1    0    0    0    0  0.00000000000E+00  0.00000000000E+00  0.99999998245E-14  0.12500000000E+03  0.12500000000E+03 0.  0.
        -13    1    3    3    0    0 -0.16717813793E+02  0.30801079670E+02 -0.50240587780E+01  0.35404013014E+02  0.10566000000E+00 0.  1.
         23    2    1    0    0    0 -0.49717089142E+00 -0.23868119318E+02  0.16088284045E+02  0.96211683234E+02  0.91803708033E+02 0.  0.
         13    1    3    3    0    0  0.16220642902E+02 -0.54669198988E+02  0.21112342823E+02  0.60807670221E+02  0.10566000000E+00 0. -1.
         22    1    1    0    0    0  0.49717089142E+00  0.23868119318E+02 -0.16088284045E+02  0.28788316766E+02  0.00000000000E+00 0. -1.
</event>
<event>
 5    1  0.1751020E-003  0.9118800E+02  0.7818608E-02  0.1130116E+00
         25   -1    0    0    0    0  0.00000000000E+00  0.00000000000E+00  0.99999998245E-14  0.12500000000E+03  0.12500000000E+03 0.  0.
        -13    1    3    3    0    0 -0.61945593751E+01  0.11449514553E+02 -0.37824033946E+02  0.40001658182E+02  0.10566000000E+00 0.  1.
         23    2    1    0    0    0 -0.19610446228E+02 -0.25431302531E+02 -0.25242375909E+01  0.92786764752E+02  0.87015465224E+02 0.  0.
         13    1    3    3    0    0 -0.13415886853E+02 -0.36880817085E+02  0.35299796355E+02  0.52785106570E+02  0.10566000000E+00 0. -1.
         22    1    1    0    0    0  0.19610446228E+02  0.25431302531E+02  0.25242375909E+01  0.32213235248E+02  0.00000000000E+00 0. -1.
</event>
<event>
 5    1  0.1751020E-003  0.9118800E+02  0.7818608E-02  0.1130116E+00
         25   -1    0    0    0    0  0.00000000000E+00  0.00000000000E+00  0.99999998245E-14  0.12500000000E+03  0.12500000000E+03 0.  0.
        -13    1    3    3    0    0 -0.15748026531E+02  0.14209072529E+02 -0.32797718721E+02  0.39058924705E+02  0.10566000000E+00 0. -1.
         23    2    1    0    0    0 -0.15676177772E+02 -0.22689034098E+02  0.10089460957E+02  0.95634509365E+02  0.91014434796E+02 0.  0.
         13    1    3    3    0    0  0.71848759796E-01 -0.36898106627E+02  0.42887179678E+02  0.56575584660E+02  0.10566000000E+00 0.  1.
         22    1    1    0    0    0  0.15676177772E+02  0.22689034098E+02 -0.10089460957E+02  0.29365490635E+02  0.00000000000E+00 0.  1.
</event>
<event>
 5    1  0.1751020E-003  0.9118800E+02  0.7818608E-02  0.1130116E+00
         25   -1    0    0    0    0  0.00000000000E+00  0.00000000000E+00  0.99999998245E-14  0.12500000000E+03  0.12500000000E+03 0.  0.
        -13    1    3    3    0    0 -0.28808506086E+02 -0.33913405281E+02 -0.43025139772E+02  0.61896873080E+02  0.10566000000E+00 0.  1.
         23    2    1    0    0    0 -0.16819293308E+02 -0.17077895190E+02 -0.14983268202E+02  0.96732678629E+02  0.92510375943E+02 0.  0.
         13    1    3    3    0    0  0.11989212778E+02  0.16835510091E+02  0.28041871570E+02  0.34835805549E+02  0.10566000000E+00 0. -1.
         22    1    1    0    0    0  0.16819293308E+02  0.17077895190E+02  0.14983268202E+02  0.28267321371E+02  0.00000000000E+00 0.  1.
</event>
<event>
 5    1  0.1751020E-003  0.9118800E+02  0.7818608E-02  0.1130116E+00
         25   -1    0    0    0    0  0.00000000000E+00  0.00000000000E+00  0.99999998245E-14  0.12500000000E+03  0.12500000000E+03 0.  0.
        -13    1    3    3    0    0 -0.30529535686E+02  0.20134268878E+02  0.32911892456E+02  0.49200052455E+02  0.10566000000E+00 0. -1.
         23    2    1    0    0    0  0.71111943720E+01  0.28193366244E+02  0.88042336559E+01  0.94619915803E+02  0.89610149820E+02 0.  0.
         13    1    3    3    0    0  0.37640730059E+02  0.80590973659E+01 -0.24107658800E+02  0.45419863348E+02  0.10566000000E+00 0.  1.
         22    1    1    0    0    0 -0.71111943720E+01 -0.28193366244E+02 -0.88042336559E+01  0.30380084197E+02  0.00000000000E+00 0. -1.
</event>
<event>
 5    1  0.1751020E-003  0.9118800E+02  0.7818608E-02  0.1130116E+00
         25   -1    0    0    0    0  0.00000000000E+00  0.00000000000E+00  0.99999998245E-14  0.12500000000E+03  0.12500000000E+03 0.  0.
        -13    1    3    3    0    0 -0.39472136631E+01 -0.31786064909E+02  0.34648497587E+02  0.47185421130E+02  0.10566000000E+00 0.  1.
         23    2    1    0    0    0 -0.24228284796E+02 -0.12946549215E+02 -0.64931179617E+01  0.96772646217E+02  0.92564364387E+02 0.  0.
         13    1    3    3    0    0 -0.20281071133E+02  0.18839515694E+02 -0.41141615549E+02  0.49587225088E+02  0.10566000000E+00 0. -1.
         22    1    1    0    0    0  0.24228284796E+02  0.12946549215E+02  0.64931179617E+01  0.28227353783E+02  0.00000000000E+00 0. -1.
</event>
<event>
 5    1  0.1751020E-003  0.9118800E+02  0.7818608E-02  0.1130116E+00
         25   -1    0    0    0    0  0.00000000000E+00  0.00000000000E+00  0.99999998245E-14  0.12500000000E+03  0.12500000000E+03 0.  0.
        -13    1    3    3    0    0 -0.43766017929E+02 -0.37971939431E+02 -0.22275859100E+02  0.62077029344E+02  0.10566000000E+00 0.  1.
         23    2    1    0    0    0 -0.17589659967E+02 -0.21893039960E+02 -0.11851021849E+02  0.94518070020E+02  0.89467969156E+02 0.  0.
         13    1    3    3    0    0  0.26176357962E+02  0.16078899471E+02  0.10424837251E+02  0.32441040675E+02  0.10566000000E+00 0. -1.
         22    1    1    0    0    0  0.17589659967E+02  0.21893039960E+02  0.11851021849E+02  0.30481929980E+02  0.00000000000E+00 0.  1.
</event>
<event>
 5    1  0.1751020E-003  0.9118800E+02  0.7818608E-02  0.1130116E+00
         25   -1    0    0    0    0  0.00000000000E+00  0.00000000000E+00  0.99999998245E-14  0.12500000000E+03  0.12500000000E+03 0.  0.
        -13    1    3    3    0    0 -0.20014354182E+02  0.21607338857E+02 -0.83741523079E+01  0.30620076040E+02  0.10566000000E+00 0. -1.
         23    2    1    0    0    0  0.18130018011E+02 -0.37548479040E+01  0.29577188620E+02  0.90105780958E+02  0.83074937493E+02 0.  0.
         13    1    3    3    0    0  0.38144372193E+02 -0.25362186761E+02  0.37951340928E+02  0.59485704918E+02  0.10566000000E+00 0.  1.
         22    1    1    0    0    0 -0.18130018011E+02  0.37548479040E+01 -0.29577188620E+02  0.34894219042E+02  0.00000000000E+00 0.  1.
</event>
<event>
 5    1  0.1751020E-003  0.9118800E+02  0.7818608E-02  0.1130116E+00
         25   -1    0    0    0    0  0.00000000000E+00  0.00000000000E+00  0.99999998245E-14  0.12500000000E+03  0.12500000000E+03 0.  0.
        -13    1    3    3    0    0  0.36503448912E+01 -0.53153882940E+02  0.25608360942E+02  0.59113954390E+02  0.10566000000E+00 0.  1.
         23    2    1    0    0    0 -0.95427683449E+01 -0.27929230938E+02  0.32583116246E+01  0.95306179715E+02  0.90562381421E+02 0.  0.
         13    1    3    3    0    0 -0.13193113236E+02  0.25224652001E+02 -0.22350049318E+02  0.36192225325E+02  0.10566000000E+00 0. -1.
         22    1    1    0    0    0  0.95427683449E+01  0.27929230938E+02 -0.32583116246E+01  0.29693820285E+02  0.00000000000E+00 0.  1.
</event>
<event>
 5    1  0.1751020E-003  0.9118800E+02  0.7818608E-02  0.1130116E+00
         25   -1    0    0    0    0  0.00000000000E+00  0.00000000000E+00  0.99999998245E-14  0.12500000000E+03  0.12500000000E+03 0.  0.
        -13    1    3    3    0    0  0.24509378282E+02  0.36034551803E+02  0.51004238792E+01  0.43877374981E+02  0.10566000000E+00 0. -1.
         23    2    1    0    0    0  0.12947143411E+02 -0.83961262416E+01  0.26347556045E+02  0.94466130807E+02  0.89395372932E+02 0.  0.
         13    1    3    3    0    0 -0.11562234870E+02 -0.44430678045E+02  0.21247132165E+02  0.50588755826E+02  0.10566000000E+00 0.  1.
         22    1    1    0    0    0 -0.12947143411E+02  0.83961262416E+01 -0.26347556045E+02  0.30533869193E+02  0.00000000000E+00 0.  1.
</event>
<event>
 5    1  0.1751020E-003  0.9118800E+02  0.7818608E-02  0.1130116E+00
         25   -1    0    0    0    0  0.00000000000E+00  0.00000000000E+00  0.99999998245E-14  0.12500000000E+03  0.12500000000E+03 0.  0.
        -13    1    3    3    0    0 -0.27682394537E+02  0.31570692259E+02  0.19125259700E+02  0.46139032279E+02  0.10566000000E+00 0.  1.
         23    2    1    0    0    0  0.19248287529E+02  0.15487114867E+02 -0.23200882304E+01  0.10018609041E+03  0.97064528035E+02 0.  0.
         13    1    3    3    0    0  0.46930682066E+02 -0.16083577392E+02 -0.21445347930E+02  0.54047058132E+02  0.10566000000E+00 0. -1.
         22    1    1    0    0    0 -0.19248287529E+02 -0.15487114867E+02  0.23200882304E+01  0.24813909589E+02  0.00000000000E+00 0. -1.
</event>
<event>
 5    1  0.1751020E-003  0.9118800E+02  0.7818608E-02  0.1130116E+00
         25   -1    0    0    0    0  0.00000000000E+00  0.00000000000E+00  0.99999998245E-14  0.12500000000E+03  0.12500000000E+03 0.  0.
        -13    1    3    3    0    0  0.23484115604E+02  0.53409377311E+00 -0.57080566743E+02  0.61725126210E+02  0.10566000000E+00 0. -1.
         23    2    1    0    0    0  0.11928150435E+02 -0.65908181855E+01 -0.25888967396E+02  0.95743235142E+02  0.91163637408E+02 0.  0.
         13    1    3    3    0    0 -0.11555965169E+02 -0.71249119586E+01  0.31191599348E+02  0.34018108932E+02  0.10566000000E+00 0.  1.
         22    1    1    0    0    0 -0.11928150435E+02  0.65908181855E+01  0.25888967396E+02  0.29256764858E+02  0.00000000000E+00 0. -1.
</event>
<event>
 5    1  0.1751020E-003  0.9118800E+02  0.7818608E-02  0.1130116E+00
         25   -1    0    0    0    0  0.00000000000E+00  0.00000000000E+00  0.99999998245E-14  0.12500000000E+03  0.12500000000E+03 0.  0.
        -13    1    3    3    0    0  0.22156198328E+02  0.17097602432E+02  0.22293004391E+02  0.35780083037E+02  0.10566000000E+00 0. -1.
         23    2    1    0    0    0  0.73253613931E+01 -0.11678583468E+02 -0.26959977701E+02  0.94719798069E+02  0.89749370568E+02 0.  0.
         13    1    3    3    0    0 -0.14830836935E+02 -0.28776185899E+02 -0.49252982092E+02  0.58939715033E+02  0.10566000000E+00 0.  1.
         22    1    1    0    0    0 -0.73253613931E+01  0.11678583468E+02  0.26959977701E+02  0.30280201931E+02  0.00000000000E+00 0.  1.
</event>
<event>
 5    1  0.1751020E-003  0.9118800E+02  0.7818608E-02  0.1130116E+00
         25   -1    0    0    0    0  0.00000000000E+00  0.00000000000E+00  0.99999998245E-14  0.12500000000E+03  0.12500000000E+03 0.  0.
        -13    1    3    3    0    0  0.26868991297E+02  0.31041985647E+02  0.80925213322E+01  0.41845521048E+02  0.10566000000E+00 0.  1.
         23    2    1    0    0    0  0.67483917499E+01 -0.18289298109E+02  0.20670299983E+02  0.96586965704E+02  0.92313278709E+02 0.  0.
         13    1    3    3    0    0 -0.20120599547E+02 -0.49331283756E+02  0.12577778651E+02  0.54741444656E+02  0.10566000000E+00 0. -1.
         22    1    1    0    0    0 -0.67483917499E+01  0.18289298109E+02 -0.20670299983E+02  0.28413034296E+02  0.00000000000E+00 0. -1.
</event>
<event>
 5    1  0.1751020E-003  0.9118800E+02  0.7818608E-02  0.1130116E+00
         25   -1    0    0    0    0  0.00000000000E+00  0.00000000000E+00  0.99999998245E-14  0.12500000000E+03  0.12500000000E+03 0.  0.
        -13    1    3    3    0    0 -0.16654626145E+02  0.34090932974E+02 -0.12492761169E+02  0.39945569576E+02  0.10566000000E+00 0.  1.
         23    2    1    0    0    0  0.26849216065E+02  0.55285854063E+01  0.88500446151E+01  0.96194289636E+02  0.91780021840E+02 0.  0.
         13    1    3    3    0    0  0.43503842210E+02 -0.28562347568E+02  0.21342805784E+02  0.56248720060E+02  0.10566000000E+00 0. -1.
         22    1    1    0    0    0 -0.26849216065E+02 -0.55285854063E+01 -0.88500446151E+01  0.28805710364E+02  0.00000000000E+00 0. -1.
</event>
<event>
 5    1  0.1751020E-003  0.9118800E+02  0.7818608E-02  0.1130116E+00
         25   -1    0    0    0    0  0.00000000000E+00  0.00000000000E+00  0.99999998245E-14  0.12500000000E+03  0.12500000000E+03 0.  0.
        -13    1    3    3    0    0  0.11473316300E+02 -0.37070318529E+02 -0.35305965516E+02  0.52463014284E+02  0.10566000000E+00 0.  1.
         23    2    1    0    0    0 -0.19004912385E+02 -0.19775326267E+02 -0.21588299433E+02  0.90095775383E+02  0.83059881085E+02 0.  0.
         13    1    3    3    0    0 -0.30478228685E+02  0.17294992262E+02  0.13717666083E+02  0.37632761099E+02  0.10566000000E+00 0. -1.
         22    1    1    0    0    0  0.19004912385E+02  0.19775326267E+02  0.21588299433E+02  0.34904224617E+02  0.00000000000E+00 0.  1.
</event>
<event>
 5    1  0.1751020E-003  0.9118800E+02  0.7818608E-02  0.1130116E+00
         25   -1    0    0    0    0  0.00000000000E+00  0.00000000000E+00  0.99999998245E-14  0.12500000000E+03  0.12500000000E+03 0.  0.
        -13    1    3    3    0    0 -0.35325767139E+02 -0.10877727896E+02 -0.37811480098E+01  0.37155659494E+02  0.10566000000E+00 0. -1.
         23    2    1    0    0    0  0.13342457374E+02  0.88405373256E+01  0.23683383691E+02  0.96415407436E+02  0.92080681248E+02 0.  0.
         13    1    3    3    0    0  0.48668224513E+02  0.19718265222E+02  0.27464531701E+02  0.59259747942E+02  0.10566000000E+00 0.  1.
         22    1    1    0    0    0 -0.13342457374E+02 -0.88405373256E+01 -0.23683383691E+02  0.28584592564E+02  0.00000000000E+00 0.  1.
</event>
<event>
 5    1  0.1751020E-003  0.9118800E+02  0.7818608E-02  0.1130116E+00
         25   -1    0    0    0    0  0.00000000000E+00  0.00000000000E+00  0.99999998245E-14  0.12500000000E+03  0.12500000000E+03 0.  0.
        -13    1    3    3    0    0  0.55143312683E+02  0.36124695394E+01  0.24583870435E+02  0.60483160627E+02  0.10566000000E+00 0. -1.
         23    2    1    0    0    0  0.17070212213E+02 -0.49461220207E+01  0.17333774986E+02  0.10017428705E+03  0.97049326444E+02 0.  0.
         13    1    3    3    0    0 -0.38073100470E+02 -0.85585915601E+01 -0.72500954492E+01  0.39691126426E+02  0.10566000000E+00 0.  1.
         22    1    1    0    0    0 -0.17070212213E+02  0.49461220207E+01 -0.17333774986E+02  0.24825712947E+02  0.00000000000E+00 0. -1.
</event>
<event>
 5    1  0.1751020E-003  0.9118800E+02  0.7818608E-02  0.1130116E+00
         25   -1    0    0    0    0  0.00000000000E+00  0.00000000000E+00  0.99999998245E-14  0.12500000000E+03  0.12500000000E+03 0.  0.
        -13    1    3    3    0    0 -0.37165909857E+02  0.10893993051E+02 -0.48386546395E+02  0.61977842623E+02  0.10566000000E+00 0. -1.
         23    2    1    0    0    0 -0.18154853145E+02 -0.17544013369E+00 -0.25210086020E+02  0.93932687450E+02  0.88646330226E+02 0.  0.
         13    1    3    3    0    0  0.19011056712E+02 -0.11069433185E+02  0.23176460376E+02  0.31954844827E+02  0.10566000000E+00 0.  1.
         22    1    1    0    0    0  0.18154853145E+02  0.17544013369E+00  0.25210086020E+02  0.31067312550E+02  0.00000000000E+00 0. -1.
</event>
<event>
 5    1  0.1751020E-003  0.9118800E+02  0.7818608E-02  0.1130116E+00
         25   -1    0    0    0    0  0.00000000000E+00  0.00000000000E+00  0.99999998245E-14  0.12500000000E+03  0.12500000000E+03 0.  0.
        -13    1    3    3    0    0  0.35198950758E+01 -0.86362658632E+01 -0.42159975506E+02  0.43179271047E+02  0.10566000000E+00 0.  1.
         23    2    1    0    0    0 -0.26253100255E+02 -0.11627013845E+02  0.16579418739E+01  0.96239584578E+02  0.91841690667E+02 0.  0.
         13    1    3    3    0    0 -0.29772995331E+02 -0.29907479815E+01  0.43817917380E+02  0.53060313532E+02  0.10566000000E+00 0. -1.
         22    1    1    0    0    0  0.26253100255E+02  0.11627013845E+02 -0.16579418739E+01  0.28760415422E+02  0.00000000000E+00 0.  1.
</event>
<event>
 5    1  0.1751020E-003  0.9118800E+02  0.7818608E-02  0.1130116E+00
         25   -1    0    0    0    0  0.00000000000E+00  0.00000000000E+00  0.99999998245E-14  0.12500000000E+03  0.12500000000E+03 0.  0.
        -13    1    3    3    0    0 -0.22278039262E+02 -0.54992434345E+02  0.39820588889E+01  0.59467191169E+02  0.10566000000E+00 0. -1.
         23    2    1    0    0    0 -0.33840744926E+01 -0.26097341619E+02 -0.10180791615E+02  0.96783485020E+02  0.92579000075E+02 0.  0.
         13    1    3    3    0    0  0.18893964769E+02  0.28895092726E+02 -0.14162850504E+02  0.37316293851E+02  0.10566000000E+00 0.  1.
         22    1    1    0    0    0  0.33840744926E+01  0.26097341619E+02  0.10180791615E+02  0.28216514980E+02  0.00000000000E+00 0. -1.
</event>
<event>
 5    1  0.1751020E-003  0.9118800E+02  0.7818608E-02  0.1130116E+00
         25   -1    0    0    0    0  0.00000000000E+00  0.00000000000E+00  0.99999998245E-14  0.12500000000E+03  0.12500000000E+03 0.  0.
        -13    1    3    3    0    0 -0.20661391596E+02 -0.14735664370E+02 -0.31144757236E+02  0.40175116359E+02  0.10566000000E+00 0.  1.
         23    2    1    0    0    0  0.22619134240E+02  0.14296695886E+02 -0.11592946908E+02  0.95838087082E+02  0.91293602024E+02 0.  0.
         13    1    3    3    0    0  0.43280525836E+02  0.29032360256E+02  0.19551810328E+02  0.55662970724E+02  0.10566000000E+00 0. -1.
         22    1    1    0    0    0 -0.22619134240E+02 -0.14296695886E+02  0.11592946908E+02  0.29161912918E+02  0.00000000000E+00 0. -1.
</event>
<event>
 5    1  0.1751020E-003  0.9118800E+02  0.7818608E-02  0.1130116E+00
         25   -1    0    0    0    0  0.00000000000E+00  0.00000000000E+00  0.99999998245E-14  0.12500000000E+03  0.12500000000E+03 0.  0.
        -13    1    3    3    0    0  0.96167322590E+00 -0.31140214816E+02  0.37410538307E+02  0.48684672482E+02  0.10566000000E+00 0. -1.
         23    2    1    0    0    0 -0.17447420684E+02 -0.23988201833E+02 -0.44837260622E+01  0.95000831426E+02  0.90139934860E+02 0.  0.
         13    1    3    3    0    0 -0.18409093910E+02  0.71520129823E+01 -0.41894264370E+02  0.46316158945E+02  0.10566000000E+00 0.  1.
         22    1    1    0    0    0  0.17447420684E+02  0.23988201833E+02  0.44837260622E+01  0.29999168574E+02  0.00000000000E+00 0.  1.
</event>
<event>
 5    1  0.1751020E-003  0.9118800E+02  0.7818608E-02  0.1130116E+00
         25   -1    0    0    0    0  0.00000000000E+00  0.00000000000E+00  0.99999998245E-14  0.12500000000E+03  0.12500000000E+03 0.  0.
        -13    1    3    3    0    0  0.36615961643E+02  0.72881173194E+01 -0.11184467502E+02  0.38973693416E+02  0.10566000000E+00 0.  1.
         23    2    1    0    0    0 -0.19650872580E+02  0.12824113872E+02  0.10190030514E+02  0.99417752022E+02  0.96069964117E+02 0.  0.
         13    1    3    3    0    0 -0.56266834223E+02  0.55359965523E+01  0.21374498016E+02  0.60444058606E+02  0.10566000000E+00 0. -1.
         22    1    1    0    0    0  0.19650872580E+02 -0.12824113872E+02 -0.10190030514E+02  0.25582247978E+02  0.00000000000E+00 0. -1.
</event>
<event>
 4    1  0.1751020E-003  0.9118800E+02  0.7818608E-02  0.1130116E+00
         25   -1    0    0    0    0  0.00000000000E+00  0.00000000000E+00  0.99999998245E-14  0.12500000000E+03  0.12500000000E+03 0.  0.
        -13    1    1    0    0    0  0.11958982280E+00  0.34534263799E+02  0.96492959328E+01  0.35857352856E+02  0.10566000000E+00 0. -1.
         13    1    1    0    0    0  0.35216709994E-01  0.11576843360E+02  0.27558557521E+02  0.29891634265E+02  0.10566000000E+00 0.  1.
         22    1    1    0    0    0 -0.15480653279E+00 -0.46111107159E+02 -0.37207853453E+02  0.59251012878E+02  0.00000000000E+00 0. -1.
</event>
<event>
 5    1  0.1751020E-003  0.9118800E+02  0.7818608E-02  0.1130116E+00
         25   -1    0    0    0    0  0.00000000000E+00  0.00000000000E+00  0.99999998245E-14  0.12500000000E+03  0.12500000000E+03 0.  0.
        -13    1    3    3    0    0  0.20091038292E+02  0.34709326253E+02 -0.29586506082E+02  0.49837331939E+02  0.10566000000E+00 0. -1.
         23    2    1    0    0    0  0.11185077393E+02  0.35659720702E+02  0.65414493833E+01  0.87059095993E+02  0.78356709975E+02 0.  0.
         13    1    3    3    0    0 -0.89059608992E+01  0.95039444969E+00  0.36127955466E+02  0.37221764054E+02  0.10566000000E+00 0.  1.
         22    1    1    0    0    0 -0.11185077393E+02 -0.35659720702E+02 -0.65414493833E+01  0.37940904007E+02  0.00000000000E+00 0. -1.
</event>
<event>
 5    1  0.1751020E-003  0.9118800E+02  0.7818608E-02  0.1130116E+00
         25   -1    0    0    0    0  0.00000000000E+00  0.00000000000E+00  0.99999998245E-14  0.12500000000E+03  0.12500000000E+03 0.  0.
        -13    1    3    3    0    0 -0.39372637517E+02 -0.97663303496E+01  0.39078244413E+02  0.56326779990E+02  0.10566000000E+00 0. -1.
         23    2    1    0    0    0 -0.22947050900E+02 -0.18840481536E+02  0.54836575772E+01  0.94807262629E+02  0.89871105798E+02 0.  0.
         13    1    3    3    0    0  0.16425586617E+02 -0.90741511860E+01 -0.33594586836E+02  0.38480482640E+02  0.10566000000E+00 0.  1.
         22    1    1    0    0    0  0.22947050900E+02  0.18840481536E+02 -0.54836575772E+01  0.30192737371E+02  0.00000000000E+00 0. -1.
</event>
<event>
 5    1  0.1751020E-003  0.9118800E+02  0.7818608E-02  0.1130116E+00
         25   -1    0    0    0    0  0.00000000000E+00  0.00000000000E+00  0.99999998245E-14  0.12500000000E+03  0.12500000000E+03 0.  0.
        -13    1    3    3    0    0  0.28563110269E+02  0.32759691463E+02 -0.29932030378E+02  0.52772969024E+02  0.10566000000E+00 0.  1.
         23    2    1    0    0    0  0.27499113006E+02 -0.10183119710E+01 -0.67339753651E+00  0.97473800850E+02  0.93506418028E+02 0.  0.
         13    1    3    3    0    0 -0.10639972629E+01 -0.33778003434E+02  0.29258632841E+02  0.44700831826E+02  0.10566000000E+00 0. -1.
         22    1    1    0    0    0 -0.27499113006E+02  0.10183119710E+01  0.67339753651E+00  0.27526199150E+02  0.00000000000E+00 0. -1.
</event>
<event>
 5    1  0.1751020E-003  0.9118800E+02  0.7818608E-02  0.1130116E+00
         25   -1    0    0    0    0  0.00000000000E+00  0.00000000000E+00  0.99999998245E-14  0.12500000000E+03  0.12500000000E+03 0.  0.
        -13    1    3    3    0    0 -0.29842520350E+02 -0.37921174223E+02  0.31208666634E+02  0.57468108655E+02  0.10566000000E+00 0.  1.
         23    2    1    0    0    0 -0.18169545314E+02 -0.27751087109E+01  0.23275489570E+02  0.95342251940E+02  0.90612156938E+02 0.  0.
         13    1    3    3    0    0  0.11672975036E+02  0.35146065512E+02 -0.79331770637E+01  0.37874143285E+02  0.10566000000E+00 0. -1.
         22    1    1    0    0    0  0.18169545314E+02  0.27751087109E+01 -0.23275489570E+02  0.29657748060E+02  0.00000000000E+00 0.  1.
</event>
<event>
 5    1  0.1751020E-003  0.9118800E+02  0.7818608E-02  0.1130116E+00
         25   -1    0    0    0    0  0.00000000000E+00  0.00000000000E+00  0.99999998245E-14  0.12500000000E+03  0.12500000000E+03 0.  0.
        -13    1    3    3    0    0  0.22382379280E+02  0.46801680698E+02 -0.27368894410E+02  0.58655227931E+02  0.10566000000E+00 0.  1.
         23    2    1    0    0    0  0.52825232130E+01  0.13864998608E+02 -0.25108613372E+02  0.95835197526E+02  0.91289645532E+02 0.  0.
         13    1    3    3    0    0 -0.17099856067E+02 -0.32936682090E+02  0.22602810380E+01  0.37179969594E+02  0.10566000000E+00 0. -1.
         22    1    1    0    0    0 -0.52825232130E+01 -0.13864998608E+02  0.25108613372E+02  0.29164802474E+02  0.00000000000E+00 0.  1.
</event>
<event>
 5    1  0.1751020E-003  0.9118800E+02  0.7818608E-02  0.1130116E+00
         25   -1    0    0    0    0  0.00000000000E+00  0.00000000000E+00  0.99999998245E-14  0.12500000000E+03  0.12500000000E+03 0.  0.
        -13    1    3    3    0    0  0.10086154695E+02 -0.28545687239E+02  0.93316031978E+01  0.31680857923E+02  0.10566000000E+00 0. -1.
         23    2    1    0    0    0 -0.12911516375E+02  0.26417245579E+02 -0.93898282203E+01  0.94133400040E+02  0.88928904244E+02 0.  0.
         13    1    3    3    0    0 -0.22997671069E+02  0.54962932818E+02 -0.18721431418E+02  0.62452542117E+02  0.10566000000E+00 0.  1.
         22    1    1    0    0    0  0.12911516375E+02 -0.26417245579E+02  0.93898282203E+01  0.30866599960E+02  0.00000000000E+00 0.  1.
</event>
<event>
 5    1  0.1751020E-003  0.9118800E+02  0.7818608E-02  0.1130116E+00
         25   -1    0    0    0    0  0.00000000000E+00  0.00000000000E+00  0.99999998245E-14  0.12500000000E+03  0.12500000000E+03 0.  0.
        -13    1    3    3    0    0  0.23371082532E+02  0.29566724632E+01 -0.48687139096E+02  0.54086949333E+02  0.10566000000E+00 0.  1.
         23    2    1    0    0    0 -0.95384183249E+01 -0.81329743948E+01 -0.27526195463E+02  0.94754039389E+02  0.89797048099E+02 0.  0.
         13    1    3    3    0    0 -0.32909500857E+02 -0.11089646858E+02  0.21160943634E+02  0.40667090055E+02  0.10566000000E+00 0. -1.
         22    1    1    0    0    0  0.95384183249E+01  0.81329743948E+01  0.27526195463E+02  0.30245960611E+02  0.00000000000E+00 0.  1.
</event>
<event>
 5    1  0.1751020E-003  0.9118800E+02  0.7818608E-02  0.1130116E+00
         25   -1    0    0    0    0  0.00000000000E+00  0.00000000000E+00  0.99999998245E-14  0.12500000000E+03  0.12500000000E+03 0.  0.
        -13    1    3    3    0    0 -0.31124657509E+02  0.42636101340E+02 -0.25575317945E+02  0.58657390792E+02  0.10566000000E+00 0. -1.
         23    2    1    0    0    0 -0.22492158753E+02  0.17817096228E+02  0.13420034400E+01  0.96274626258E+02  0.91889371336E+02 0.  0.
         13    1    3    3    0    0  0.86324987560E+01 -0.24819005111E+02  0.26917321385E+02  0.37617235466E+02  0.10566000000E+00 0.  1.
         22    1    1    0    0    0  0.22492158753E+02 -0.17817096228E+02 -0.13420034400E+01  0.28725373742E+02  0.00000000000E+00 0. -1.
</event>
<event>
 5    1  0.1751020E-003  0.9118800E+02  0.7818608E-02  0.1130116E+00
         25   -1    0    0    0    0  0.00000000000E+00  0.00000000000E+00  0.99999998245E-14  0.12500000000E+03  0.12500000000E+03 0.  0.
        -13    1    3    3    0    0  0.52292043007E+02  0.29989715258E+02  0.25933604605E+01  0.60337198026E+02  0.10566000000E+00 0.  1.
         23    2    1    0    0    0  0.16433817657E+02  0.11454780734E+02  0.11815907473E+02  0.10174278534E+03  0.99048959280E+02 0.  0.
         13    1    3    3    0    0 -0.35858225351E+02 -0.18534934525E+02  0.92225470129E+01  0.41405587311E+02  0.10566000000E+00 0. -1.
         22    1    1    0    0    0 -0.16433817657E+02 -0.11454780734E+02 -0.11815907473E+02  0.23257214662E+02  0.00000000000E+00 0.  1.
</event>
<event>
 5    1  0.1751020E-003  0.9118800E+02  0.7818608E-02  0.1130116E+00
         25   -1    0    0    0    0  0.00000000000E+00  0.00000000000E+00  0.99999998245E-14  0.12500000000E+03  0.12500000000E+03 0.  0.
        -13    1    3    3    0    0 -0.19258609871E+02 -0.30762306227E+02 -0.68270638764E+01  0.36930116488E+02  0.10566000000E+00 0. -1.
         23    2    1    0    0    0  0.27546558195E+02 -0.39991596892E+00  0.10754839461E+02  0.95425697422E+02  0.90727197441E+02 0.  0.
         13    1    3    3    0    0  0.46805168066E+02  0.30362390258E+02  0.17581903337E+02  0.58495580934E+02  0.10566000000E+00 0.  1.
         22    1    1    0    0    0 -0.27546558195E+02  0.39991596892E+00 -0.10754839461E+02  0.29574302578E+02  0.00000000000E+00 0.  1.
</event>
<event>
 5    1  0.1751020E-003  0.9118800E+02  0.7818608E-02  0.1130116E+00
         25   -1    0    0    0    0  0.00000000000E+00  0.00000000000E+00  0.99999998245E-14  0.12500000000E+03  0.12500000000E+03 0.  0.
        -13    1    3    3    0    0  0.43095557442E+02 -0.25249750105E+02  0.37536876246E+02  0.62480438490E+02  0.10566000000E+00 0.  1.
         23    2    1    0    0    0  0.20412541914E+02 -0.12758239977E+02  0.17005859239E+02  0.95527236249E+02  0.90866985546E+02 0.  0.
         13    1    3    3    0    0 -0.22683015528E+02  0.12491510129E+02 -0.20531017007E+02  0.33046797759E+02  0.10566000000E+00 0. -1.
         22    1    1    0    0    0 -0.20412541914E+02  0.12758239977E+02 -0.17005859239E+02  0.29472763751E+02  0.00000000000E+00 0.  1.
</event>
<event>
 5    1  0.1751020E-003  0.9118800E+02  0.7818608E-02  0.1130116E+00
         25   -1    0    0    0    0  0.00000000000E+00  0.00000000000E+00  0.99999998245E-14  0.12500000000E+03  0.12500000000E+03 0.  0.
        -13    1    3    3    0    0  0.29099361847E+02  0.13913999254E+02 -0.21278441325E+02  0.38641369857E+02  0.10566000000E+00 0.  1.
         23    2    1    0    0    0 -0.24153705626E+02  0.16427003376E+02 -0.71894911176E+00  0.95780745677E+02  0.91215055880E+02 0.  0.
         13    1    3    3    0    0 -0.53253067473E+02  0.25130041227E+01  0.20559492213E+02  0.57139375820E+02  0.10566000000E+00 0. -1.
         22    1    1    0    0    0  0.24153705626E+02 -0.16427003376E+02  0.71894911176E+00  0.29219254323E+02  0.00000000000E+00 0. -1.
</event>
<event>
 5    1  0.1751020E-003  0.9118800E+02  0.7818608E-02  0.1130116E+00
         25   -1    0    0    0    0  0.00000000000E+00  0.00000000000E+00  0.99999998245E-14  0.12500000000E+03  0.12500000000E+03 0.  0.
        -13    1    3    3    0    0  0.11953678086E+02  0.40127113601E+02  0.36029256106E+02  0.55237615131E+02  0.10566000000E+00 0. -1.
         23    2    1    0    0    0  0.25926767675E+01 -0.81956422223E+01 -0.27586687818E+00  0.11639961473E+03  0.11608145279E+03 0.  0.
         13    1    3    3    0    0 -0.93610013181E+01 -0.48322755823E+02 -0.36305122984E+02  0.61161999599E+02  0.10566000000E+00 0.  1.
         22    1    1    0    0    0 -0.25926767675E+01  0.81956422223E+01  0.27586687818E+00  0.86003852699E+01  0.00000000000E+00 0.  1.
</event>
<event>
 5    1  0.1751020E-003  0.9118800E+02  0.7818608E-02  0.1130116E+00
         25   -1    0    0    0    0  0.00000000000E+00  0.00000000000E+00  0.99999998245E-14  0.12500000000E+03  0.12500000000E+03 0.  0.
        -13    1    3    3    0    0 -0.23389769434E+02  0.22187530944E+02 -0.28355586122E+02  0.42935047128E+02  0.10566000000E+00 0.  1.
         23    2    1    0    0    0  0.22647871807E+02 -0.67963992913E+00 -0.19520381777E+02  0.95092922033E+02  0.90267549586E+02 0.  0.
         13    1    3    3    0    0  0.46037641241E+02 -0.22867170873E+02  0.88352043452E+01  0.52157874905E+02  0.10566000000E+00 0. -1.
         22    1    1    0    0    0 -0.22647871807E+02  0.67963992913E+00  0.19520381777E+02  0.29907077967E+02  0.00000000000E+00 0. -1.
</event>
<event>
 5    1  0.1751020E-003  0.9118800E+02  0.7818608E-02  0.1130116E+00
         25   -1    0    0    0    0  0.00000000000E+00  0.00000000000E+00  0.99999998245E-14  0.12500000000E+03  0.12500000000E+03 0.  0.
        -13    1    3    3    0    0  0.25291100841E+02 -0.10238513991E+02 -0.33948275005E+02  0.43554144354E+02  0.10566000000E+00 0.  1.
         23    2    1    0    0    0  0.25046559012E+02  0.10363937517E+02  0.13083729262E+02  0.94901407166E+02  0.90001954376E+02 0.  0.
         13    1    3    3    0    0 -0.24454182902E+00  0.20602451508E+02  0.47032004268E+02  0.51347262812E+02  0.10566000000E+00 0. -1.
         22    1    1    0    0    0 -0.25046559012E+02 -0.10363937517E+02 -0.13083729262E+02  0.30098592834E+02  0.00000000000E+00 0. -1.
</event>
<event>
 5    1  0.1751020E-003  0.9118800E+02  0.7818608E-02  0.1130116E+00
         25   -1    0    0    0    0  0.00000000000E+00  0.00000000000E+00  0.99999998245E-14  0.12500000000E+03  0.12500000000E+03 0.  0.
        -13    1    3    3    0    0 -0.45399592098E+02  0.16743529653E+01  0.20898386111E+02  0.50006800804E+02  0.10566000000E+00 0.  1.
         23    2    1    0    0    0 -0.75589049355E+01  0.25582926027E+02  0.12464133366E+02  0.95555513785E+02  0.90905876852E+02 0.  0.
         13    1    3    3    0    0  0.37840687163E+02  0.23908573062E+02 -0.84342527454E+01  0.45548712981E+02  0.10566000000E+00 0. -1.
         22    1    1    0    0    0  0.75589049355E+01 -0.25582926027E+02 -0.12464133366E+02  0.29444486215E+02  0.00000000000E+00 0.  1.
</event>
<event>
 5    1  0.1751020E-003  0.9118800E+02  0.7818608E-02  0.1130116E+00
         25   -1    0    0    0    0  0.00000000000E+00  0.00000000000E+00  0.99999998245E-14  0.12500000000E+03  0.12500000000E+03 0.  0.
        -13    1    3    3    0    0  0.54602031909E+00  0.34594430919E+02 -0.51536529259E+02  0.62073326001E+02  0.10566000000E+00 0.  1.
         23    2    1    0    0    0  0.24269462511E+01  0.21433694858E+02 -0.23507890097E+02  0.93095231701E+02  0.87457463520E+02 0.  0.
         13    1    3    3    0    0  0.18809259320E+01 -0.13160736061E+02  0.28028639161E+02  0.31021905700E+02  0.10566000000E+00 0. -1.
         22    1    1    0    0    0 -0.24269462511E+01 -0.21433694858E+02  0.23507890097E+02  0.31904768299E+02  0.00000000000E+00 0.  1.
</event>
<event>
 5    1  0.1751020E-003  0.9118800E+02  0.7818608E-02  0.1130116E+00
         25   -1    0    0    0    0  0.00000000000E+00  0.00000000000E+00  0.99999998245E-14  0.12500000000E+03  0.12500000000E+03 0.  0.
        -13    1    3    3    0    0  0.15478258955E+01 -0.20364220160E+02  0.56295757043E+02  0.59885896944E+02  0.10566000000E+00 0. -1.
         23    2    1    0    0    0 -0.96705351100E+01 -0.18181228756E+02  0.29441007588E+02  0.89071609330E+02  0.81504001941E+02 0.  0.
         13    1    3    3    0    0 -0.11218361005E+02  0.21829914045E+01 -0.26854749455E+02  0.29185712386E+02  0.10566000000E+00 0.  1.
         22    1    1    0    0    0  0.96705351100E+01  0.18181228756E+02 -0.29441007588E+02  0.35928390670E+02  0.00000000000E+00 0. -1.
</event>
<event>
 5    1  0.1751020E-003  0.9118800E+02  0.7818608E-02  0.1130116E+00
         25   -1    0    0    0    0  0.00000000000E+00  0.00000000000E+00  0.99999998245E-14  0.12500000000E+03  0.12500000000E+03 0.  0.
        -13    1    3    3    0    0  0.42360259030E+02  0.86534744366E+00 -0.32903537053E+02  0.53645076996E+02  0.10566000000E+00 0.  1.
         23    2    1    0    0    0  0.42216790004E+02 -0.87500405464E+01 -0.69419480966E+01  0.81330660514E+02  0.68612426924E+02 0.  0.
         13    1    3    3    0    0 -0.14346902593E+00 -0.96153879901E+01  0.25961588956E+02  0.27685583518E+02  0.10566000000E+00 0. -1.
         22    1    1    0    0    0 -0.42216790004E+02  0.87500405464E+01  0.69419480966E+01  0.43669339486E+02  0.00000000000E+00 0.  1.
</event>
<event>
 5    1  0.1751020E-003  0.9118800E+02  0.7818608E-02  0.1130116E+00
         25   -1    0    0    0    0  0.00000000000E+00  0.00000000000E+00  0.99999998245E-14  0.12500000000E+03  0.12500000000E+03 0.  0.
        -13    1    3    3    0    0  0.25160288388E+02 -0.26067449107E+02 -0.41026469132E+02  0.54733302003E+02  0.10566000000E+00 0. -1.
         23    2    1    0    0    0  0.13079922874E+02 -0.25344937991E+02 -0.10955918961E+01  0.96457915532E+02  0.92138368138E+02 0.  0.
         13    1    3    3    0    0 -0.12080365514E+02  0.72251111640E+00  0.39930877236E+02  0.41724613529E+02  0.10566000000E+00 0.  1.
         22    1    1    0    0    0 -0.13079922874E+02  0.25344937991E+02  0.10955918961E+01  0.28542084468E+02  0.00000000000E+00 0. -1.
</event>
<event>
 5    1  0.1751020E-003  0.9118800E+02  0.7818608E-02  0.1130116E+00
         25   -1    0    0    0    0  0.00000000000E+00  0.00000000000E+00  0.99999998245E-14  0.12500000000E+03  0.12500000000E+03 0.  0.
        -13    1    3    3    0    0 -0.91985888548E+01  0.24493952113E+02 -0.54018122489E+02  0.60021133347E+02  0.10566000000E+00 0.  1.
         23    2    1    0    0    0  0.68075590965E+01  0.17250638531E+02 -0.27933279908E+02  0.91470975007E+02  0.85104311006E+02 0.  0.
         13    1    3    3    0    0  0.16006147951E+02 -0.72433135817E+01  0.26084842582E+02  0.31449841660E+02  0.10566000000E+00 0. -1.
         22    1    1    0    0    0 -0.68075590965E+01 -0.17250638531E+02  0.27933279908E+02  0.33529024993E+02  0.00000000000E+00 0.  1.
</event>
<event>
 5    1  0.1751020E-003  0.9118800E+02  0.7818608E-02  0.1130116E+00
         25   -1    0    0    0    0  0.00000000000E+00  0.00000000000E+00  0.99999998245E-14  0.12500000000E+03  0.12500000000E+03 0.  0.
        -13    1    3    3    0    0  0.38988610256E+00 -0.20959524211E+02  0.31741289872E+02  0.38039115566E+02  0.10566000000E+00 0. -1.
         23    2    1    0    0    0 -0.10456703597E+02  0.26832201847E+02  0.42224125420E+00  0.96199166787E+02  0.91786664047E+02 0.  0.
         13    1    3    3    0    0 -0.10846589699E+02  0.47791726058E+02 -0.31319048618E+02  0.58160051221E+02  0.10566000000E+00 0.  1.
         22    1    1    0    0    0  0.10456703597E+02 -0.26832201847E+02 -0.42224125420E+00  0.28800833213E+02  0.00000000000E+00 0.  1.
</event>
<event>
 5    1  0.1751020E-003  0.9118800E+02  0.7818608E-02  0.1130116E+00
         25   -1    0    0    0    0  0.00000000000E+00  0.00000000000E+00  0.99999998245E-14  0.12500000000E+03  0.12500000000E+03 0.  0.
        -13    1    3    3    0    0  0.14210168158E+02  0.15202873360E+02 -0.58879607809E+02  0.62448984118E+02  0.10566000000E+00 0.  1.
         23    2    1    0    0    0  0.74062632193E+01  0.87252382172E+01 -0.27254773822E+02  0.95439803572E+02  0.90746630201E+02 0.  0.
         13    1    3    3    0    0 -0.68039049386E+01 -0.64776351432E+01  0.31624833988E+02  0.32990819454E+02  0.10566000000E+00 0. -1.
         22    1    1    0    0    0 -0.74062632193E+01 -0.87252382172E+01  0.27254773822E+02  0.29560196428E+02  0.00000000000E+00 0.  1.
</event>
<event>
 5    1  0.1751020E-003  0.9118800E+02  0.7818608E-02  0.1130116E+00
         25   -1    0    0    0    0  0.00000000000E+00  0.00000000000E+00  0.99999998245E-14  0.12500000000E+03  0.12500000000E+03 0.  0.
        -13    1    3    3    0    0 -0.54087131989E+02 -0.10520965811E+02  0.24248752607E+02  0.60200678862E+02  0.10566000000E+00 0. -1.
         23    2    1    0    0    0 -0.29500485150E+02  0.34390953125E+01  0.38797567945E+01  0.95047395548E+02  0.90204483741E+02 0.  0.
         13    1    3    3    0    0  0.24586646839E+02  0.13960061124E+02 -0.20368995813E+02  0.34846716686E+02  0.10566000000E+00 0.  1.
         22    1    1    0    0    0  0.29500485150E+02 -0.34390953125E+01 -0.38797567945E+01  0.29952604452E+02  0.00000000000E+00 0. -1.
</event>
<event>
 5    1  0.1751020E-003  0.9118800E+02  0.7818608E-02  0.1130116E+00
         25   -1    0    0    0    0  0.00000000000E+00  0.00000000000E+00  0.99999998245E-14  0.12500000000E+03  0.12500000000E+03 0.  0.
        -13    1    3    3    0    0  0.13423503071E+02  0.47117104218E+02  0.36143406065E+02  0.60881597471E+02  0.10566000000E+00 0. -1.
         23    2    1    0    0    0  0.14869238462E+02  0.19168570223E+02  0.11580545870E+02  0.98118084527E+02  0.94363770229E+02 0.  0.
         13    1    3    3    0    0  0.14457353911E+01 -0.27948533995E+02 -0.24562860195E+02  0.37236487056E+02  0.10566000000E+00 0.  1.
         22    1    1    0    0    0 -0.14869238462E+02 -0.19168570223E+02 -0.11580545870E+02  0.26881915473E+02  0.00000000000E+00 0. -1.
</event>
<event>
 5    1  0.1751020E-003  0.9118800E+02  0.7818608E-02  0.1130116E+00
         25   -1    0    0    0    0  0.00000000000E+00  0.00000000000E+00  0.99999998245E-14  0.12500000000E+03  0.12500000000E+03 0.  0.
        -13    1    3    3    0    0 -0.28646155310E+02 -0.50006452467E+02 -0.18624866259E+02  0.60565207088E+02  0.10566000000E+00 0. -1.
         23    2    1    0    0    0 -0.12058982264E+02 -0.25220025359E+02  0.22275460412E+01  0.96956628346E+02  0.92812483463E+02 0.  0.
         13    1    3    3    0    0  0.16587173046E+02  0.24786427109E+02  0.20852412300E+02  0.36391421259E+02  0.10566000000E+00 0.  1.
         22    1    1    0    0    0  0.12058982264E+02  0.25220025359E+02 -0.22275460412E+01  0.28043371654E+02  0.00000000000E+00 0. -1.
</event>
<event>
 5    1  0.1751020E-003  0.9118800E+02  0.7818608E-02  0.1130116E+00
         25   -1    0    0    0    0  0.00000000000E+00  0.00000000000E+00  0.99999998245E-14  0.12500000000E+03  0.12500000000E+03 0.  0.
        -13    1    3    3    0    0  0.21572676360E+02  0.34939090876E+01  0.35223158914E+02  0.41452018696E+02  0.10566000000E+00 0. -1.
         23    2    1    0    0    0  0.23641415990E+02 -0.46693034114E+01 -0.17737290584E+02  0.95077927518E+02  0.90246783208E+02 0.  0.
         13    1    3    3    0    0  0.20687396298E+01 -0.81632124989E+01 -0.52960449498E+02  0.53625908822E+02  0.10566000000E+00 0.  1.
         22    1    1    0    0    0 -0.23641415990E+02  0.46693034114E+01  0.17737290584E+02  0.29922072482E+02  0.00000000000E+00 0.  1.
</event>
<event>
 5    1  0.1751020E-003  0.9118800E+02  0.7818608E-02  0.1130116E+00
         25   -1    0    0    0    0  0.00000000000E+00  0.00000000000E+00  0.99999998245E-14  0.12500000000E+03  0.12500000000E+03 0.  0.
        -13    1    3    3    0    0  0.49290527738E+02  0.25171380540E+02 -0.13568584219E+02  0.56984841535E+02  0.10566000000E+00 0.  1.
         23    2    1    0    0    0  0.22201222049E+02 -0.62761785124E+00  0.94003600620E+01  0.10088247662E+03  0.97957231256E+02 0.  0.
         13    1    3    3    0    0 -0.27089305690E+02 -0.25798998392E+02  0.22968944281E+02  0.43897635086E+02  0.10566000000E+00 0. -1.
         22    1    1    0    0    0 -0.22201222049E+02  0.62761785124E+00 -0.94003600620E+01  0.24117523379E+02  0.00000000000E+00 0.  1.
</event>
<event>
 5    1  0.1751020E-003  0.9118800E+02  0.7818608E-02  0.1130116E+00
         25   -1    0    0    0    0  0.00000000000E+00  0.00000000000E+00  0.99999998245E-14  0.12500000000E+03  0.12500000000E+03 0.  0.
        -13    1    3    3    0    0 -0.34345702976E+02 -0.16039324934E+02 -0.48475396538E+02  0.61536675981E+02  0.10566000000E+00 0. -1.
         23    2    1    0    0    0 -0.91155793990E+01 -0.43844701826E+01 -0.25400588462E+02  0.97659420987E+02  0.93754227887E+02 0.  0.
         13    1    3    3    0    0  0.25230123577E+02  0.11654854752E+02  0.23074808076E+02  0.36122745006E+02  0.10566000000E+00 0.  1.
         22    1    1    0    0    0  0.91155793990E+01  0.43844701826E+01  0.25400588462E+02  0.27340579013E+02  0.00000000000E+00 0. -1.
</event>
<event>
 5    1  0.1751020E-003  0.9118800E+02  0.7818608E-02  0.1130116E+00
         25   -1    0    0    0    0  0.00000000000E+00  0.00000000000E+00  0.99999998245E-14  0.12500000000E+03  0.12500000000E+03 0.  0.
        -13    1    3    3    0    0 -0.30699371408E+02 -0.22006359936E+02  0.43711252206E+00  0.37774773512E+02  0.10566000000E+00 0.  1.
         23    2    1    0    0    0  0.32713068420E+01  0.23423760318E+02  0.15814550124E+02  0.96548743586E+02  0.92261508207E+02 0.  0.
         13    1    3    3    0    0  0.33970678250E+02  0.45430120254E+02  0.15377437602E+02  0.58773970074E+02  0.10566000000E+00 0. -1.
         22    1    1    0    0    0 -0.32713068420E+01 -0.23423760318E+02 -0.15814550124E+02  0.28451256414E+02  0.00000000000E+00 0. -1.
</event>
<event>
 5    1  0.1751020E-003  0.9118800E+02  0.7818608E-02  0.1130116E+00
         25   -1    0    0    0    0  0.00000000000E+00  0.00000000000E+00  0.99999998245E-14  0.12500000000E+03  0.12500000000E+03 0.  0.
        -13    1    3    3    0    0 -0.10715610278E+02  0.16065934407E+02  0.25342905193E+02  0.31862400407E+02  0.10566000000E+00 0.  1.
         23    2    1    0    0    0  0.10877025282E+02 -0.33283349149E+02  0.15871503268E+02  0.86555291319E+02  0.77548841576E+02 0.  0.
         13    1    3    3    0    0  0.21592635560E+02 -0.49349283556E+02 -0.94714019252E+01  0.54692890913E+02  0.10566000000E+00 0. -1.
         22    1    1    0    0    0 -0.10877025282E+02  0.33283349149E+02 -0.15871503268E+02  0.38444708681E+02  0.00000000000E+00 0. -1.
</event>
<event>
 5    1  0.1751020E-003  0.9118800E+02  0.7818608E-02  0.1130116E+00
         25   -1    0    0    0    0  0.00000000000E+00  0.00000000000E+00  0.99999998245E-14  0.12500000000E+03  0.12500000000E+03 0.  0.
        -13    1    3    3    0    0  0.37046000884E+02  0.10773586038E+02 -0.12634959761E+02  0.40597163815E+02  0.10566000000E+00 0. -1.
         23    2    1    0    0    0 -0.51247478888E+01  0.20935811453E+02  0.20555023600E+02  0.95216107754E+02  0.90437972880E+02 0.  0.
         13    1    3    3    0    0 -0.42170748773E+02  0.10162225414E+02  0.33189983361E+02  0.54618943939E+02  0.10566000000E+00 0.  1.
         22    1    1    0    0    0  0.51247478888E+01 -0.20935811453E+02 -0.20555023600E+02  0.29783892246E+02  0.00000000000E+00 0. -1.
</event>
<event>
 5    1  0.1751020E-003  0.9118800E+02  0.7818608E-02  0.1130116E+00
         25   -1    0    0    0    0  0.00000000000E+00  0.00000000000E+00  0.99999998245E-14  0.12500000000E+03  0.12500000000E+03 0.  0.
        -13    1    3    3    0    0 -0.41449986044E+02 -0.14143948050E+02  0.40217181453E+02  0.59460789244E+02  0.10566000000E+00 0.  1.
         23    2    1    0    0    0 -0.12305901005E+02  0.12555638589E+01  0.27598485619E+02  0.94756189912E+02  0.89800041638E+02 0.  0.
         13    1    3    3    0    0  0.29144085039E+02  0.15399511909E+02 -0.12618695833E+02  0.35295400669E+02  0.10566000000E+00 0. -1.
         22    1    1    0    0    0  0.12305901005E+02 -0.12555638589E+01 -0.27598485619E+02  0.30243810088E+02  0.00000000000E+00 0.  1.
</event>
<event>
 5    1  0.1751020E-003  0.9118800E+02  0.7818608E-02  0.1130116E+00
         25   -1    0    0    0    0  0.00000000000E+00  0.00000000000E+00  0.99999998245E-14  0.12500000000E+03  0.12500000000E+03 0.  0.
        -13    1    3    3    0    0 -0.48801646778E+01  0.32724928241E+01 -0.46145447669E+02  0.46518154748E+02  0.10566000000E+00 0.  1.
         23    2    1    0    0    0 -0.73674794581E+01 -0.27298429407E+02 -0.77089049359E+01  0.95692812878E+02  0.91094474144E+02 0.  0.
         13    1    3    3    0    0 -0.24873147804E+01 -0.30570922231E+02  0.38436542733E+02  0.49174658130E+02  0.10566000000E+00 0. -1.
         22    1    1    0    0    0  0.73674794581E+01  0.27298429407E+02  0.77089049359E+01  0.29307187122E+02  0.00000000000E+00 0.  1.
</event>
<event>
 5    1  0.1751020E-003  0.9118800E+02  0.7818608E-02  0.1130116E+00
         25   -1    0    0    0    0  0.00000000000E+00  0.00000000000E+00  0.99999998245E-14  0.12500000000E+03  0.12500000000E+03 0.  0.
        -13    1    3    3    0    0  0.41783722047E+02  0.63444198874E+01 -0.96885392998E+00  0.42273880042E+02  0.10566000000E+00 0.  1.
         23    2    1    0    0    0 -0.82639708618E+01  0.26954368597E+02 -0.42025942065E+01  0.96495737180E+02  0.92189664795E+02 0.  0.
         13    1    3    3    0    0 -0.50047692909E+02  0.20609948709E+02 -0.32337402765E+01  0.54221857138E+02  0.10566000000E+00 0. -1.
         22    1    1    0    0    0  0.82639708618E+01 -0.26954368597E+02  0.42025942065E+01  0.28504262820E+02  0.00000000000E+00 0. -1.
</event>
<event>
 5    1  0.1751020E-003  0.9118800E+02  0.7818608E-02  0.1130116E+00
         25   -1    0    0    0    0  0.00000000000E+00  0.00000000000E+00  0.99999998245E-14  0.12500000000E+03  0.12500000000E+03 0.  0.
        -13    1    3    3    0    0 -0.57542965316E+01 -0.52228023268E+01  0.33750615805E+02  0.34633868164E+02  0.10566000000E+00 0.  1.
         23    2    1    0    0    0  0.88029742936E+01  0.21574019890E+02 -0.18577504380E+02  0.95199759067E+02  0.90415373509E+02 0.  0.
         13    1    3    3    0    0  0.14557270825E+02  0.26796822217E+02 -0.52328120185E+02  0.60565890904E+02  0.10566000000E+00 0. -1.
         22    1    1    0    0    0 -0.88029742936E+01 -0.21574019890E+02  0.18577504380E+02  0.29800240933E+02  0.00000000000E+00 0. -1.
</event>
<event>
 5    1  0.1751020E-003  0.9118800E+02  0.7818608E-02  0.1130116E+00
         25   -1    0    0    0    0  0.00000000000E+00  0.00000000000E+00  0.99999998245E-14  0.12500000000E+03  0.12500000000E+03 0.  0.
        -13    1    3    3    0    0  0.50840816473E+02  0.88038864178E+01 -0.11159989091E+02  0.52790657850E+02  0.10566000000E+00 0. -1.
         23    2    1    0    0    0  0.17742309774E+02 -0.97758847351E+01 -0.24668650990E+02  0.93079789785E+02  0.87435390125E+02 0.  0.
         13    1    3    3    0    0 -0.33098506698E+02 -0.18579771153E+02 -0.13508661899E+02  0.40289131935E+02  0.10566000000E+00 0.  1.
         22    1    1    0    0    0 -0.17742309774E+02  0.97758847351E+01  0.24668650990E+02  0.31920210215E+02  0.00000000000E+00 0. -1.
</event>
<event>
 5    1  0.1751020E-003  0.9118800E+02  0.7818608E-02  0.1130116E+00
         25   -1    0    0    0    0  0.00000000000E+00  0.00000000000E+00  0.99999998245E-14  0.12500000000E+03  0.12500000000E+03 0.  0.
        -13    1    3    3    0    0 -0.31854667866E+02 -0.41368668365E+02  0.71447086527E+01  0.52698620598E+02  0.10566000000E+00 0. -1.
         23    2    1    0    0    0  0.73563308714E+01 -0.25226982966E+02  0.13302636864E+02  0.95547047330E+02  0.90894234319E+02 0.  0.
         13    1    3    3    0    0  0.39210998737E+02  0.16141685399E+02  0.61579282114E+01  0.42848426732E+02  0.10566000000E+00 0.  1.
         22    1    1    0    0    0 -0.73563308714E+01  0.25226982966E+02 -0.13302636864E+02  0.29452952670E+02  0.00000000000E+00 0. -1.
</event>
<event>
 5    1  0.1751020E-003  0.9118800E+02  0.7818608E-02  0.1130116E+00
         25   -1    0    0    0    0  0.00000000000E+00  0.00000000000E+00  0.99999998245E-14  0.12500000000E+03  0.12500000000E+03 0.  0.
        -13    1    3    3    0    0 -0.23112751078E+02 -0.23867857688E+02  0.31212136168E+02  0.45585990186E+02  0.10566000000E+00 0.  1.
         23    2    1    0    0    0  0.15947046486E+02  0.99309234309E-01  0.29524402320E+02  0.91443950079E+02  0.85064607915E+02 0.  0.
         13    1    3    3    0    0  0.39059797563E+02  0.23967166923E+02 -0.16877338481E+01  0.45857959893E+02  0.10566000000E+00 0. -1.
         22    1    1    0    0    0 -0.15947046486E+02 -0.99309234309E-01 -0.29524402320E+02  0.33556049921E+02  0.00000000000E+00 0.  1.
</event>
<event>
 5    1  0.1751020E-003  0.9118800E+02  0.7818608E-02  0.1130116E+00
         25   -1    0    0    0    0  0.00000000000E+00  0.00000000000E+00  0.99999998245E-14  0.12500000000E+03  0.12500000000E+03 0.  0.
        -13    1    3    3    0    0 -0.11280473966E+02  0.40830493483E+01  0.43463475320E+02  0.45088859332E+02  0.10566000000E+00 0. -1.
         23    2    1    0    0    0 -0.22937119229E+02  0.25922857919E+01 -0.10011004007E+02  0.99839483603E+02  0.96617135648E+02 0.  0.
         13    1    3    3    0    0 -0.11656645263E+02 -0.14907635564E+01 -0.53474479327E+02  0.54750624272E+02  0.10566000000E+00 0.  1.
         22    1    1    0    0    0  0.22937119229E+02 -0.25922857919E+01  0.10011004007E+02  0.25160516397E+02  0.00000000000E+00 0.  1.
</event>
<event>
 5    1  0.1751020E-003  0.9118800E+02  0.7818608E-02  0.1130116E+00
         25   -1    0    0    0    0  0.00000000000E+00  0.00000000000E+00  0.99999998245E-14  0.12500000000E+03  0.12500000000E+03 0.  0.
        -13    1    3    3    0    0 -0.16773699588E+02 -0.37183162184E+02  0.11397478974E+02  0.42353963674E+02  0.10566000000E+00 0.  1.
         23    2    1    0    0    0  0.13930743393E+02  0.50726792200E+01  0.24643403975E+02  0.96240739832E+02  0.91843262997E+02 0.  0.
         13    1    3    3    0    0  0.30704442981E+02  0.42255841404E+02  0.13245925001E+02  0.53886776158E+02  0.10566000000E+00 0. -1.
         22    1    1    0    0    0 -0.13930743393E+02 -0.50726792200E+01 -0.24643403975E+02  0.28759260168E+02  0.00000000000E+00 0. -1.
</event>
<event>
 5    1  0.1751020E-003  0.9118800E+02  0.7818608E-02  0.1130116E+00
         25   -1    0    0    0    0  0.00000000000E+00  0.00000000000E+00  0.99999998245E-14  0.12500000000E+03  0.12500000000E+03 0.  0.
        -13    1    3    3    0    0 -0.33025014596E+02 -0.28843349681E+02  0.22270438632E+02  0.49178999693E+02  0.10566000000E+00 0.  1.
         23    2    1    0    0    0  0.13243972313E+02 -0.21819383637E+02  0.10227613245E+02  0.97502866011E+02  0.93545264459E+02 0.  0.
         13    1    3    3    0    0  0.46268986909E+02  0.70239660441E+01 -0.12042825387E+02  0.48323866318E+02  0.10566000000E+00 0. -1.
         22    1    1    0    0    0 -0.13243972313E+02  0.21819383637E+02 -0.10227613245E+02  0.27497133989E+02  0.00000000000E+00 0.  1.
</event>
<event>
 5    1  0.1751020E-003  0.9118800E+02  0.7818608E-02  0.1130116E+00
         25   -1    0    0    0    0  0.00000000000E+00  0.00000000000E+00  0.99999998245E-14  0.12500000000E+03  0.12500000000E+03 0.  0.
        -13    1    3    3    0    0 -0.46634411654E+02 -0.23177127928E+01 -0.35050613046E+02  0.58384045611E+02  0.10566000000E+00 0.  1.
         23    2    1    0    0    0 -0.29064586594E+02  0.28516563990E+01 -0.25565055330E+01  0.95684170511E+02  0.91082614301E+02 0.  0.
         13    1    3    3    0    0  0.17569825061E+02  0.51693691918E+01  0.32494107513E+02  0.37300124901E+02  0.10566000000E+00 0. -1.
         22    1    1    0    0    0  0.29064586594E+02 -0.28516563990E+01  0.25565055330E+01  0.29315829489E+02  0.00000000000E+00 0.  1.
</event>
<event>
 5    1  0.1751020E-003  0.9118800E+02  0.7818608E-02  0.1130116E+00
         25   -1    0    0    0    0  0.00000000000E+00  0.00000000000E+00  0.99999998245E-14  0.12500000000E+03  0.12500000000E+03 0.  0.
        -13    1    3    3    0    0  0.12685425017E+02  0.42962197253E+02  0.39479251405E+02  0.59710073322E+02  0.10566000000E+00 0.  1.
         23    2    1    0    0    0  0.45289676820E+01  0.27763388403E+02  0.77555739201E+01  0.95820106054E+02  0.91268978922E+02 0.  0.
         13    1    3    3    0    0 -0.81564573351E+01 -0.15198808850E+02 -0.31723677484E+02  0.36110032732E+02  0.10566000000E+00 0. -1.
         22    1    1    0    0    0 -0.45289676820E+01 -0.27763388403E+02 -0.77555739201E+01  0.29179893946E+02  0.00000000000E+00 0.  1.
</event>
<event>
 5    1  0.1751020E-003  0.9118800E+02  0.7818608E-02  0.1130116E+00
         25   -1    0    0    0    0  0.00000000000E+00  0.00000000000E+00  0.99999998245E-14  0.12500000000E+03  0.12500000000E+03 0.  0.
        -13    1    3    3    0    0 -0.32596744312E+02 -0.18087627709E+02 -0.18793332225E+02  0.41748179793E+02  0.10566000000E+00 0. -1.
         23    2    1    0    0    0  0.15682714430E+02 -0.23488383546E+02  0.57518700077E+01  0.96177513950E+02  0.91757171314E+02 0.  0.
         13    1    3    3    0    0  0.48279458743E+02 -0.54007558370E+01  0.24545202233E+02  0.54429334157E+02  0.10566000000E+00 0.  1.
         22    1    1    0    0    0 -0.15682714430E+02  0.23488383546E+02 -0.57518700077E+01  0.28822486050E+02  0.00000000000E+00 0.  1.
</event>
<event>
 5    1  0.1751020E-003  0.9118800E+02  0.7818608E-02  0.1130116E+00
         25   -1    0    0    0    0  0.00000000000E+00  0.00000000000E+00  0.99999998245E-14  0.12500000000E+03  0.12500000000E+03 0.  0.
        -13    1    3    3    0    0 -0.11094058500E+02  0.14518865432E+02  0.32289178669E+02  0.37100913878E+02  0.10566000000E+00 0. -1.
         23    2    1    0    0    0  0.46907564399E+01 -0.29018392833E+02 -0.31794502135E+01  0.95433478015E+02  0.90737916572E+02 0.  0.
         13    1    3    3    0    0  0.15784814939E+02 -0.43537258265E+02 -0.35468628883E+02  0.58332564137E+02  0.10566000000E+00 0.  1.
         22    1    1    0    0    0 -0.46907564399E+01  0.29018392833E+02  0.31794502135E+01  0.29566521985E+02  0.00000000000E+00 0.  1.
</event>
<event>
 5    1  0.1751020E-003  0.9118800E+02  0.7818608E-02  0.1130116E+00
         25   -1    0    0    0    0  0.00000000000E+00  0.00000000000E+00  0.99999998245E-14  0.12500000000E+03  0.12500000000E+03 0.  0.
        -13    1    3    3    0    0 -0.95165192260E+01 -0.10253875068E+02 -0.37816891712E+02  0.40321638792E+02  0.10566000000E+00 0. -1.
         23    2    1    0    0    0  0.88869641248E+01 -0.21268571010E+02  0.15116199165E+02  0.97434990997E+02  0.93454522358E+02 0.  0.
         13    1    3    3    0    0  0.18403483351E+02 -0.11014695942E+02  0.52933090878E+02  0.57113352204E+02  0.10566000000E+00 0.  1.
         22    1    1    0    0    0 -0.88869641248E+01  0.21268571010E+02 -0.15116199165E+02  0.27565009003E+02  0.00000000000E+00 0.  1.
</event>
<event>
 5    1  0.1751020E-003  0.9118800E+02  0.7818608E-02  0.1130116E+00
         25   -1    0    0    0    0  0.00000000000E+00  0.00000000000E+00  0.99999998245E-14  0.12500000000E+03  0.12500000000E+03 0.  0.
        -13    1    3    3    0    0 -0.16492857687E+02 -0.41499149403E+02 -0.12563749720E+02  0.46390222320E+02  0.10566000000E+00 0.  1.
         23    2    1    0    0    0 -0.26300965504E+02  0.47912367822E+01 -0.16018736006E+02  0.93834367653E+02  0.88507581107E+02 0.  0.
         13    1    3    3    0    0 -0.98081078163E+01  0.46290386185E+02 -0.34549862866E+01  0.47444145333E+02  0.10566000000E+00 0. -1.
         22    1    1    0    0    0  0.26300965504E+02 -0.47912367822E+01  0.16018736006E+02  0.31165632347E+02  0.00000000000E+00 0. -1.
</event>
<event>
 5    1  0.1751020E-003  0.9118800E+02  0.7818608E-02  0.1130116E+00
         25   -1    0    0    0    0  0.00000000000E+00  0.00000000000E+00  0.99999998245E-14  0.12500000000E+03  0.12500000000E+03 0.  0.
        -13    1    3    3    0    0  0.46835377876E+01 -0.13673755828E+02 -0.42814233398E+02  0.45188238184E+02  0.10566000000E+00 0. -1.
         23    2    1    0    0    0  0.17532697834E+02  0.21087831031E+02 -0.70662432351E+01  0.96679973440E+02  0.92439133271E+02 0.  0.
         13    1    3    3    0    0  0.12849160046E+02  0.34761586859E+02  0.35747990163E+02  0.51491735256E+02  0.10566000000E+00 0.  1.
         22    1    1    0    0    0 -0.17532697834E+02 -0.21087831031E+02  0.70662432351E+01  0.28320026560E+02  0.00000000000E+00 0.  1.
</event>
<event>
 5    1  0.1751020E-003  0.9118800E+02  0.7818608E-02  0.1130116E+00
         25   -1    0    0    0    0  0.00000000000E+00  0.00000000000E+00  0.99999998245E-14  0.12500000000E+03  0.12500000000E+03 0.  0.
        -13    1    3    3    0    0  0.43705224540E+02 -0.31361533399E+02  0.19641394143E+02  0.57266813751E+02  0.10566000000E+00 0.  1.
         23    2    1    0    0    0  0.99062733811E+01 -0.27470655499E+02  0.16551619847E+01  0.95750885022E+02  0.91174126019E+02 0.  0.
         13    1    3    3    0    0 -0.33798951159E+02  0.38908779007E+01 -0.17986232158E+02  0.38484071271E+02  0.10566000000E+00 0. -1.
         22    1    1    0    0    0 -0.99062733811E+01  0.27470655499E+02 -0.16551619847E+01  0.29249114978E+02  0.00000000000E+00 0.  1.
</event>
<event>
 5    1  0.1751020E-003  0.9118800E+02  0.7818608E-02  0.1130116E+00
         25   -1    0    0    0    0  0.00000000000E+00  0.00000000000E+00  0.99999998245E-14  0.12500000000E+03  0.12500000000E+03 0.  0.
        -13    1    3    3    0    0  0.21328894536E+02  0.22354288589E+02 -0.24536617073E+02  0.39454945214E+02  0.10566000000E+00 0.  1.
         23    2    1    0    0    0 -0.22208261398E+02 -0.29631047294E+01 -0.27044059054E+02  0.89880660683E+02  0.82735513359E+02 0.  0.
         13    1    3    3    0    0 -0.43537155934E+02 -0.25317393318E+02 -0.25074419814E+01  0.50425715469E+02  0.10566000000E+00 0. -1.
         22    1    1    0    0    0  0.22208261398E+02  0.29631047294E+01  0.27044059054E+02  0.35119339317E+02  0.00000000000E+00 0. -1.
</event>
<event>
 5    1  0.1751020E-003  0.9118800E+02  0.7818608E-02  0.1130116E+00
         25   -1    0    0    0    0  0.00000000000E+00  0.00000000000E+00  0.99999998245E-14  0.12500000000E+03  0.12500000000E+03 0.  0.
        -13    1    3    3    0    0  0.14122466445E+02 -0.28415323869E+02  0.25103432661E+02  0.40460699258E+02  0.10566000000E+00 0. -1.
         23    2    1    0    0    0  0.20283187145E+02  0.21312223805E+02  0.23731892350E+01  0.95483045695E+02  0.90806175031E+02 0.  0.
         13    1    3    3    0    0  0.61607207002E+01  0.49727547674E+02 -0.22730243426E+02  0.55022346437E+02  0.10566000000E+00 0.  1.
         22    1    1    0    0    0 -0.20283187145E+02 -0.21312223805E+02 -0.23731892350E+01  0.29516954305E+02  0.00000000000E+00 0.  1.
</event>
<event>
 5    1  0.1751020E-003  0.9118800E+02  0.7818608E-02  0.1130116E+00
         25   -1    0    0    0    0  0.00000000000E+00  0.00000000000E+00  0.99999998245E-14  0.12500000000E+03  0.12500000000E+03 0.  0.
        -13    1    3    3    0    0  0.34841364664E+02 -0.10454396444E+01  0.78288380302E+01  0.35725558143E+02  0.10566000000E+00 0. -1.
         23    2    1    0    0    0 -0.26268257509E+02 -0.51647796587E+01  0.82865593446E+01  0.96975664731E+02  0.92838118156E+02 0.  0.
         13    1    3    3    0    0 -0.61109622173E+02 -0.41193400143E+01  0.45772131436E+00  0.61250106588E+02  0.10566000000E+00 0.  1.
         22    1    1    0    0    0  0.26268257509E+02  0.51647796587E+01 -0.82865593446E+01  0.28024335269E+02  0.00000000000E+00 0.  1.
</event>
<event>
 5    1  0.1751020E-003  0.9118800E+02  0.7818608E-02  0.1130116E+00
         25   -1    0    0    0    0  0.00000000000E+00  0.00000000000E+00  0.99999998245E-14  0.12500000000E+03  0.12500000000E+03 0.  0.
        -13    1    3    3    0    0  0.37838137080E+01 -0.59543321846E+02  0.10150597117E+02  0.60520824585E+02  0.10566000000E+00 0.  1.
         23    2    1    0    0    0 -0.91603725978E+01 -0.29692396314E+02  0.64159813548E+01  0.93271217455E+02  0.87708633349E+02 0.  0.
         13    1    3    3    0    0 -0.12944186306E+02  0.29850925532E+02 -0.37346157617E+01  0.32750392870E+02  0.10566000000E+00 0. -1.
         22    1    1    0    0    0  0.91603725978E+01  0.29692396314E+02 -0.64159813548E+01  0.31728782545E+02  0.00000000000E+00 0.  1.
</event>
<event>
 5    1  0.1751020E-003  0.9118800E+02  0.7818608E-02  0.1130116E+00
         25   -1    0    0    0    0  0.00000000000E+00  0.00000000000E+00  0.99999998245E-14  0.12500000000E+03  0.12500000000E+03 0.  0.
        -13    1    3    3    0    0  0.22823190234E+01 -0.32360495272E+02 -0.19641595228E+02  0.37923792815E+02  0.10566000000E+00 0. -1.
         23    2    1    0    0    0 -0.15209534264E+02  0.22242221630E+02 -0.10949250574E+02  0.95915082196E+02  0.91398963610E+02 0.  0.
         13    1    3    3    0    0 -0.17491853287E+02  0.54602716901E+02  0.86923446534E+01  0.57991289381E+02  0.10566000000E+00 0.  1.
         22    1    1    0    0    0  0.15209534264E+02 -0.22242221630E+02  0.10949250574E+02  0.29084917804E+02  0.00000000000E+00 0.  1.
</event>
<event>
 5    1  0.1751020E-003  0.9118800E+02  0.7818608E-02  0.1130116E+00
         25   -1    0    0    0    0  0.00000000000E+00  0.00000000000E+00  0.99999998245E-14  0.12500000000E+03  0.12500000000E+03 0.  0.
        -13    1    3    3    0    0  0.30447765994E+02  0.23928696342E+02 -0.12846162820E+02  0.40800539529E+02  0.10566000000E+00 0.  1.
         23    2    1    0    0    0  0.13871476671E+02 -0.15864473576E+02  0.20728327468E+02  0.95440518501E+02  0.90747614984E+02 0.  0.
         13    1    3    3    0    0 -0.16576289324E+02 -0.39793169919E+02  0.33574490288E+02  0.54639978972E+02  0.10566000000E+00 0. -1.
         22    1    1    0    0    0 -0.13871476671E+02  0.15864473576E+02 -0.20728327468E+02  0.29559481499E+02  0.00000000000E+00 0. -1.
</event>
<event>
 5    1  0.1751020E-003  0.9118800E+02  0.7818608E-02  0.1130116E+00
         25   -1    0    0    0    0  0.00000000000E+00  0.00000000000E+00  0.99999998245E-14  0.12500000000E+03  0.12500000000E+03 0.  0.
        -13    1    3    3    0    0  0.49343848743E+02 -0.23657167850E+02 -0.18358610384E+01  0.54752703579E+02  0.10566000000E+00 0. -1.
         23    2    1    0    0    0  0.48074342956E+01 -0.13248583226E+02 -0.16981384910E+02  0.10293183706E+03  0.10053834724E+03 0.  0.
         13    1    3    3    0    0 -0.44536414448E+02  0.10408584624E+02 -0.15145523872E+02  0.48179133482E+02  0.10566000000E+00 0.  1.
         22    1    1    0    0    0 -0.48074342956E+01  0.13248583226E+02  0.16981384910E+02  0.22068162938E+02  0.00000000000E+00 0. -1.
</event>
<event>
 5    1  0.1751020E-003  0.9118800E+02  0.7818608E-02  0.1130116E+00
         25   -1    0    0    0    0  0.00000000000E+00  0.00000000000E+00  0.99999998245E-14  0.12500000000E+03  0.12500000000E+03 0.  0.
        -13    1    3    3    0    0  0.19864214448E+02 -0.32534651772E+02  0.24661378280E+02  0.45401380202E+02  0.10566000000E+00 0. -1.
         23    2    1    0    0    0  0.25689565150E+02  0.13498372174E+02  0.62903387040E+01  0.95306092040E+02  0.90562260406E+02 0.  0.
         13    1    3    3    0    0  0.58253507022E+01  0.46033023946E+02 -0.18371039576E+02  0.49904711837E+02  0.10566000000E+00 0.  1.
         22    1    1    0    0    0 -0.25689565150E+02 -0.13498372174E+02 -0.62903387040E+01  0.29693907960E+02  0.00000000000E+00 0. -1.
</event>
<event>
 5    1  0.1751020E-003  0.9118800E+02  0.7818608E-02  0.1130116E+00
         25   -1    0    0    0    0  0.00000000000E+00  0.00000000000E+00  0.99999998245E-14  0.12500000000E+03  0.12500000000E+03 0.  0.
        -13    1    3    3    0    0 -0.18844599630E+02  0.95406571857E+01  0.29564021256E+02  0.36334358279E+02  0.10566000000E+00 0. -1.
         23    2    1    0    0    0  0.27511584944E+02 -0.12138320752E+02  0.10627406171E+01  0.94910873153E+02  0.90015100334E+02 0.  0.
         13    1    3    3    0    0  0.46356184573E+02 -0.21678977938E+02 -0.28501280639E+02  0.58576514873E+02  0.10566000000E+00 0.  1.
         22    1    1    0    0    0 -0.27511584944E+02  0.12138320752E+02 -0.10627406171E+01  0.30089126847E+02  0.00000000000E+00 0.  1.
</event>
<event>
 5    1  0.1751020E-003  0.9118800E+02  0.7818608E-02  0.1130116E+00
         25   -1    0    0    0    0  0.00000000000E+00  0.00000000000E+00  0.99999998245E-14  0.12500000000E+03  0.12500000000E+03 0.  0.
        -13    1    3    3    0    0 -0.12316264887E+02  0.11216255354E+02  0.37554406936E+02  0.41083322764E+02  0.10566000000E+00 0. -1.
         23    2    1    0    0    0 -0.16162789695E+02  0.21098830742E+02 -0.14853118099E+02  0.94553135684E+02  0.89516947675E+02 0.  0.
         13    1    3    3    0    0 -0.38465248080E+01  0.98825753883E+01 -0.52407525035E+02  0.53469812921E+02  0.10566000000E+00 0.  1.
         22    1    1    0    0    0  0.16162789695E+02 -0.21098830742E+02  0.14853118099E+02  0.30446864316E+02  0.00000000000E+00 0.  1.
</event>
<event>
 5    1  0.1751020E-003  0.9118800E+02  0.7818608E-02  0.1130116E+00
         25   -1    0    0    0    0  0.00000000000E+00  0.00000000000E+00  0.99999998245E-14  0.12500000000E+03  0.12500000000E+03 0.  0.
        -13    1    3    3    0    0  0.37058646127E+02 -0.21261085511E+02  0.10741482725E+02  0.44054144244E+02  0.10566000000E+00 0. -1.
         23    2    1    0    0    0 -0.12287212760E+02 -0.15637164460E+02 -0.15090350268E+02  0.10003572190E+03  0.96870689455E+02 0.  0.
         13    1    3    3    0    0 -0.49345858887E+02  0.56239210516E+01 -0.25831832993E+02  0.55981577658E+02  0.10566000000E+00 0.  1.
         22    1    1    0    0    0  0.12287212760E+02  0.15637164460E+02  0.15090350268E+02  0.24964278098E+02  0.00000000000E+00 0.  1.
</event>
<event>
 5    1  0.1751020E-003  0.9118800E+02  0.7818608E-02  0.1130116E+00
         25   -1    0    0    0    0  0.00000000000E+00  0.00000000000E+00  0.99999998245E-14  0.12500000000E+03  0.12500000000E+03 0.  0.
        -13    1    3    3    0    0  0.64724001444E+01  0.37687155960E+02 -0.28223511511E+02  0.47526744618E+02  0.10566000000E+00 0. -1.
         23    2    1    0    0    0  0.14058385184E+02  0.10298319028E+02 -0.42306512548E+02  0.79244841026E+02  0.64700929332E+02 0.  0.
         13    1    3    3    0    0  0.75859850399E+01 -0.27388836931E+02 -0.14083001037E+02  0.31718096407E+02  0.10566000000E+00 0.  1.
         22    1    1    0    0    0 -0.14058385184E+02 -0.10298319028E+02  0.42306512548E+02  0.45755158974E+02  0.00000000000E+00 0. -1.
</event>
<event>
 5    1  0.1751020E-003  0.9118800E+02  0.7818608E-02  0.1130116E+00
         25   -1    0    0    0    0  0.00000000000E+00  0.00000000000E+00  0.99999998245E-14  0.12500000000E+03  0.12500000000E+03 0.  0.
        -13    1    3    3    0    0  0.20783854615E+02 -0.24871198973E+02 -0.29957937378E+02  0.44136541856E+02  0.10566000000E+00 0. -1.
         23    2    1    0    0    0 -0.41075125978E+01 -0.23996022569E+02  0.15619189672E+02  0.96075272777E+02  0.91617783178E+02 0.  0.
         13    1    3    3    0    0 -0.24891367213E+02  0.87517640429E+00  0.45577127051E+02  0.51938730921E+02  0.10566000000E+00 0.  1.
         22    1    1    0    0    0  0.41075125978E+01  0.23996022569E+02 -0.15619189672E+02  0.28924727223E+02  0.00000000000E+00 0.  1.
</event>
<event>
 5    1  0.1751020E-003  0.9118800E+02  0.7818608E-02  0.1130116E+00
         25   -1    0    0    0    0  0.00000000000E+00  0.00000000000E+00  0.99999998245E-14  0.12500000000E+03  0.12500000000E+03 0.  0.
        -13    1    3    3    0    0  0.43066943817E+00 -0.32377184989E+02 -0.18301545074E+02  0.37194425659E+02  0.10566000000E+00 0.  1.
         23    2    1    0    0    0 -0.78805868022E+01  0.29734469598E+01  0.27840782356E+02  0.95912989199E+02  0.91396101118E+02 0.  0.
         13    1    3    3    0    0 -0.83112562404E+01  0.35350631949E+02  0.46142327430E+02  0.58718563540E+02  0.10566000000E+00 0. -1.
         22    1    1    0    0    0  0.78805868022E+01 -0.29734469598E+01 -0.27840782356E+02  0.29087010801E+02  0.00000000000E+00 0. -1.
</event>
<event>
 5    1  0.1751020E-003  0.9118800E+02  0.7818608E-02  0.1130116E+00
         25   -1    0    0    0    0  0.00000000000E+00  0.00000000000E+00  0.99999998245E-14  0.12500000000E+03  0.12500000000E+03 0.  0.
        -13    1    3    3    0    0  0.76593596348E+01 -0.47946387787E+02 -0.38366055769E+01  0.48705775820E+02  0.10566000000E+00 0.  1.
         23    2    1    0    0    0 -0.10561922687E+02 -0.99647920006E+01 -0.25182034760E+02  0.95931354260E+02  0.91421215071E+02 0.  0.
         13    1    3    3    0    0 -0.18221282321E+02  0.37981595787E+02 -0.21345429184E+02  0.47225578440E+02  0.10566000000E+00 0. -1.
         22    1    1    0    0    0  0.10561922687E+02  0.99647920006E+01  0.25182034760E+02  0.29068645740E+02  0.00000000000E+00 0. -1.
</event>
<event>
 5    1  0.1751020E-003  0.9118800E+02  0.7818608E-02  0.1130116E+00
         25   -1    0    0    0    0  0.00000000000E+00  0.00000000000E+00  0.99999998245E-14  0.12500000000E+03  0.12500000000E+03 0.  0.
        -13    1    3    3    0    0 -0.17237868132E+02 -0.37274716353E+02  0.99981942493E+01  0.42267287933E+02  0.10566000000E+00 0.  1.
         23    2    1    0    0    0 -0.26056647996E+02  0.11232055823E+02 -0.91940971173E+01  0.95173176425E+02  0.90378615315E+02 0.  0.
         13    1    3    3    0    0 -0.88187798644E+01  0.48506772176E+02 -0.19192291367E+02  0.52905888492E+02  0.10566000000E+00 0. -1.
         22    1    1    0    0    0  0.26056647996E+02 -0.11232055823E+02  0.91940971173E+01  0.29826823575E+02  0.00000000000E+00 0. -1.
</event>
<event>
 5    1  0.1751020E-003  0.9118800E+02  0.7818608E-02  0.1130116E+00
         25   -1    0    0    0    0  0.00000000000E+00  0.00000000000E+00  0.99999998245E-14  0.12500000000E+03  0.12500000000E+03 0.  0.
        -13    1    3    3    0    0  0.12463413691E+02 -0.83842478126E+01  0.34449453814E+02  0.37582021291E+02  0.10566000000E+00 0.  1.
         23    2    1    0    0    0 -0.33591672525E+02 -0.21462749398E+01  0.17586949211E+02  0.87022273084E+02  0.78297945510E+02 0.  0.
         13    1    3    3    0    0 -0.46055086215E+02  0.62379728728E+01 -0.16862504603E+02  0.49440251793E+02  0.10566000000E+00 0. -1.
         22    1    1    0    0    0  0.33591672525E+02  0.21462749398E+01 -0.17586949211E+02  0.37977726916E+02  0.00000000000E+00 0. -1.
</event>
<event>
 5    1  0.1751020E-003  0.9118800E+02  0.7818608E-02  0.1130116E+00
         25   -1    0    0    0    0  0.00000000000E+00  0.00000000000E+00  0.99999998245E-14  0.12500000000E+03  0.12500000000E+03 0.  0.
        -13    1    3    3    0    0  0.35203602149E+02 -0.29967403395E+02 -0.22462832686E+02  0.51399697342E+02  0.10566000000E+00 0. -1.
         23    2    1    0    0    0  0.27337805917E+02  0.16333990053E+01  0.84894389649E+01  0.96327814897E+02  0.91961697050E+02 0.  0.
         13    1    3    3    0    0 -0.78657962328E+01  0.31600802400E+02  0.30952271651E+02  0.44928117555E+02  0.10566000000E+00 0.  1.
         22    1    1    0    0    0 -0.27337805917E+02 -0.16333990053E+01 -0.84894389649E+01  0.28672185103E+02  0.00000000000E+00 0.  1.
</event>
<event>
 5    1  0.1751020E-003  0.9118800E+02  0.7818608E-02  0.1130116E+00
         25   -1    0    0    0    0  0.00000000000E+00  0.00000000000E+00  0.99999998245E-14  0.12500000000E+03  0.12500000000E+03 0.  0.
        -13    1    3    3    0    0  0.45380576470E+02 -0.14698326096E+02 -0.36238881196E+02  0.59905802600E+02  0.10566000000E+00 0.  1.
         23    2    1    0    0    0  0.28392973036E+02  0.10938472250E+01 -0.10118254640E+02  0.94838161585E+02  0.89914072293E+02 0.  0.
         13    1    3    3    0    0 -0.16987603434E+02  0.15792173321E+02  0.26120626556E+02  0.34932358986E+02  0.10566000000E+00 0. -1.
         22    1    1    0    0    0 -0.28392973036E+02 -0.10938472250E+01  0.10118254640E+02  0.30161838415E+02  0.00000000000E+00 0.  1.
</event>
<event>
 5    1  0.1751020E-003  0.9118800E+02  0.7818608E-02  0.1130116E+00
         25   -1    0    0    0    0  0.00000000000E+00  0.00000000000E+00  0.99999998245E-14  0.12500000000E+03  0.12500000000E+03 0.  0.
        -13    1    3    3    0    0  0.26552904402E+02  0.48192475112E+02  0.21556285834E+02  0.59095312949E+02  0.10566000000E+00 0.  1.
         23    2    1    0    0    0  0.70442541718E+01  0.33665486527E+02  0.15821879791E+01  0.90569057249E+02  0.83769113116E+02 0.  0.
         13    1    3    3    0    0 -0.19508650230E+02 -0.14526988585E+02 -0.19974097855E+02  0.31473744300E+02  0.10566000000E+00 0. -1.
         22    1    1    0    0    0 -0.70442541718E+01 -0.33665486527E+02 -0.15821879791E+01  0.34430942751E+02  0.00000000000E+00 0.  1.
</event>
<event>
 5    1  0.1751020E-003  0.9118800E+02  0.7818608E-02  0.1130116E+00
         25   -1    0    0    0    0  0.00000000000E+00  0.00000000000E+00  0.99999998245E-14  0.12500000000E+03  0.12500000000E+03 0.  0.
        -13    1    3    3    0    0 -0.39136238406E+02  0.79600779192E+00  0.11270299214E+01  0.39160696437E+02  0.10566000000E+00 0. -1.
         23    2    1    0    0    0  0.11632061924E+02  0.17849728825E+02  0.19835495279E+02  0.95890473094E+02  0.91365301255E+02 0.  0.
         13    1    3    3    0    0  0.50768300330E+02  0.17053721033E+02  0.18708465357E+02  0.56729776657E+02  0.10566000000E+00 0.  1.
         22    1    1    0    0    0 -0.11632061924E+02 -0.17849728825E+02 -0.19835495279E+02  0.29109526906E+02  0.00000000000E+00 0.  1.
</event>
<event>
 5    1  0.1751020E-003  0.9118800E+02  0.7818608E-02  0.1130116E+00
         25   -1    0    0    0    0  0.00000000000E+00  0.00000000000E+00  0.99999998245E-14  0.12500000000E+03  0.12500000000E+03 0.  0.
        -13    1    3    3    0    0 -0.17621743319E+02 -0.57390591527E+02 -0.75008124452E+00  0.60039816950E+02  0.10566000000E+00 0. -1.
         23    2    1    0    0    0 -0.78587433143E+01 -0.24301640237E+02 -0.12603640882E+02  0.96518754799E+02  0.92220869112E+02 0.  0.
         13    1    3    3    0    0  0.97630000044E+01  0.33088951290E+02 -0.11853559637E+02  0.36478937850E+02  0.10566000000E+00 0.  1.
         22    1    1    0    0    0  0.78587433143E+01  0.24301640237E+02  0.12603640882E+02  0.28481245201E+02  0.00000000000E+00 0. -1.
</event>
<event>
 5    1  0.1751020E-003  0.9118800E+02  0.7818608E-02  0.1130116E+00
         25   -1    0    0    0    0  0.00000000000E+00  0.00000000000E+00  0.99999998245E-14  0.12500000000E+03  0.12500000000E+03 0.  0.
        -13    1    3    3    0    0  0.26831139998E+02 -0.10063777369E+02 -0.53210060753E+02  0.60436010936E+02  0.10566000000E+00 0.  1.
         23    2    1    0    0    0  0.23055700104E+01  0.18033938005E+01 -0.25625697505E+02  0.99207670619E+02  0.95796229857E+02 0.  0.
         13    1    3    3    0    0 -0.24525569987E+02  0.11867171170E+02  0.27584363248E+02  0.38771659683E+02  0.10566000000E+00 0. -1.
         22    1    1    0    0    0 -0.23055700104E+01 -0.18033938005E+01  0.25625697505E+02  0.25792329381E+02  0.00000000000E+00 0.  1.
</event>
<event>
 5    1  0.1751020E-003  0.9118800E+02  0.7818608E-02  0.1130116E+00
         25   -1    0    0    0    0  0.00000000000E+00  0.00000000000E+00  0.99999998245E-14  0.12500000000E+03  0.12500000000E+03 0.  0.
        -13    1    3    3    0    0  0.15572395162E+02 -0.10368326042E+02  0.45229770033E+02  0.48946347537E+02  0.10566000000E+00 0.  1.
         23    2    1    0    0    0  0.22724153276E+02 -0.20757807311E+02  0.18012589483E+01  0.94169524164E+02  0.88979666447E+02 0.  0.
         13    1    3    3    0    0  0.71517581142E+01 -0.10389481270E+02 -0.43428511084E+02  0.45223176627E+02  0.10566000000E+00 0. -1.
         22    1    1    0    0    0 -0.22724153276E+02  0.20757807311E+02 -0.18012589483E+01  0.30830475836E+02  0.00000000000E+00 0.  1.
</event>
<event>
 5    1  0.1751020E-003  0.9118800E+02  0.7818608E-02  0.1130116E+00
         25   -1    0    0    0    0  0.00000000000E+00  0.00000000000E+00  0.99999998245E-14  0.12500000000E+03  0.12500000000E+03 0.  0.
        -13    1    3    3    0    0 -0.35220690754E+02  0.15726348605E+02 -0.22144250673E+02  0.44476893996E+02  0.10566000000E+00 0. -1.
         23    2    1    0    0    0  0.23702434506E+01  0.26915423449E+02  0.11000166137E+02  0.95827037715E+02  0.91278471880E+02 0.  0.
         13    1    3    3    0    0  0.37590934204E+02  0.11189074844E+02  0.33144416810E+02  0.51350143719E+02  0.10566000000E+00 0.  1.
         22    1    1    0    0    0 -0.23702434506E+01 -0.26915423449E+02 -0.11000166137E+02  0.29172962285E+02  0.00000000000E+00 0. -1.
</event>
<event>
 5    1  0.1751020E-003  0.9118800E+02  0.7818608E-02  0.1130116E+00
         25   -1    0    0    0    0  0.00000000000E+00  0.00000000000E+00  0.99999998245E-14  0.12500000000E+03  0.12500000000E+03 0.  0.
        -13    1    3    3    0    0  0.32034432367E+02  0.19576328079E+02  0.42789130762E+02  0.56924145611E+02  0.10566000000E+00 0.  1.
         23    2    1    0    0    0  0.52040082915E+01  0.25015669844E+02  0.19732010362E+02  0.92716603757E+02  0.86914618674E+02 0.  0.
         13    1    3    3    0    0 -0.26830424076E+02  0.54393417651E+01 -0.23057120400E+02  0.35792458146E+02  0.10566000000E+00 0. -1.
         22    1    1    0    0    0 -0.52040082915E+01 -0.25015669844E+02 -0.19732010362E+02  0.32283396243E+02  0.00000000000E+00 0.  1.
</event>
<event>
 5    1  0.1751020E-003  0.9118800E+02  0.7818608E-02  0.1130116E+00
         25   -1    0    0    0    0  0.00000000000E+00  0.00000000000E+00  0.99999998245E-14  0.12500000000E+03  0.12500000000E+03 0.  0.
        -13    1    3    3    0    0  0.77579788133E+01 -0.87251019588E+01 -0.37070588658E+02  0.38865837788E+02  0.10566000000E+00 0.  1.
         23    2    1    0    0    0  0.20499814277E+02  0.10515003053E+02  0.16143165068E+02  0.96867999484E+02  0.92693041115E+02 0.  0.
         13    1    3    3    0    0  0.12741835464E+02  0.19240105011E+02  0.53213753726E+02  0.58002161697E+02  0.10566000000E+00 0. -1.
         22    1    1    0    0    0 -0.20499814277E+02 -0.10515003053E+02 -0.16143165068E+02  0.28132000516E+02  0.00000000000E+00 0. -1.
</event>
<event>
 5    1  0.1751020E-003  0.9118800E+02  0.7818608E-02  0.1130116E+00
         25   -1    0    0    0    0  0.00000000000E+00  0.00000000000E+00  0.99999998245E-14  0.12500000000E+03  0.12500000000E+03 0.  0.
        -13    1    3    3    0    0 -0.54460317156E+02  0.18395081316E+02  0.11331771427E+02  0.58589464660E+02  0.10566000000E+00 0.  1.
         23    2    1    0    0    0 -0.20070503087E+02  0.21643639169E+02  0.11994106100E+02  0.93138882760E+02  0.87519830267E+02 0.  0.
         13    1    3    3    0    0  0.34389814069E+02  0.32485578528E+01  0.66233467306E+00  0.34549418100E+02  0.10566000000E+00 0. -1.
         22    1    1    0    0    0  0.20070503087E+02 -0.21643639169E+02 -0.11994106100E+02  0.31861117240E+02  0.00000000000E+00 0.  1.
</event>
<event>
 5    1  0.1751020E-003  0.9118800E+02  0.7818608E-02  0.1130116E+00
         25   -1    0    0    0    0  0.00000000000E+00  0.00000000000E+00  0.99999998245E-14  0.12500000000E+03  0.12500000000E+03 0.  0.
        -13    1    3    3    0    0  0.28492501406E+02  0.10990472850E+02  0.33209071812E+02  0.45116147270E+02  0.10566000000E+00 0. -1.
         23    2    1    0    0    0 -0.13129891039E+02  0.25247227488E+02  0.10168850795E+02  0.94780435791E+02  0.89833785112E+02 0.  0.
         13    1    3    3    0    0 -0.41622392445E+02  0.14256754638E+02 -0.23040221017E+02  0.49664288520E+02  0.10566000000E+00 0.  1.
         22    1    1    0    0    0  0.13129891039E+02 -0.25247227488E+02 -0.10168850795E+02  0.30219564209E+02  0.00000000000E+00 0.  1.
</event>
<event>
 5    1  0.1751020E-003  0.9118800E+02  0.7818608E-02  0.1130116E+00
         25   -1    0    0    0    0  0.00000000000E+00  0.00000000000E+00  0.99999998245E-14  0.12500000000E+03  0.12500000000E+03 0.  0.
        -13    1    3    3    0    0 -0.36018885843E+02  0.32724936188E+01 -0.42162797464E+02  0.55549815534E+02  0.10566000000E+00 0.  1.
         23    2    1    0    0    0 -0.21868020027E+02  0.18076383740E+02 -0.77614670411E+01  0.95585610330E+02  0.90947251649E+02 0.  0.
         13    1    3    3    0    0  0.14150865816E+02  0.14803890122E+02  0.34401330423E+02  0.40035794796E+02  0.10566000000E+00 0. -1.
         22    1    1    0    0    0  0.21868020027E+02 -0.18076383740E+02  0.77614670411E+01  0.29414389670E+02  0.00000000000E+00 0.  1.
</event>
<event>
 5    1  0.1751020E-003  0.9118800E+02  0.7818608E-02  0.1130116E+00
         25   -1    0    0    0    0  0.00000000000E+00  0.00000000000E+00  0.99999998245E-14  0.12500000000E+03  0.12500000000E+03 0.  0.
        -13    1    3    3    0    0  0.27343174232E+02  0.18693356556E+02 -0.18175049565E+02  0.37781402133E+02  0.10566000000E+00 0.  1.
         23    2    1    0    0    0 -0.27645467251E+02  0.15433482197E+01 -0.66487167058E+01  0.96524410154E+02  0.92228534296E+02 0.  0.
         13    1    3    3    0    0 -0.54988641483E+02 -0.17150008336E+02  0.11526332859E+02  0.58743008021E+02  0.10566000000E+00 0. -1.
         22    1    1    0    0    0  0.27645467251E+02 -0.15433482197E+01  0.66487167058E+01  0.28475589846E+02  0.00000000000E+00 0. -1.
</event>
<event>
 5    1  0.1751020E-003  0.9118800E+02  0.7818608E-02  0.1130116E+00
         25   -1    0    0    0    0  0.00000000000E+00  0.00000000000E+00  0.99999998245E-14  0.12500000000E+03  0.12500000000E+03 0.  0.
        -13    1    3    3    0    0  0.11824710972E+02  0.19301969888E+02  0.36529063896E+02  0.42974102716E+02  0.10566000000E+00 0. -1.
         23    2    1    0    0    0  0.25640849770E+02 -0.92794799232E+01 -0.69979792513E+01  0.96848026035E+02  0.92666102263E+02 0.  0.
         13    1    3    3    0    0  0.13816138798E+02 -0.28581449811E+02 -0.43527043147E+02  0.53873923319E+02  0.10566000000E+00 0.  1.
         22    1    1    0    0    0 -0.25640849770E+02  0.92794799232E+01  0.69979792513E+01  0.28151973965E+02  0.00000000000E+00 0.  1.
</event>
<event>
 5    1  0.1751020E-003  0.9118800E+02  0.7818608E-02  0.1130116E+00
         25   -1    0    0    0    0  0.00000000000E+00  0.00000000000E+00  0.99999998245E-14  0.12500000000E+03  0.12500000000E+03 0.  0.
        -13    1    3    3    0    0 -0.18764310895E+02 -0.21487326577E+02  0.95787870821E+01  0.30092671746E+02  0.10566000000E+00 0.  1.
         23    2    1    0    0    0  0.19668064885E+02  0.26288739952E+02 -0.10281079574E+00  0.92167985218E+02  0.86121985024E+02 0.  0.
         13    1    3    3    0    0  0.38432375780E+02  0.47776066529E+02 -0.96815978778E+01  0.62075313472E+02  0.10566000000E+00 0. -1.
         22    1    1    0    0    0 -0.19668064885E+02 -0.26288739952E+02  0.10281079574E+00  0.32832014782E+02  0.00000000000E+00 0. -1.
</event>
<event>
 5    1  0.1751020E-003  0.9118800E+02  0.7818608E-02  0.1130116E+00
         25   -1    0    0    0    0  0.00000000000E+00  0.00000000000E+00  0.99999998245E-14  0.12500000000E+03  0.12500000000E+03 0.  0.
        -13    1    3    3    0    0  0.28938269397E+02  0.68102778289E+01 -0.32050933040E+02  0.43715864312E+02  0.10566000000E+00 0. -1.
         23    2    1    0    0    0 -0.19530334404E+02 -0.88647390295E+01 -0.19108146518E+02  0.96274770265E+02  0.91889567233E+02 0.  0.
         13    1    3    3    0    0 -0.48468603801E+02 -0.15675016858E+02  0.12942786522E+02  0.52558905952E+02  0.10566000000E+00 0.  1.
         22    1    1    0    0    0  0.19530334404E+02  0.88647390295E+01  0.19108146518E+02  0.28725229735E+02  0.00000000000E+00 0.  1.
</event>
<event>
 5    1  0.1751020E-003  0.9118800E+02  0.7818608E-02  0.1130116E+00
         25   -1    0    0    0    0  0.00000000000E+00  0.00000000000E+00  0.99999998245E-14  0.12500000000E+03  0.12500000000E+03 0.  0.
        -13    1    3    3    0    0 -0.54860892445E+02 -0.15353563915E+02 -0.11469484277E+02  0.58112044176E+02  0.10566000000E+00 0.  1.
         23    2    1    0    0    0 -0.24342512568E+02 -0.12098399591E+02  0.10503090422E+02  0.95858207001E+02  0.91321146238E+02 0.  0.
         13    1    3    3    0    0  0.30518379877E+02  0.32551643238E+01  0.21972574698E+02  0.37746162825E+02  0.10566000000E+00 0. -1.
         22    1    1    0    0    0  0.24342512568E+02  0.12098399591E+02 -0.10503090422E+02  0.29141792999E+02  0.00000000000E+00 0.  1.
</event>
<event>
 5    1  0.1751020E-003  0.9118800E+02  0.7818608E-02  0.1130116E+00
         25   -1    0    0    0    0  0.00000000000E+00  0.00000000000E+00  0.99999998245E-14  0.12500000000E+03  0.12500000000E+03 0.  0.
        -13    1    3    3    0    0 -0.40387841367E+02  0.18680231892E+02  0.29317675002E+02  0.53288516824E+02  0.10566000000E+00 0.  1.
         23    2    1    0    0    0 -0.26200901877E+02  0.88122354589E+01 -0.94924639660E+01  0.95772450922E+02  0.91203688141E+02 0.  0.
         13    1    3    3    0    0  0.14186939490E+02 -0.98679964327E+01 -0.38810138968E+02  0.42483934098E+02  0.10566000000E+00 0. -1.
         22    1    1    0    0    0  0.26200901877E+02 -0.88122354589E+01  0.94924639660E+01  0.29227549078E+02  0.00000000000E+00 0.  1.
</event>
<event>
 5    1  0.1751020E-003  0.9118800E+02  0.7818608E-02  0.1130116E+00
         25   -1    0    0    0    0  0.00000000000E+00  0.00000000000E+00  0.99999998245E-14  0.12500000000E+03  0.12500000000E+03 0.  0.
        -13    1    3    3    0    0  0.32218807881E+02  0.41764752158E+01 -0.28313102704E+02  0.43094517926E+02  0.10566000000E+00 0.  1.
         23    2    1    0    0    0  0.23244222170E+02 -0.64397601497E+01  0.20186710756E+02  0.93547374255E+02  0.88101325551E+02 0.  0.
         13    1    3    3    0    0 -0.89745857110E+01 -0.10616235365E+02  0.48499813460E+02  0.50452856329E+02  0.10566000000E+00 0. -1.
         22    1    1    0    0    0 -0.23244222170E+02  0.64397601497E+01 -0.20186710756E+02  0.31452625745E+02  0.00000000000E+00 0. -1.
</event>
<event>
 5    1  0.1751020E-003  0.9118800E+02  0.7818608E-02  0.1130116E+00
         25   -1    0    0    0    0  0.00000000000E+00  0.00000000000E+00  0.99999998245E-14  0.12500000000E+03  0.12500000000E+03 0.  0.
        -13    1    3    3    0    0  0.20660735254E+02 -0.30720002391E+02  0.31861330847E+02  0.48844038485E+02  0.10566000000E+00 0. -1.
         23    2    1    0    0    0  0.26929813445E+02  0.64763778908E+01  0.15074823064E+01  0.97261383855E+02  0.93222025099E+02 0.  0.
         13    1    3    3    0    0  0.62690781904E+01  0.37196380281E+02 -0.30353848540E+02  0.48417345370E+02  0.10566000000E+00 0.  1.
         22    1    1    0    0    0 -0.26929813445E+02 -0.64763778908E+01 -0.15074823064E+01  0.27738616145E+02  0.00000000000E+00 0.  1.
</event>
<event>
 5    1  0.1751020E-003  0.9118800E+02  0.7818608E-02  0.1130116E+00
         25   -1    0    0    0    0  0.00000000000E+00  0.00000000000E+00  0.99999998245E-14  0.12500000000E+03  0.12500000000E+03 0.  0.
        -13    1    3    3    0    0 -0.16231126196E+02  0.34533879456E+02 -0.40863912425E+02  0.55909827317E+02  0.10566000000E+00 0. -1.
         23    2    1    0    0    0  0.78645503901E+01  0.66848276713E+01 -0.28390695692E+02  0.94791231808E+02  0.89848806068E+02 0.  0.
         13    1    3    3    0    0  0.24095676586E+02 -0.27849051785E+02  0.12473216733E+02  0.38881404491E+02  0.10566000000E+00 0.  1.
         22    1    1    0    0    0 -0.78645503901E+01 -0.66848276713E+01  0.28390695692E+02  0.30208768192E+02  0.00000000000E+00 0. -1.
</event>
<event>
 5    1  0.1751020E-003  0.9118800E+02  0.7818608E-02  0.1130116E+00
         25   -1    0    0    0    0  0.00000000000E+00  0.00000000000E+00  0.99999998245E-14  0.12500000000E+03  0.12500000000E+03 0.  0.
        -13    1    3    3    0    0 -0.24191517955E+02  0.42399112257E+02 -0.11392972471E+00  0.48815350098E+02  0.10566000000E+00 0.  1.
         23    2    1    0    0    0 -0.22899549397E+02 -0.12028749833E+01  0.17799396460E+02  0.95971483242E+02  0.91476066873E+02 0.  0.
         13    1    3    3    0    0  0.12919685579E+01 -0.43601987241E+02  0.17913326185E+02  0.47156133144E+02  0.10566000000E+00 0. -1.
         22    1    1    0    0    0  0.22899549397E+02  0.12028749833E+01 -0.17799396460E+02  0.29028516758E+02  0.00000000000E+00 0. -1.
</event>
<event>
 5    1  0.1751020E-003  0.9118800E+02  0.7818608E-02  0.1130116E+00
         25   -1    0    0    0    0  0.00000000000E+00  0.00000000000E+00  0.99999998245E-14  0.12500000000E+03  0.12500000000E+03 0.  0.
        -13    1    3    3    0    0 -0.76528556104E+01  0.26465052126E+02 -0.29646946571E+02  0.40471197018E+02  0.10566000000E+00 0.  1.
         23    2    1    0    0    0 -0.47444390448E+01  0.12163355028E+02  0.24871826500E+02  0.96909705220E+02  0.92749265792E+02 0.  0.
         13    1    3    3    0    0  0.29084165656E+01 -0.14301697098E+02  0.54518773071E+02  0.56438508202E+02  0.10566000000E+00 0. -1.
         22    1    1    0    0    0  0.47444390448E+01 -0.12163355028E+02 -0.24871826500E+02  0.28090294780E+02  0.00000000000E+00 0. -1.
</event>
<event>
 5    1  0.1751020E-003  0.9118800E+02  0.7818608E-02  0.1130116E+00
         25   -1    0    0    0    0  0.00000000000E+00  0.00000000000E+00  0.99999998245E-14  0.12500000000E+03  0.12500000000E+03 0.  0.
        -13    1    3    3    0    0  0.11437246974E+01  0.36522011189E+02  0.14610098936E+02  0.39352656358E+02  0.10566000000E+00 0.  1.
         23    2    1    0    0    0 -0.15302284190E+02  0.21465059352E+01 -0.25818917669E+02  0.94910402150E+02  0.90014446271E+02 0.  0.
         13    1    3    3    0    0 -0.16446008888E+02 -0.34375505253E+02 -0.40429016606E+02  0.55557745792E+02  0.10566000000E+00 0. -1.
         22    1    1    0    0    0  0.15302284190E+02 -0.21465059352E+01  0.25818917669E+02  0.30089597850E+02  0.00000000000E+00 0. -1.
</event>
<event>
 5    1  0.1751020E-003  0.9118800E+02  0.7818608E-02  0.1130116E+00
         25   -1    0    0    0    0  0.00000000000E+00  0.00000000000E+00  0.99999998245E-14  0.12500000000E+03  0.12500000000E+03 0.  0.
        -13    1    3    3    0    0  0.12494188428E+02  0.48852405555E+02  0.14135359738E+02  0.52368710428E+02  0.10566000000E+00 0.  1.
         23    2    1    0    0    0 -0.19605491285E+02  0.16484115676E+02  0.62812283990E+01  0.98626619702E+02  0.95035019470E+02 0.  0.
         13    1    3    3    0    0 -0.32099679712E+02 -0.32368289879E+02 -0.78541313386E+01  0.46257909274E+02  0.10566000000E+00 0. -1.
         22    1    1    0    0    0  0.19605491285E+02 -0.16484115676E+02 -0.62812283990E+01  0.26373380298E+02  0.00000000000E+00 0.  1.
</event>
<event>
 5    1  0.1751020E-003  0.9118800E+02  0.7818608E-02  0.1130116E+00
         25   -1    0    0    0    0  0.00000000000E+00  0.00000000000E+00  0.99999998245E-14  0.12500000000E+03  0.12500000000E+03 0.  0.
        -13    1    3    3    0    0  0.26612156565E+02  0.53859886184E+02  0.10579184087E+02  0.61000200956E+02  0.10566000000E+00 0.  1.
         23    2    1    0    0    0  0.20465743161E+02  0.21034049512E+02  0.14748542383E+01  0.95615427908E+02  0.90988224387E+02 0.  0.
         13    1    3    3    0    0 -0.61464134040E+01 -0.32825836671E+02 -0.91043298482E+01  0.34615226952E+02  0.10566000000E+00 0. -1.
         22    1    1    0    0    0 -0.20465743161E+02 -0.21034049512E+02 -0.14748542383E+01  0.29384572092E+02  0.00000000000E+00 0.  1.
</event>
<event>
 5    1  0.1751020E-003  0.9118800E+02  0.7818608E-02  0.1130116E+00
         25   -1    0    0    0    0  0.00000000000E+00  0.00000000000E+00  0.99999998245E-14  0.12500000000E+03  0.12500000000E+03 0.  0.
        -13    1    3    3    0    0  0.30483697775E+00 -0.46128890568E+02  0.19866466939E+02  0.50226040490E+02  0.10566000000E+00 0. -1.
         23    2    1    0    0    0  0.25786573349E+02 -0.10769796461E+02  0.32668499282E+01  0.96864467495E+02  0.92688277973E+02 0.  0.
         13    1    3    3    0    0  0.25481736372E+02  0.35359094107E+02 -0.16599617011E+02  0.46638427005E+02  0.10566000000E+00 0.  1.
         22    1    1    0    0    0 -0.25786573349E+02  0.10769796461E+02 -0.32668499282E+01  0.28135532505E+02  0.00000000000E+00 0.  1.
</event>
<event>
 5    1  0.1751020E-003  0.9118800E+02  0.7818608E-02  0.1130116E+00
         25   -1    0    0    0    0  0.00000000000E+00  0.00000000000E+00  0.99999998245E-14  0.12500000000E+03  0.12500000000E+03 0.  0.
        -13    1    3    3    0    0 -0.12067974179E+02 -0.18532998931E+02  0.37870026299E+02  0.43854966721E+02  0.10566000000E+00 0.  1.
         23    2    1    0    0    0 -0.21711910497E+02  0.19349977721E+02  0.38759636375E+01  0.95659724109E+02  0.91049058355E+02 0.  0.
         13    1    3    3    0    0 -0.96439363171E+01  0.37882976652E+02 -0.33994062662E+02  0.51804757388E+02  0.10566000000E+00 0. -1.
         22    1    1    0    0    0  0.21711910497E+02 -0.19349977721E+02 -0.38759636375E+01  0.29340275891E+02  0.00000000000E+00 0. -1.
</event>
<event>
 5    1  0.1751020E-003  0.9118800E+02  0.7818608E-02  0.1130116E+00
         25   -1    0    0    0    0  0.00000000000E+00  0.00000000000E+00  0.99999998245E-14  0.12500000000E+03  0.12500000000E+03 0.  0.
        -13    1    3    3    0    0 -0.48132359092E+02  0.32388927563E+01  0.32387019009E+01  0.48349920084E+02  0.10566000000E+00 0.  1.
         23    2    1    0    0    0 -0.15330608580E+02 -0.83078677304E+01 -0.25939554702E+02  0.93744460910E+02  0.88380513845E+02 0.  0.
         13    1    3    3    0    0  0.32801750512E+02 -0.11546760487E+02 -0.29178256603E+02  0.45394540826E+02  0.10566000000E+00 0. -1.
         22    1    1    0    0    0  0.15330608580E+02  0.83078677304E+01  0.25939554702E+02  0.31255539090E+02  0.00000000000E+00 0. -1.
</event>
<event>
 5    1  0.1751020E-003  0.9118800E+02  0.7818608E-02  0.1130116E+00
         25   -1    0    0    0    0  0.00000000000E+00  0.00000000000E+00  0.99999998245E-14  0.12500000000E+03  0.12500000000E+03 0.  0.
        -13    1    3    3    0    0  0.23938803528E+02  0.31422886826E+02 -0.29862028516E+02  0.49519855027E+02  0.10566000000E+00 0. -1.
         23    2    1    0    0    0  0.26450768068E+02  0.10507535970E+02  0.10186254501E+02  0.94770689318E+02  0.89820222274E+02 0.  0.
         13    1    3    3    0    0  0.25119645404E+01 -0.20915350856E+02  0.40048283017E+02  0.45250834290E+02  0.10566000000E+00 0.  1.
         22    1    1    0    0    0 -0.26450768068E+02 -0.10507535970E+02 -0.10186254501E+02  0.30229310682E+02  0.00000000000E+00 0. -1.
</event>
<event>
 5    1  0.1751020E-003  0.9118800E+02  0.7818608E-02  0.1130116E+00
         25   -1    0    0    0    0  0.00000000000E+00  0.00000000000E+00  0.99999998245E-14  0.12500000000E+03  0.12500000000E+03 0.  0.
        -13    1    3    3    0    0  0.36092037100E+02 -0.48131337381E+02 -0.76704195078E+01  0.60647401260E+02  0.10566000000E+00 0.  1.
         23    2    1    0    0    0  0.24098863183E+02 -0.14931580830E+02 -0.62143688547E+01  0.95977152223E+02  0.91483813081E+02 0.  0.
         13    1    3    3    0    0 -0.11993173917E+02  0.33199756550E+02  0.14560506531E+01  0.35329750964E+02  0.10566000000E+00 0. -1.
         22    1    1    0    0    0 -0.24098863183E+02  0.14931580830E+02  0.62143688547E+01  0.29022847777E+02  0.00000000000E+00 0.  1.
</event>
<event>
 5    1  0.1751020E-003  0.9118800E+02  0.7818608E-02  0.1130116E+00
         25   -1    0    0    0    0  0.00000000000E+00  0.00000000000E+00  0.99999998245E-14  0.12500000000E+03  0.12500000000E+03 0.  0.
        -13    1    3    3    0    0  0.32741361739E+02 -0.52033346136E+02  0.77241495672E+01  0.61960790256E+02  0.10566000000E+00 0.  1.
         23    2    1    0    0    0  0.10762996179E+02 -0.26794493476E+02  0.62226732243E+01  0.95461742952E+02  0.90776845826E+02 0.  0.
         13    1    3    3    0    0 -0.21978365560E+02  0.25238852660E+02 -0.15014763430E+01  0.33500952696E+02  0.10566000000E+00 0. -1.
         22    1    1    0    0    0 -0.10762996179E+02  0.26794493476E+02 -0.62226732243E+01  0.29538257048E+02  0.00000000000E+00 0.  1.
</event>
<event>
 5    1  0.1751020E-003  0.9118800E+02  0.7818608E-02  0.1130116E+00
         25   -1    0    0    0    0  0.00000000000E+00  0.00000000000E+00  0.99999998245E-14  0.12500000000E+03  0.12500000000E+03 0.  0.
        -13    1    3    3    0    0  0.58111566586E+02 -0.19638389735E+01 -0.67006300567E+01  0.58529654379E+02  0.10566000000E+00 0. -1.
         23    2    1    0    0    0  0.27122431779E+02  0.75418732943E+01  0.10165280119E+02  0.95069429035E+02  0.90235011269E+02 0.  0.
         13    1    3    3    0    0 -0.30989134806E+02  0.95057122678E+01  0.16865910175E+02  0.36539774655E+02  0.10566000000E+00 0.  1.
         22    1    1    0    0    0 -0.27122431779E+02 -0.75418732943E+01 -0.10165280119E+02  0.29930570965E+02  0.00000000000E+00 0. -1.
</event>
<event>
 5    1  0.1751020E-003  0.9118800E+02  0.7818608E-02  0.1130116E+00
         25   -1    0    0    0    0  0.00000000000E+00  0.00000000000E+00  0.99999998245E-14  0.12500000000E+03  0.12500000000E+03 0.  0.
        -13    1    3    3    0    0  0.40857769692E+02  0.30710211099E+02  0.28994960306E+02  0.58763877486E+02  0.10566000000E+00 0.  1.
         23    2    1    0    0    0  0.16430293738E+02  0.15995061233E+01  0.22146404610E+02  0.97377976010E+02  0.93378230882E+02 0.  0.
         13    1    3    3    0    0 -0.24427475954E+02 -0.29110704976E+02 -0.68485556965E+01  0.38614098524E+02  0.10566000000E+00 0. -1.
         22    1    1    0    0    0 -0.16430293738E+02 -0.15995061233E+01 -0.22146404610E+02  0.27622023990E+02  0.00000000000E+00 0.  1.
</event>
<event>
 5    1  0.1751020E-003  0.9118800E+02  0.7818608E-02  0.1130116E+00
         25   -1    0    0    0    0  0.00000000000E+00  0.00000000000E+00  0.99999998245E-14  0.12500000000E+03  0.12500000000E+03 0.  0.
        -13    1    3    3    0    0  0.35652050635E+02  0.17761007102E+02  0.94383207055E+00  0.39842490770E+02  0.10566000000E+00 0. -1.
         23    2    1    0    0    0  0.20989151853E+01 -0.24901046473E+02  0.14928517857E+02  0.95891097482E+02  0.91366155498E+02 0.  0.
         13    1    3    3    0    0 -0.33553135450E+02 -0.42662053575E+02  0.13984685787E+02  0.56048606712E+02  0.10566000000E+00 0.  1.
         22    1    1    0    0    0 -0.20989151853E+01  0.24901046473E+02 -0.14928517857E+02  0.29108902518E+02  0.00000000000E+00 0.  1.
</event>
<event>
 5    1  0.1751020E-003  0.9118800E+02  0.7818608E-02  0.1130116E+00
         25   -1    0    0    0    0  0.00000000000E+00  0.00000000000E+00  0.99999998245E-14  0.12500000000E+03  0.12500000000E+03 0.  0.
        -13    1    3    3    0    0 -0.23594842604E+02  0.11922765545E+02 -0.28570063750E+02  0.38924653402E+02  0.10566000000E+00 0. -1.
         23    2    1    0    0    0  0.21376124102E+02 -0.17329561963E+02 -0.10786479139E+02  0.95443265883E+02  0.90751399277E+02 0.  0.
         13    1    3    3    0    0  0.44970966706E+02 -0.29252327508E+02  0.17783584611E+02  0.56518612481E+02  0.10566000000E+00 0.  1.
         22    1    1    0    0    0 -0.21376124102E+02  0.17329561963E+02  0.10786479139E+02  0.29556734117E+02  0.00000000000E+00 0.  1.
</event>
<event>
 5    1  0.1751020E-003  0.9118800E+02  0.7818608E-02  0.1130116E+00
         25   -1    0    0    0    0  0.00000000000E+00  0.00000000000E+00  0.99999998245E-14  0.12500000000E+03  0.12500000000E+03 0.  0.
        -13    1    3    3    0    0  0.19972156510E+02 -0.28139157668E+02  0.40657406788E+02  0.53326683009E+02  0.10566000000E+00 0. -1.
         23    2    1    0    0    0  0.80915440637E+01  0.92980783262E+01  0.27692178741E+02  0.94688548215E+02  0.89705836231E+02 0.  0.
         13    1    3    3    0    0 -0.11880612447E+02  0.37437235994E+02 -0.12965228048E+02  0.41361865207E+02  0.10566000000E+00 0.  1.
         22    1    1    0    0    0 -0.80915440637E+01 -0.92980783262E+01 -0.27692178741E+02  0.30311451785E+02  0.00000000000E+00 0. -1.
</event>
<event>
 5    1  0.1751020E-003  0.9118800E+02  0.7818608E-02  0.1130116E+00
         25   -1    0    0    0    0  0.00000000000E+00  0.00000000000E+00  0.99999998245E-14  0.12500000000E+03  0.12500000000E+03 0.  0.
        -13    1    3    3    0    0  0.42203862461E+02 -0.36796283500E+00  0.16418870183E+02  0.45286773625E+02  0.10566000000E+00 0. -1.
         23    2    1    0    0    0 -0.32136433830E+01 -0.25770908397E+01  0.31529089400E+02  0.93202950147E+02  0.87611286583E+02 0.  0.
         13    1    3    3    0    0 -0.45417505844E+02 -0.22091280047E+01  0.15110219217E+02  0.47916176521E+02  0.10566000000E+00 0.  1.
         22    1    1    0    0    0  0.32136433830E+01  0.25770908397E+01 -0.31529089400E+02  0.31797049853E+02  0.00000000000E+00 0.  1.
</event>
<event>
 5    1  0.1751020E-003  0.9118800E+02  0.7818608E-02  0.1130116E+00
         25   -1    0    0    0    0  0.00000000000E+00  0.00000000000E+00  0.99999998245E-14  0.12500000000E+03  0.12500000000E+03 0.  0.
        -13    1    3    3    0    0 -0.25161481671E+02 -0.13114512007E+02  0.24518424907E+02  0.37500065453E+02  0.10566000000E+00 0. -1.
         23    2    1    0    0    0 -0.13652121802E+02  0.19277764656E+02 -0.20209698766E+02  0.93912308480E+02  0.88617589225E+02 0.  0.
         13    1    3    3    0    0  0.11509359869E+02  0.32392276662E+02 -0.44728123673E+02  0.56412243027E+02  0.10566000000E+00 0.  1.
         22    1    1    0    0    0  0.13652121802E+02 -0.19277764656E+02  0.20209698766E+02  0.31087691520E+02  0.00000000000E+00 0.  1.
</event>
<event>
 5    1  0.1751020E-003  0.9118800E+02  0.7818608E-02  0.1130116E+00
         25   -1    0    0    0    0  0.00000000000E+00  0.00000000000E+00  0.99999998245E-14  0.12500000000E+03  0.12500000000E+03 0.  0.
        -13    1    3    3    0    0  0.92736973827E+01  0.24686263301E+02  0.18945450093E+02  0.32470822321E+02  0.10566000000E+00 0.  1.
         23    2    1    0    0    0 -0.18759593413E+02 -0.17912312116E+02 -0.16213438899E+02  0.94411621957E+02  0.89319121633E+02 0.  0.
         13    1    3    3    0    0 -0.28033290795E+02 -0.42598575417E+02 -0.35158888992E+02  0.61940799636E+02  0.10566000000E+00 0. -1.
         22    1    1    0    0    0  0.18759593413E+02  0.17912312116E+02  0.16213438899E+02  0.30588378043E+02  0.00000000000E+00 0. -1.
</event>
<event>
 5    1  0.1751020E-003  0.9118800E+02  0.7818608E-02  0.1130116E+00
         25   -1    0    0    0    0  0.00000000000E+00  0.00000000000E+00  0.99999998245E-14  0.12500000000E+03  0.12500000000E+03 0.  0.
        -13    1    3    3    0    0 -0.26624051315E+02  0.12401855388E+02 -0.27829812636E+02  0.40461781484E+02  0.10566000000E+00 0. -1.
         23    2    1    0    0    0  0.25740737480E+02  0.91787799435E+01 -0.83669944576E+01  0.96419549277E+02  0.92086303646E+02 0.  0.
         13    1    3    3    0    0  0.52364788795E+02 -0.32230754448E+01  0.19462818178E+02  0.55957767793E+02  0.10566000000E+00 0.  1.
         22    1    1    0    0    0 -0.25740737480E+02 -0.91787799435E+01  0.83669944576E+01  0.28580450723E+02  0.00000000000E+00 0.  1.
</event>
<event>
 5    1  0.1751020E-003  0.9118800E+02  0.7818608E-02  0.1130116E+00
         25   -1    0    0    0    0  0.00000000000E+00  0.00000000000E+00  0.99999998245E-14  0.12500000000E+03  0.12500000000E+03 0.  0.
        -13    1    3    3    0    0 -0.54955132572E+02  0.88327237195E+01 -0.58640533858E+01  0.55968579493E+02  0.10566000000E+00 0.  1.
         23    2    1    0    0    0 -0.17502905568E+02 -0.13844893303E+02  0.70153772384E+01  0.10160666138E+03  0.98877021322E+02 0.  0.
         13    1    3    3    0    0  0.37452227004E+02 -0.22677617022E+02  0.12879430624E+02  0.45638081890E+02  0.10566000000E+00 0. -1.
         22    1    1    0    0    0  0.17502905568E+02  0.13844893303E+02 -0.70153772384E+01  0.23393338618E+02  0.00000000000E+00 0.  1.
</event>
<event>
 5    1  0.1751020E-003  0.9118800E+02  0.7818608E-02  0.1130116E+00
         25   -1    0    0    0    0  0.00000000000E+00  0.00000000000E+00  0.99999998245E-14  0.12500000000E+03  0.12500000000E+03 0.  0.
        -13    1    3    3    0    0 -0.27680719453E+01  0.51787900755E+02  0.36805508485E-01  0.51861945640E+02  0.10566000000E+00 0.  1.
         23    2    1    0    0    0  0.17724376418E+02  0.17926827403E+02 -0.16621453811E+02  0.94804017040E+02  0.89866591456E+02 0.  0.
         13    1    3    3    0    0  0.20492448363E+02 -0.33861073352E+02 -0.16658259319E+02  0.42942071399E+02  0.10566000000E+00 0. -1.
         22    1    1    0    0    0 -0.17724376418E+02 -0.17926827403E+02  0.16621453811E+02  0.30195982960E+02  0.00000000000E+00 0. -1.
</event>
<event>
 5    1  0.1751020E-003  0.9118800E+02  0.7818608E-02  0.1130116E+00
         25   -1    0    0    0    0  0.00000000000E+00  0.00000000000E+00  0.99999998245E-14  0.12500000000E+03  0.12500000000E+03 0.  0.
        -13    1    3    3    0    0 -0.50763831320E+02  0.32953454121E+02  0.67295944403E+01  0.60894953109E+02  0.10566000000E+00 0. -1.
         23    2    1    0    0    0 -0.21897945089E+02  0.16153680296E+02  0.12943662799E+02  0.94866965090E+02  0.89954106480E+02 0.  0.
         13    1    3    3    0    0  0.28865886231E+02 -0.16799773825E+02  0.62140683583E+01  0.33972011981E+02  0.10566000000E+00 0.  1.
         22    1    1    0    0    0  0.21897945089E+02 -0.16153680296E+02 -0.12943662799E+02  0.30133034910E+02  0.00000000000E+00 0. -1.
</event>
<event>
 5    1  0.1751020E-003  0.9118800E+02  0.7818608E-02  0.1130116E+00
         25   -1    0    0    0    0  0.00000000000E+00  0.00000000000E+00  0.99999998245E-14  0.12500000000E+03  0.12500000000E+03 0.  0.
        -13    1    3    3    0    0 -0.46583124695E+02 -0.23299687451E+02  0.10451287247E+02  0.53123474197E+02  0.10566000000E+00 0.  1.
         23    2    1    0    0    0 -0.94426583713E+01 -0.28876390481E+02  0.15285630777E+02  0.90990292084E+02  0.84395337673E+02 0.  0.
         13    1    3    3    0    0  0.37140466324E+02 -0.55767030300E+01  0.48343435308E+01  0.37866817886E+02  0.10566000000E+00 0. -1.
         22    1    1    0    0    0  0.94426583713E+01  0.28876390481E+02 -0.15285630777E+02  0.34009707916E+02  0.00000000000E+00 0.  1.
</event>
<event>
 5    1  0.1751020E-003  0.9118800E+02  0.7818608E-02  0.1130116E+00
         25   -1    0    0    0    0  0.00000000000E+00  0.00000000000E+00  0.99999998245E-14  0.12500000000E+03  0.12500000000E+03 0.  0.
        -13    1    3    3    0    0  0.30696078004E+02 -0.17332945135E+02 -0.24741756504E+01  0.35338546958E+02  0.10566000000E+00 0.  1.
         23    2    1    0    0    0  0.33888926773E+01  0.27874976203E+02  0.17622485455E+02  0.91848063624E+02  0.85656382751E+02 0.  0.
         13    1    3    3    0    0 -0.27307185327E+02  0.45207921338E+02  0.20096661105E+02  0.56509516666E+02  0.10566000000E+00 0. -1.
         22    1    1    0    0    0 -0.33888926773E+01 -0.27874976203E+02 -0.17622485455E+02  0.33151936376E+02  0.00000000000E+00 0. -1.
</event>
<event>
 5    1  0.1751020E-003  0.9118800E+02  0.7818608E-02  0.1130116E+00
         25   -1    0    0    0    0  0.00000000000E+00  0.00000000000E+00  0.99999998245E-14  0.12500000000E+03  0.12500000000E+03 0.  0.
        -13    1    3    3    0    0 -0.67454563625E+01 -0.25622488834E+02 -0.19305893489E+02  0.32783254918E+02  0.10566000000E+00 0.  1.
         23    2    1    0    0    0 -0.69190005499E+01  0.26570034226E+02  0.13473659485E+02  0.94416037089E+02  0.89325300293E+02 0.  0.
         13    1    3    3    0    0 -0.17354418738E+00  0.52192523060E+02  0.32779552974E+02  0.61632782171E+02  0.10566000000E+00 0. -1.
         22    1    1    0    0    0  0.69190005499E+01 -0.26570034226E+02 -0.13473659485E+02  0.30583962911E+02  0.00000000000E+00 0. -1.
</event>
<event>
 5    1  0.1751020E-003  0.9118800E+02  0.7818608E-02  0.1130116E+00
         25   -1    0    0    0    0  0.00000000000E+00  0.00000000000E+00  0.99999998245E-14  0.12500000000E+03  0.12500000000E+03 0.  0.
        -13    1    3    3    0    0 -0.36468755182E+02  0.95431279062E+01 -0.46517663285E+01  0.37982778845E+02  0.10566000000E+00 0. -1.
         23    2    1    0    0    0  0.13217741826E+02  0.73292308119E+01  0.24926582306E+02  0.95849342568E+02  0.91309011834E+02 0.  0.
         13    1    3    3    0    0  0.49686497007E+02 -0.22138970943E+01  0.29578348634E+02  0.57866563724E+02  0.10566000000E+00 0.  1.
         22    1    1    0    0    0 -0.13217741826E+02 -0.73292308119E+01 -0.24926582306E+02  0.29150657432E+02  0.00000000000E+00 0.  1.
</event>
<event>
 5    1  0.1751020E-003  0.9118800E+02  0.7818608E-02  0.1130116E+00
         25   -1    0    0    0    0  0.00000000000E+00  0.00000000000E+00  0.99999998245E-14  0.12500000000E+03  0.12500000000E+03 0.  0.
        -13    1    3    3    0    0  0.34854896640E+02  0.17527303737E+02 -0.15366197147E+02  0.41930911925E+02  0.10566000000E+00 0. -1.
         23    2    1    0    0    0  0.12016592613E+02 -0.26746072620E+02  0.40544027628E+01  0.95399508781E+02  0.90691108689E+02 0.  0.
         13    1    3    3    0    0 -0.22838304026E+02 -0.44273376357E+02  0.19420599910E+02  0.53468596856E+02  0.10566000000E+00 0.  1.
         22    1    1    0    0    0 -0.12016592613E+02  0.26746072620E+02 -0.40544027628E+01  0.29600491219E+02  0.00000000000E+00 0.  1.
</event>
<event>
 5    1  0.1751020E-003  0.9118800E+02  0.7818608E-02  0.1130116E+00
         25   -1    0    0    0    0  0.00000000000E+00  0.00000000000E+00  0.99999998245E-14  0.12500000000E+03  0.12500000000E+03 0.  0.
        -13    1    3    3    0    0  0.33673031948E+02 -0.42060525367E+01 -0.21062789029E+02  0.39940157789E+02  0.10566000000E+00 0.  1.
         23    2    1    0    0    0  0.55389354676E+01  0.30147679085E+02  0.83851824658E+01  0.93221490826E+02  0.87637735631E+02 0.  0.
         13    1    3    3    0    0 -0.28134096480E+02  0.34353731621E+02  0.29447971495E+02  0.53281333038E+02  0.10566000000E+00 0. -1.
         22    1    1    0    0    0 -0.55389354676E+01 -0.30147679085E+02 -0.83851824658E+01  0.31778509174E+02  0.00000000000E+00 0. -1.
</event>
<event>
 5    1  0.1751020E-003  0.9118800E+02  0.7818608E-02  0.1130116E+00
         25   -1    0    0    0    0  0.00000000000E+00  0.00000000000E+00  0.99999998245E-14  0.12500000000E+03  0.12500000000E+03 0.  0.
        -13    1    3    3    0    0  0.39082007077E+01 -0.54999994323E+02 -0.22066342440E+02  0.59390302584E+02  0.10566000000E+00 0.  1.
         23    2    1    0    0    0 -0.96176311685E+01 -0.20741931721E+02 -0.16869573432E+02  0.96586815233E+02  0.92313074958E+02 0.  0.
         13    1    3    3    0    0 -0.13525831876E+02  0.34258062601E+02  0.51967690079E+01  0.37196512650E+02  0.10566000000E+00 0. -1.
         22    1    1    0    0    0  0.96176311685E+01  0.20741931721E+02  0.16869573432E+02  0.28413184767E+02  0.00000000000E+00 0.  1.
</event>
<event>
 5    1  0.1751020E-003  0.9118800E+02  0.7818608E-02  0.1130116E+00
         25   -1    0    0    0    0  0.00000000000E+00  0.00000000000E+00  0.99999998245E-14  0.12500000000E+03  0.12500000000E+03 0.  0.
        -13    1    3    3    0    0 -0.18111276161E+02  0.57573104558E+01  0.42647293222E+02  0.46690124556E+02  0.10566000000E+00 0.  1.
         23    2    1    0    0    0 -0.27464894468E+02  0.61647911848E+01 -0.59908322439E+01  0.96221272623E+02  0.91816764023E+02 0.  0.
         13    1    3    3    0    0 -0.93536183065E+01  0.40748072901E+00 -0.48638125466E+02  0.49531148067E+02  0.10566000000E+00 0. -1.
         22    1    1    0    0    0  0.27464894468E+02 -0.61647911848E+01  0.59908322439E+01  0.28778727377E+02  0.00000000000E+00 0. -1.
</event>
<event>
 5    1  0.1751020E-003  0.9118800E+02  0.7818608E-02  0.1130116E+00
         25   -1    0    0    0    0  0.00000000000E+00  0.00000000000E+00  0.99999998245E-14  0.12500000000E+03  0.12500000000E+03 0.  0.
        -13    1    3    3    0    0 -0.17319790349E+02 -0.30030087753E+02 -0.49509573281E+02  0.60439972855E+02  0.10566000000E+00 0. -1.
         23    2    1    0    0    0 -0.15765219808E+02 -0.20875136121E+02 -0.18111230197E+02  0.93182864319E+02  0.87582624303E+02 0.  0.
         13    1    3    3    0    0  0.15545705411E+01  0.91549516319E+01  0.31398343084E+02  0.32742891464E+02  0.10566000000E+00 0.  1.
         22    1    1    0    0    0  0.15765219808E+02  0.20875136121E+02  0.18111230197E+02  0.31817135681E+02  0.00000000000E+00 0. -1.
</event>
<event>
 5    1  0.1751020E-003  0.9118800E+02  0.7818608E-02  0.1130116E+00
         25   -1    0    0    0    0  0.00000000000E+00  0.00000000000E+00  0.99999998245E-14  0.12500000000E+03  0.12500000000E+03 0.  0.
        -13    1    3    3    0    0 -0.32227022296E+02  0.17887471010E+02 -0.13104999689E+02  0.39118982171E+02  0.10566000000E+00 0.  1.
         23    2    1    0    0    0  0.17994488688E+02  0.57573407113E+01  0.17565741364E+02  0.99202638413E+02  0.95789663342E+02 0.  0.
         13    1    3    3    0    0  0.50221510984E+02 -0.12130130299E+02  0.30670741053E+02  0.60083656242E+02  0.10566000000E+00 0. -1.
         22    1    1    0    0    0 -0.17994488688E+02 -0.57573407113E+01 -0.17565741364E+02  0.25797361587E+02  0.00000000000E+00 0. -1.
</event>
<event>
 5    1  0.1751020E-003  0.9118800E+02  0.7818608E-02  0.1130116E+00
         25   -1    0    0    0    0  0.00000000000E+00  0.00000000000E+00  0.99999998245E-14  0.12500000000E+03  0.12500000000E+03 0.  0.
        -13    1    3    3    0    0  0.32940661372E+02  0.97494807720E+01  0.14066988311E+02  0.37121838197E+02  0.10566000000E+00 0. -1.
         23    2    1    0    0    0 -0.13602664373E+02  0.21205537776E+02 -0.17329707439E+02  0.94421804004E+02  0.89333370031E+02 0.  0.
         13    1    3    3    0    0 -0.46543325745E+02  0.11456057004E+02 -0.31396695750E+02  0.57299965807E+02  0.10566000000E+00 0.  1.
         22    1    1    0    0    0  0.13602664373E+02 -0.21205537776E+02  0.17329707439E+02  0.30578195996E+02  0.00000000000E+00 0.  1.
</event>
<event>
 5    1  0.1751020E-003  0.9118800E+02  0.7818608E-02  0.1130116E+00
         25   -1    0    0    0    0  0.00000000000E+00  0.00000000000E+00  0.99999998245E-14  0.12500000000E+03  0.12500000000E+03 0.  0.
        -13    1    3    3    0    0  0.13516520701E+02 -0.39894406944E+02  0.13263119497E+02  0.44160859821E+02  0.10566000000E+00 0.  1.
         23    2    1    0    0    0  0.11138315178E+02  0.11704621608E+02  0.23166513610E+02  0.96755574270E+02  0.92541307358E+02 0.  0.
         13    1    3    3    0    0 -0.23782055230E+01  0.51599028552E+02  0.99033941129E+01  0.52594714449E+02  0.10566000000E+00 0. -1.
         22    1    1    0    0    0 -0.11138315178E+02 -0.11704621608E+02 -0.23166513610E+02  0.28244425730E+02  0.00000000000E+00 0. -1.
</event>
<event>
 5    1  0.1751020E-003  0.9118800E+02  0.7818608E-02  0.1130116E+00
         25   -1    0    0    0    0  0.00000000000E+00  0.00000000000E+00  0.99999998245E-14  0.12500000000E+03  0.12500000000E+03 0.  0.
        -13    1    3    3    0    0 -0.39442160199E+02  0.20335522204E+01  0.23050038171E+02  0.45728926944E+02  0.10566000000E+00 0. -1.
         23    2    1    0    0    0  0.10144475752E+02  0.20547765423E+02  0.69373869092E+01  0.10105739385E+03  0.98180183655E+02 0.  0.
         13    1    3    3    0    0  0.49586635951E+02  0.18514213202E+02 -0.16112651262E+02  0.55328466905E+02  0.10566000000E+00 0.  1.
         22    1    1    0    0    0 -0.10144475752E+02 -0.20547765423E+02 -0.69373869092E+01  0.23942606150E+02  0.00000000000E+00 0.  1.
</event>
<event>
 5    1  0.1751020E-003  0.9118800E+02  0.7818608E-02  0.1130116E+00
         25   -1    0    0    0    0  0.00000000000E+00  0.00000000000E+00  0.99999998245E-14  0.12500000000E+03  0.12500000000E+03 0.  0.
        -13    1    3    3    0    0  0.27326531129E+02  0.32896027617E+01  0.42278631673E+02  0.50448534667E+02  0.10566000000E+00 0. -1.
         23    2    1    0    0    0 -0.13918449823E+02 -0.53195134661E+01  0.24808248336E+02  0.96060932038E+02  0.91598215100E+02 0.  0.
         13    1    3    3    0    0 -0.41244980952E+02 -0.86091162279E+01 -0.17470383337E+02  0.45612397371E+02  0.10566000000E+00 0.  1.
         22    1    1    0    0    0  0.13918449823E+02  0.53195134661E+01 -0.24808248336E+02  0.28939067962E+02  0.00000000000E+00 0. -1.
</event>
<event>
 5    1  0.1751020E-003  0.9118800E+02  0.7818608E-02  0.1130116E+00
         25   -1    0    0    0    0  0.00000000000E+00  0.00000000000E+00  0.99999998245E-14  0.12500000000E+03  0.12500000000E+03 0.  0.
        -13    1    3    3    0    0  0.44970109975E+02  0.33802219069E+02 -0.26543205375E+02  0.62204933251E+02  0.10566000000E+00 0. -1.
         23    2    1    0    0    0  0.18614455733E+02  0.19346446714E+02 -0.12787293396E+02  0.95262854288E+02  0.90502561136E+02 0.  0.
         13    1    3    3    0    0 -0.26355654242E+02 -0.14455772355E+02  0.13755911979E+02  0.33057921038E+02  0.10566000000E+00 0.  1.
         22    1    1    0    0    0 -0.18614455733E+02 -0.19346446714E+02  0.12787293396E+02  0.29737145712E+02  0.00000000000E+00 0. -1.
</event>
<event>
 5    1  0.1751020E-003  0.9118800E+02  0.7818608E-02  0.1130116E+00
         25   -1    0    0    0    0  0.00000000000E+00  0.00000000000E+00  0.99999998245E-14  0.12500000000E+03  0.12500000000E+03 0.  0.
        -13    1    3    3    0    0  0.30343230053E+02 -0.31735459883E+02  0.11214572154E+02  0.45316981548E+02  0.10566000000E+00 0.  1.
         23    2    1    0    0    0 -0.17280471198E+02 -0.25256890829E+02  0.73005169469E+01  0.93538551100E+02  0.88088806185E+02 0.  0.
         13    1    3    3    0    0 -0.47623701251E+02  0.64785690537E+01 -0.39140552067E+01  0.48221569552E+02  0.10566000000E+00 0. -1.
         22    1    1    0    0    0  0.17280471198E+02  0.25256890829E+02 -0.73005169469E+01  0.31461448900E+02  0.00000000000E+00 0. -1.
</event>
<event>
 5    1  0.1751020E-003  0.9118800E+02  0.7818608E-02  0.1130116E+00
         25   -1    0    0    0    0  0.00000000000E+00  0.00000000000E+00  0.99999998245E-14  0.12500000000E+03  0.12500000000E+03 0.  0.
        -13    1    3    3    0    0  0.38877533100E+02 -0.22873275246E+02  0.16357640234E+02  0.47981588744E+02  0.10566000000E+00 0. -1.
         23    2    1    0    0    0  0.21252067674E+02  0.39114180270E+01 -0.19364969554E+02  0.95983597445E+02  0.91492619163E+02 0.  0.
         13    1    3    3    0    0 -0.17625465426E+02  0.26784693273E+02 -0.35722609788E+02  0.48002008701E+02  0.10566000000E+00 0.  1.
         22    1    1    0    0    0 -0.21252067674E+02 -0.39114180270E+01  0.19364969554E+02  0.29016402555E+02  0.00000000000E+00 0.  1.
</event>
<event>
 5    1  0.1751020E-003  0.9118800E+02  0.7818608E-02  0.1130116E+00
         25   -1    0    0    0    0  0.00000000000E+00  0.00000000000E+00  0.99999998245E-14  0.12500000000E+03  0.12500000000E+03 0.  0.
        -13    1    3    3    0    0  0.41108064308E+02  0.23047027757E+02  0.28223820201E+02  0.54932992185E+02  0.10566000000E+00 0. -1.
         23    2    1    0    0    0  0.47610810958E+01  0.27125904552E+02  0.12881367505E+02  0.94595851932E+02  0.89576576084E+02 0.  0.
         13    1    3    3    0    0 -0.36346983212E+02  0.40788767947E+01 -0.15342452696E+02  0.39662859747E+02  0.10566000000E+00 0.  1.
         22    1    1    0    0    0 -0.47610810958E+01 -0.27125904552E+02 -0.12881367505E+02  0.30404148068E+02  0.00000000000E+00 0. -1.
</event>
<event>
 5    1  0.1751020E-003  0.9118800E+02  0.7818608E-02  0.1130116E+00
         25   -1    0    0    0    0  0.00000000000E+00  0.00000000000E+00  0.99999998245E-14  0.12500000000E+03  0.12500000000E+03 0.  0.
        -13    1    3    3    0    0  0.32909219921E+02 -0.17900848191E+02 -0.26902567995E+02  0.46121756802E+02  0.10566000000E+00 0. -1.
         23    2    1    0    0    0 -0.11878150153E+02 -0.24655645234E+02 -0.17890156406E+02  0.92303685388E+02  0.86318719563E+02 0.  0.
         13    1    3    3    0    0 -0.44787370074E+02 -0.67547970435E+01  0.90124115885E+01  0.46181928586E+02  0.10566000000E+00 0.  1.
         22    1    1    0    0    0  0.11878150153E+02  0.24655645234E+02  0.17890156406E+02  0.32696314612E+02  0.00000000000E+00 0.  1.
</event>
<event>
 5    1  0.1751020E-003  0.9118800E+02  0.7818608E-02  0.1130116E+00
         25   -1    0    0    0    0  0.00000000000E+00  0.00000000000E+00  0.99999998245E-14  0.12500000000E+03  0.12500000000E+03 0.  0.
        -13    1    3    3    0    0 -0.41611189445E+01 -0.28434905503E+02 -0.27886357562E+02  0.40043961642E+02  0.10566000000E+00 0.  1.
         23    2    1    0    0    0  0.30173889414E+01 -0.18185414159E+02  0.24745503288E+02  0.94143009590E+02  0.88942410567E+02 0.  0.
         13    1    3    3    0    0  0.71785078859E+01  0.10249491344E+02  0.52631860850E+02  0.54099047948E+02  0.10566000000E+00 0. -1.
         22    1    1    0    0    0 -0.30173889414E+01  0.18185414159E+02 -0.24745503288E+02  0.30856990410E+02  0.00000000000E+00 0. -1.
</event>
<event>
 5    1  0.1751020E-003  0.9118800E+02  0.7818608E-02  0.1130116E+00
         25   -1    0    0    0    0  0.00000000000E+00  0.00000000000E+00  0.99999998245E-14  0.12500000000E+03  0.12500000000E+03 0.  0.
        -13    1    3    3    0    0 -0.37015359688E+02  0.14409914086E+02  0.22418543776E+02  0.45611234865E+02  0.10566000000E+00 0.  1.
         23    2    1    0    0    0 -0.35474967617E+01  0.26620071214E+02 -0.12394532438E+02  0.95422350346E+02  0.90722585867E+02 0.  0.
         13    1    3    3    0    0  0.33467862926E+02  0.12210157128E+02 -0.34813076214E+02  0.49811115481E+02  0.10566000000E+00 0. -1.
         22    1    1    0    0    0  0.35474967617E+01 -0.26620071214E+02  0.12394532438E+02  0.29577649654E+02  0.00000000000E+00 0. -1.
</event>
<event>
 5    1  0.1751020E-003  0.9118800E+02  0.7818608E-02  0.1130116E+00
         25   -1    0    0    0    0  0.00000000000E+00  0.00000000000E+00  0.99999998245E-14  0.12500000000E+03  0.12500000000E+03 0.  0.
        -13    1    3    3    0    0 -0.31632056853E+02  0.26889805044E+02  0.42597795043E+02  0.59483039117E+02  0.10566000000E+00 0.  1.
         23    2    1    0    0    0 -0.19696289943E+02 -0.62848652724E+00  0.18681697990E+02  0.97845908732E+02  0.94002538173E+02 0.  0.
         13    1    3    3    0    0  0.11935766911E+02 -0.27518291571E+02 -0.23916097053E+02  0.38362869614E+02  0.10566000000E+00 0. -1.
         22    1    1    0    0    0  0.19696289943E+02  0.62848652724E+00 -0.18681697990E+02  0.27154091268E+02  0.00000000000E+00 0.  1.
</event>
<event>
 5    1  0.1751020E-003  0.9118800E+02  0.7818608E-02  0.1130116E+00
         25   -1    0    0    0    0  0.00000000000E+00  0.00000000000E+00  0.99999998245E-14  0.12500000000E+03  0.12500000000E+03 0.  0.
        -13    1    3    3    0    0  0.16200856337E+02  0.14143081525E+02 -0.51455860397E+02  0.55769267830E+02  0.10566000000E+00 0.  1.
         23    2    1    0    0    0  0.14678696192E+02  0.21166063682E+02 -0.10776339940E+02  0.97078755827E+02  0.92976819459E+02 0.  0.
         13    1    3    3    0    0 -0.15221601447E+01  0.70229821571E+01  0.40679520457E+02  0.41309487997E+02  0.10566000000E+00 0. -1.
         22    1    1    0    0    0 -0.14678696192E+02 -0.21166063682E+02  0.10776339940E+02  0.27921244173E+02  0.00000000000E+00 0.  1.
</event>
<event>
 5    1  0.1751020E-003  0.9118800E+02  0.7818608E-02  0.1130116E+00
         25   -1    0    0    0    0  0.00000000000E+00  0.00000000000E+00  0.99999998245E-14  0.12500000000E+03  0.12500000000E+03 0.  0.
        -13    1    3    3    0    0 -0.14437886728E+02  0.14806241850E+02  0.57085343426E+02  0.60715936696E+02  0.10566000000E+00 0.  1.
         23    2    1    0    0    0 -0.14268536580E+02 -0.44835538472E+00  0.26223944439E+02  0.95142213401E+02  0.90335781118E+02 0.  0.
         13    1    3    3    0    0  0.16935014754E+00 -0.15254597234E+02 -0.30861398987E+02  0.34426276704E+02  0.10566000000E+00 0. -1.
         22    1    1    0    0    0  0.14268536580E+02  0.44835538472E+00 -0.26223944439E+02  0.29857786599E+02  0.00000000000E+00 0.  1.
</event>
<event>
 5    1  0.1751020E-003  0.9118800E+02  0.7818608E-02  0.1130116E+00
         25   -1    0    0    0    0  0.00000000000E+00  0.00000000000E+00  0.99999998245E-14  0.12500000000E+03  0.12500000000E+03 0.  0.
        -13    1    3    3    0    0 -0.19213567359E+02 -0.29980452729E+02 -0.40973688834E+00  0.35611343204E+02  0.10566000000E+00 0. -1.
         23    2    1    0    0    0  0.12790032378E+02  0.15368542146E+02  0.21822231725E+02  0.95402925594E+02  0.90695817977E+02 0.  0.
         13    1    3    3    0    0  0.32003599736E+02  0.45348994875E+02  0.22231968613E+02  0.59791582390E+02  0.10566000000E+00 0.  1.
         22    1    1    0    0    0 -0.12790032378E+02 -0.15368542146E+02 -0.21822231725E+02  0.29597074406E+02  0.00000000000E+00 0.  1.
</event>
<event>
 5    1  0.1751020E-003  0.9118800E+02  0.7818608E-02  0.1130116E+00
         25   -1    0    0    0    0  0.00000000000E+00  0.00000000000E+00  0.99999998245E-14  0.12500000000E+03  0.12500000000E+03 0.  0.
        -13    1    3    3    0    0 -0.32113514281E+02  0.28449237986E+02 -0.55834370126E+01  0.43264568348E+02  0.10566000000E+00 0. -1.
         23    2    1    0    0    0  0.16068800993E+02  0.11803813984E+02 -0.20524289954E+02  0.96385617811E+02  0.92040232794E+02 0.  0.
         13    1    3    3    0    0  0.48182315274E+02 -0.16645424002E+02 -0.14940852941E+02  0.53121049463E+02  0.10566000000E+00 0.  1.
         22    1    1    0    0    0 -0.16068800993E+02 -0.11803813984E+02  0.20524289954E+02  0.28614382189E+02  0.00000000000E+00 0.  1.
</event>
<event>
 5    1  0.1751020E-003  0.9118800E+02  0.7818608E-02  0.1130116E+00
         25   -1    0    0    0    0  0.00000000000E+00  0.00000000000E+00  0.99999998245E-14  0.12500000000E+03  0.12500000000E+03 0.  0.
        -13    1    3    3    0    0  0.12658664210E+02 -0.11769355491E+02 -0.43905974423E+02  0.47185858711E+02  0.10566000000E+00 0. -1.
         23    2    1    0    0    0 -0.23895434517E+02  0.43469345514E+01 -0.17166339814E+02  0.95258264117E+02  0.90496221077E+02 0.  0.
         13    1    3    3    0    0 -0.36554098726E+02  0.16116290043E+02  0.26739634608E+02  0.48072405405E+02  0.10566000000E+00 0.  1.
         22    1    1    0    0    0  0.23895434517E+02 -0.43469345514E+01  0.17166339814E+02  0.29741735883E+02  0.00000000000E+00 0.  1.
</event>
<event>
 5    1  0.1751020E-003  0.9118800E+02  0.7818608E-02  0.1130116E+00
         25   -1    0    0    0    0  0.00000000000E+00  0.00000000000E+00  0.99999998245E-14  0.12500000000E+03  0.12500000000E+03 0.  0.
        -13    1    3    3    0    0  0.10949980516E+02  0.30572058209E+02 -0.27515942123E+02  0.42563964235E+02  0.10566000000E+00 0. -1.
         23    2    1    0    0    0 -0.23953309693E+02  0.19429175846E+02  0.75152647254E+01  0.93255187460E+02  0.87685784852E+02 0.  0.
         13    1    3    3    0    0 -0.34903290209E+02 -0.11142882363E+02  0.35031206849E+02  0.50691223225E+02  0.10566000000E+00 0.  1.
         22    1    1    0    0    0  0.23953309693E+02 -0.19429175846E+02 -0.75152647254E+01  0.31744812540E+02  0.00000000000E+00 0.  1.
</event>
<event>
 5    1  0.1751020E-003  0.9118800E+02  0.7818608E-02  0.1130116E+00
         25   -1    0    0    0    0  0.00000000000E+00  0.00000000000E+00  0.99999998245E-14  0.12500000000E+03  0.12500000000E+03 0.  0.
        -13    1    3    3    0    0 -0.19027079106E+02  0.48519267305E+02  0.78914300557E+00  0.52122768056E+02  0.10566000000E+00 0.  1.
         23    2    1    0    0    0  0.14868394358E+02  0.22466710624E+02 -0.10081813766E+02  0.96234305051E+02  0.91834504751E+02 0.  0.
         13    1    3    3    0    0  0.33895473464E+02 -0.26052556681E+02 -0.10870956771E+02  0.44111536995E+02  0.10566000000E+00 0. -1.
         22    1    1    0    0    0 -0.14868394358E+02 -0.22466710624E+02  0.10081813766E+02  0.28765694949E+02  0.00000000000E+00 0.  1.
</event>
<event>
 5    1  0.1751020E-003  0.9118800E+02  0.7818608E-02  0.1130116E+00
         25   -1    0    0    0    0  0.00000000000E+00  0.00000000000E+00  0.99999998245E-14  0.12500000000E+03  0.12500000000E+03 0.  0.
        -13    1    3    3    0    0 -0.16399375480E+02 -0.25080698034E+02  0.51923988175E+02  0.59950751806E+02  0.10566000000E+00 0.  1.
         23    2    1    0    0    0 -0.19941503945E+02 -0.94047425707E+01  0.22376261789E+02  0.93586470207E+02  0.88156778251E+02 0.  0.
         13    1    3    3    0    0 -0.35421284650E+01  0.15675955463E+02 -0.29547726386E+02  0.33635718401E+02  0.10566000000E+00 0. -1.
         22    1    1    0    0    0  0.19941503945E+02  0.94047425707E+01 -0.22376261789E+02  0.31413529793E+02  0.00000000000E+00 0.  1.
</event>
<event>
 5    1  0.1751020E-003  0.9118800E+02  0.7818608E-02  0.1130116E+00
         25   -1    0    0    0    0  0.00000000000E+00  0.00000000000E+00  0.99999998245E-14  0.12500000000E+03  0.12500000000E+03 0.  0.
        -13    1    3    3    0    0  0.43540344445E+02  0.26565883797E+01 -0.22588755409E+02  0.49123131936E+02  0.10566000000E+00 0. -1.
         23    2    1    0    0    0 -0.16096045254E+01  0.91836197937E+01 -0.28397685870E+02  0.95110900616E+02  0.90292442397E+02 0.  0.
         13    1    3    3    0    0 -0.45149948970E+02  0.65270314140E+01 -0.58089304601E+01  0.45987768680E+02  0.10566000000E+00 0.  1.
         22    1    1    0    0    0  0.16096045254E+01 -0.91836197937E+01  0.28397685870E+02  0.29889099384E+02  0.00000000000E+00 0. -1.
</event>
<event>
 5    1  0.1751020E-003  0.9118800E+02  0.7818608E-02  0.1130116E+00
         25   -1    0    0    0    0  0.00000000000E+00  0.00000000000E+00  0.99999998245E-14  0.12500000000E+03  0.12500000000E+03 0.  0.
        -13    1    3    3    0    0  0.10897327743E+02 -0.49938067630E+02 -0.40458312126E+01  0.51273211961E+02  0.10566000000E+00 0.  1.
         23    2    1    0    0    0  0.61917192443E+01 -0.11723675930E+02 -0.26157799253E+02  0.95674031537E+02  0.91068698708E+02 0.  0.
         13    1    3    3    0    0 -0.47056084986E+01  0.38214391700E+02 -0.22111968041E+02  0.44400819576E+02  0.10566000000E+00 0. -1.
         22    1    1    0    0    0 -0.61917192443E+01  0.11723675930E+02  0.26157799253E+02  0.29325968463E+02  0.00000000000E+00 0. -1.
</event>
<event>
 5    1  0.1751020E-003  0.9118800E+02  0.7818608E-02  0.1130116E+00
         25   -1    0    0    0    0  0.00000000000E+00  0.00000000000E+00  0.99999998245E-14  0.12500000000E+03  0.12500000000E+03 0.  0.
        -13    1    3    3    0    0 -0.36197080268E+02 -0.56458792208E+01  0.11657312226E+02  0.38444878261E+02  0.10566000000E+00 0.  1.
         23    2    1    0    0    0  0.21662605434E+02 -0.11454131174E+02  0.14250363352E+02  0.96653246203E+02  0.92402984534E+02 0.  0.
         13    1    3    3    0    0  0.57859685702E+02 -0.58082519533E+01  0.25930511262E+01  0.58208367942E+02  0.10566000000E+00 0. -1.
         22    1    1    0    0    0 -0.21662605434E+02  0.11454131174E+02 -0.14250363352E+02  0.28346753797E+02  0.00000000000E+00 0. -1.
</event>
<event>
 5    1  0.1751020E-003  0.9118800E+02  0.7818608E-02  0.1130116E+00
         25   -1    0    0    0    0  0.00000000000E+00  0.00000000000E+00  0.99999998245E-14  0.12500000000E+03  0.12500000000E+03 0.  0.
        -13    1    3    3    0    0 -0.35464226878E+02  0.48328566115E+01  0.20916840012E+02  0.41455919374E+02  0.10566000000E+00 0.  1.
         23    2    1    0    0    0 -0.69284773637E+01 -0.19179429046E+02 -0.19733783876E+02  0.96622605420E+02  0.92361525296E+02 0.  0.
         13    1    3    3    0    0  0.28535749514E+02 -0.24012285657E+02 -0.40650623887E+02  0.55166686046E+02  0.10566000000E+00 0. -1.
         22    1    1    0    0    0  0.69284773637E+01  0.19179429046E+02  0.19733783876E+02  0.28377394580E+02  0.00000000000E+00 0. -1.
</event>
<event>
 5    1  0.1751020E-003  0.9118800E+02  0.7818608E-02  0.1130116E+00
         25   -1    0    0    0    0  0.00000000000E+00  0.00000000000E+00  0.99999998245E-14  0.12500000000E+03  0.12500000000E+03 0.  0.
        -13    1    3    3    0    0 -0.38738892425E+02  0.88061403472E+01 -0.17316095995E+02  0.43337146176E+02  0.10566000000E+00 0. -1.
         23    2    1    0    0    0 -0.12819271040E+02 -0.25039188975E+02  0.11304203204E+02  0.94683672640E+02  0.89699042136E+02 0.  0.
         13    1    3    3    0    0  0.25919621385E+02 -0.33845329322E+02  0.28620299199E+02  0.51346526464E+02  0.10566000000E+00 0.  1.
         22    1    1    0    0    0  0.12819271040E+02  0.25039188975E+02 -0.11304203204E+02  0.30316327360E+02  0.00000000000E+00 0. -1.
</event>
<event>
 5    1  0.1751020E-003  0.9118800E+02  0.7818608E-02  0.1130116E+00
         25   -1    0    0    0    0  0.00000000000E+00  0.00000000000E+00  0.99999998245E-14  0.12500000000E+03  0.12500000000E+03 0.  0.
        -13    1    3    3    0    0 -0.91305379743E+01  0.31960358368E+02 -0.18810636005E+02  0.38192701157E+02  0.10566000000E+00 0.  1.
         23    2    1    0    0    0 -0.22437510407E+02 -0.19979976261E+02 -0.17927840983E+00  0.94955475284E+02  0.90077016053E+02 0.  0.
         13    1    3    3    0    0 -0.13306972433E+02 -0.51940334629E+02  0.18631357595E+02  0.56762774127E+02  0.10566000000E+00 0. -1.
         22    1    1    0    0    0  0.22437510407E+02  0.19979976261E+02  0.17927840983E+00  0.30044524716E+02  0.00000000000E+00 0. -1.
</event>
<event>
 5    1  0.1751020E-003  0.9118800E+02  0.7818608E-02  0.1130116E+00
         25   -1    0    0    0    0  0.00000000000E+00  0.00000000000E+00  0.99999998245E-14  0.12500000000E+03  0.12500000000E+03 0.  0.
        -13    1    3    3    0    0 -0.19484969579E+01 -0.81718092642E+01  0.34007876509E+02  0.35030300252E+02  0.10566000000E+00 0.  1.
         23    2    1    0    0    0  0.80101410614E+00  0.23552112617E+02 -0.17541938356E+02  0.95622062128E+02  0.90997338049E+02 0.  0.
         13    1    3    3    0    0  0.27495110640E+01  0.31723921881E+02 -0.51549814865E+02  0.60591761876E+02  0.10566000000E+00 0. -1.
         22    1    1    0    0    0 -0.80101410614E+00 -0.23552112617E+02  0.17541938356E+02  0.29377937872E+02  0.00000000000E+00 0. -1.
</event>
<event>
 5    1  0.1751020E-003  0.9118800E+02  0.7818608E-02  0.1130116E+00
         25   -1    0    0    0    0  0.00000000000E+00  0.00000000000E+00  0.99999998245E-14  0.12500000000E+03  0.12500000000E+03 0.  0.
        -13    1    3    3    0    0  0.47199897945E+02  0.80890746873E+01  0.15188803181E+02  0.50239171982E+02  0.10566000000E+00 0. -1.
         23    2    1    0    0    0  0.71427028864E+01  0.27638372048E+02  0.42066704962E+01  0.96145296906E+02  0.91713271813E+02 0.  0.
         13    1    3    3    0    0 -0.40057195059E+02  0.19549297360E+02 -0.10982132684E+02  0.45906124924E+02  0.10566000000E+00 0.  1.
         22    1    1    0    0    0 -0.71427028864E+01 -0.27638372048E+02 -0.42066704962E+01  0.28854703094E+02  0.00000000000E+00 0. -1.
</event>
<event>
 5    1  0.1751020E-003  0.9118800E+02  0.7818608E-02  0.1130116E+00
         25   -1    0    0    0    0  0.00000000000E+00  0.00000000000E+00  0.99999998245E-14  0.12500000000E+03  0.12500000000E+03 0.  0.
        -13    1    3    3    0    0 -0.30141163168E+02  0.41071649104E+02  0.18201242868E+02  0.54098673581E+02  0.10566000000E+00 0.  1.
         23    2    1    0    0    0  0.84763980012E+01  0.24498068769E+02  0.11447565850E+02  0.96661837386E+02  0.92414605698E+02 0.  0.
         13    1    3    3    0    0  0.38617561169E+02 -0.16573580335E+02 -0.67536770175E+01  0.42563163805E+02  0.10566000000E+00 0. -1.
         22    1    1    0    0    0 -0.84763980012E+01 -0.24498068769E+02 -0.11447565850E+02  0.28338162614E+02  0.00000000000E+00 0. -1.
</event>
<event>
 5    1  0.1751020E-003  0.9118800E+02  0.7818608E-02  0.1130116E+00
         25   -1    0    0    0    0  0.00000000000E+00  0.00000000000E+00  0.99999998245E-14  0.12500000000E+03  0.12500000000E+03 0.  0.
        -13    1    3    3    0    0 -0.32547750500E+02  0.11479640281E+02  0.22399576091E+02  0.41144749078E+02  0.10566000000E+00 0.  1.
         23    2    1    0    0    0 -0.19053244287E+01  0.29894416360E+02 -0.13797448277E+02  0.92020067167E+02  0.85907024112E+02 0.  0.
         13    1    3    3    0    0  0.30642426071E+02  0.18414776079E+02 -0.36197024368E+02  0.50875318090E+02  0.10566000000E+00 0. -1.
         22    1    1    0    0    0  0.19053244287E+01 -0.29894416360E+02  0.13797448277E+02  0.32979932833E+02  0.00000000000E+00 0.  1.
</event>
<event>
 5    1  0.1751020E-003  0.9118800E+02  0.7818608E-02  0.1130116E+00
         25   -1    0    0    0    0  0.00000000000E+00  0.00000000000E+00  0.99999998245E-14  0.12500000000E+03  0.12500000000E+03 0.  0.
        -13    1    3    3    0    0  0.40752477611E+02 -0.25824131624E+02 -0.22503878111E+02  0.53236133403E+02  0.10566000000E+00 0. -1.
         23    2    1    0    0    0  0.27048716213E+02 -0.34834826476E+00  0.94563092477E+01  0.96343828241E+02  0.91983460798E+02 0.  0.
         13    1    3    3    0    0 -0.13703761399E+02  0.25475783359E+02  0.31960187359E+02  0.43107694838E+02  0.10566000000E+00 0.  1.
         22    1    1    0    0    0 -0.27048716213E+02  0.34834826476E+00 -0.94563092477E+01  0.28656171759E+02  0.00000000000E+00 0. -1.
</event>
<event>
 5    1  0.1751020E-003  0.9118800E+02  0.7818608E-02  0.1130116E+00
         25   -1    0    0    0    0  0.00000000000E+00  0.00000000000E+00  0.99999998245E-14  0.12500000000E+03  0.12500000000E+03 0.  0.
        -13    1    3    3    0    0  0.47342539713E+02 -0.11480326094E+02  0.13593463362E+02  0.50575758659E+02  0.10566000000E+00 0.  1.
         23    2    1    0    0    0  0.58533207256E+01  0.20161512701E+02  0.39286578907E+01  0.10364157518E+03  0.10141693052E+03 0.  0.
         13    1    3    3    0    0 -0.41489218987E+02  0.31641838794E+02 -0.96648054717E+01  0.53065816523E+02  0.10566000000E+00 0. -1.
         22    1    1    0    0    0 -0.58533207256E+01 -0.20161512701E+02 -0.39286578907E+01  0.21358424818E+02  0.00000000000E+00 0.  1.
</event>
<event>
 5    1  0.1751020E-003  0.9118800E+02  0.7818608E-02  0.1130116E+00
         25   -1    0    0    0    0  0.00000000000E+00  0.00000000000E+00  0.99999998245E-14  0.12500000000E+03  0.12500000000E+03 0.  0.
        -13    1    3    3    0    0 -0.22328814382E+02  0.29269750401E+01 -0.25110751004E+02  0.33729869768E+02  0.10566000000E+00 0. -1.
         23    2    1    0    0    0  0.18123877103E+02  0.82499810113E+01  0.21512710605E+02  0.95685603784E+02  0.91084581274E+02 0.  0.
         13    1    3    3    0    0  0.40452691485E+02  0.53230059712E+01  0.46623461609E+02  0.61955734015E+02  0.10566000000E+00 0.  1.
         22    1    1    0    0    0 -0.18123877103E+02 -0.82499810113E+01 -0.21512710605E+02  0.29314396216E+02  0.00000000000E+00 0.  1.
</event>
<event>
 5    1  0.1751020E-003  0.9118800E+02  0.7818608E-02  0.1130116E+00
         25   -1    0    0    0    0  0.00000000000E+00  0.00000000000E+00  0.99999998245E-14  0.12500000000E+03  0.12500000000E+03 0.  0.
        -13    1    3    3    0    0 -0.35043490969E+02  0.13752391660E+02 -0.28657618466E+01  0.37754447296E+02  0.10566000000E+00 0.  1.
         23    2    1    0    0    0  0.85516270970E+01 -0.26316959408E+02 -0.43682337934E+01  0.96985822429E+02  0.92851793775E+02 0.  0.
         13    1    3    3    0    0  0.43595118066E+02 -0.40069351068E+02 -0.15024719468E+01  0.59231375133E+02  0.10566000000E+00 0. -1.
         22    1    1    0    0    0 -0.85516270970E+01  0.26316959408E+02  0.43682337934E+01  0.28014177571E+02  0.00000000000E+00 0. -1.
</event>
<event>
 5    1  0.1751020E-003  0.9118800E+02  0.7818608E-02  0.1130116E+00
         25   -1    0    0    0    0  0.00000000000E+00  0.00000000000E+00  0.99999998245E-14  0.12500000000E+03  0.12500000000E+03 0.  0.
        -13    1    3    3    0    0  0.18173379746E+02  0.21293832585E+02  0.22411033041E+02  0.35860348626E+02  0.10566000000E+00 0.  1.
         23    2    1    0    0    0 -0.13848157371E+02  0.94945363058E+01 -0.25370067307E+02  0.94577015311E+02  0.89550286586E+02 0.  0.
         13    1    3    3    0    0 -0.32021537118E+02 -0.11799296279E+02 -0.47781100348E+02  0.58716666685E+02  0.10566000000E+00 0. -1.
         22    1    1    0    0    0  0.13848157371E+02 -0.94945363058E+01  0.25370067307E+02  0.30422984689E+02  0.00000000000E+00 0. -1.
</event>
<event>
 5    1  0.1751020E-003  0.9118800E+02  0.7818608E-02  0.1130116E+00
         25   -1    0    0    0    0  0.00000000000E+00  0.00000000000E+00  0.99999998245E-14  0.12500000000E+03  0.12500000000E+03 0.  0.
        -13    1    3    3    0    0  0.53351267249E+02 -0.12644170282E+02 -0.19862617250E+02  0.58316099726E+02  0.10566000000E+00 0. -1.
         23    2    1    0    0    0  0.26238770713E+02 -0.14978414083E+02 -0.24724416295E+02  0.85959985424E+02  0.76583264204E+02 0.  0.
         13    1    3    3    0    0 -0.27112496536E+02 -0.23342438017E+01 -0.48617990442E+01  0.27643885699E+02  0.10566000000E+00 0.  1.
         22    1    1    0    0    0 -0.26238770713E+02  0.14978414083E+02  0.24724416295E+02  0.39040014576E+02  0.00000000000E+00 0. -1.
</event>
<event>
 5    1  0.1751020E-003  0.9118800E+02  0.7818608E-02  0.1130116E+00
         25   -1    0    0    0    0  0.00000000000E+00  0.00000000000E+00  0.99999998245E-14  0.12500000000E+03  0.12500000000E+03 0.  0.
        -13    1    3    3    0    0 -0.29006318618E+02 -0.34736310794E+02  0.30176042256E+02  0.54392853369E+02  0.10566000000E+00 0.  1.
         23    2    1    0    0    0 -0.11234332499E+02 -0.26611839505E+02 -0.59889996086E+01  0.95499689072E+02  0.90829082721E+02 0.  0.
         13    1    3    3    0    0  0.17771986120E+02  0.81244712889E+01 -0.36165041865E+02  0.41106835703E+02  0.10566000000E+00 0. -1.
         22    1    1    0    0    0  0.11234332499E+02  0.26611839505E+02  0.59889996086E+01  0.29500310928E+02  0.00000000000E+00 0.  1.
</event>
<event>
 5    1  0.1751020E-003  0.9118800E+02  0.7818608E-02  0.1130116E+00
         25   -1    0    0    0    0  0.00000000000E+00  0.00000000000E+00  0.99999998245E-14  0.12500000000E+03  0.12500000000E+03 0.  0.
        -13    1    3    3    0    0 -0.29330671653E+01  0.32939788571E+02 -0.28592928379E+02  0.43717265142E+02  0.10566000000E+00 0.  1.
         23    2    1    0    0    0  0.55374320409E+01  0.20397667931E+02  0.20781220095E+02  0.95359029718E+02  0.90635299026E+02 0.  0.
         13    1    3    3    0    0  0.84704992062E+01 -0.12542120641E+02  0.49374148474E+02  0.51641764576E+02  0.10566000000E+00 0. -1.
         22    1    1    0    0    0 -0.55374320409E+01 -0.20397667931E+02 -0.20781220095E+02  0.29640970282E+02  0.00000000000E+00 0.  1.
</event>
<event>
 5    1  0.1751020E-003  0.9118800E+02  0.7818608E-02  0.1130116E+00
         25   -1    0    0    0    0  0.00000000000E+00  0.00000000000E+00  0.99999998245E-14  0.12500000000E+03  0.12500000000E+03 0.  0.
        -13    1    3    3    0    0  0.16111044154E+02  0.49347682220E+02  0.18481738893E+02  0.55103042754E+02  0.10566000000E+00 0.  1.
         23    2    1    0    0    0  0.24624298942E+02  0.15952490938E+02 -0.26684391790E+01  0.95538862324E+02  0.90882977400E+02 0.  0.
         13    1    3    3    0    0  0.85132547874E+01 -0.33395191282E+02 -0.21150178072E+02  0.40435819571E+02  0.10566000000E+00 0. -1.
         22    1    1    0    0    0 -0.24624298942E+02 -0.15952490938E+02  0.26684391790E+01  0.29461137676E+02  0.00000000000E+00 0.  1.
</event>
<event>
 5    1  0.1751020E-003  0.9118800E+02  0.7818608E-02  0.1130116E+00
         25   -1    0    0    0    0  0.00000000000E+00  0.00000000000E+00  0.99999998245E-14  0.12500000000E+03  0.12500000000E+03 0.  0.
        -13    1    3    3    0    0 -0.14431424566E+02  0.17550567729E+02  0.27847438355E+02  0.35941333164E+02  0.10566000000E+00 0.  1.
         23    2    1    0    0    0  0.19059424099E+02 -0.23579702467E+02  0.29428229489E+01  0.94538151364E+02  0.89496021370E+02 0.  0.
         13    1    3    3    0    0  0.33490848664E+02 -0.41130270196E+02 -0.24904615406E+02  0.58596818200E+02  0.10566000000E+00 0. -1.
         22    1    1    0    0    0 -0.19059424099E+02  0.23579702467E+02 -0.29428229489E+01  0.30461848636E+02  0.00000000000E+00 0.  1.
</event>
<event>
 5    1  0.1751020E-003  0.9118800E+02  0.7818608E-02  0.1130116E+00
         25   -1    0    0    0    0  0.00000000000E+00  0.00000000000E+00  0.99999998245E-14  0.12500000000E+03  0.12500000000E+03 0.  0.
        -13    1    3    3    0    0  0.35856991849E+02 -0.30919357642E+02  0.11788094494E+02  0.48792426433E+02  0.10566000000E+00 0. -1.
         23    2    1    0    0    0 -0.59987263444E+01 -0.13423609726E+02  0.24960077048E+02  0.96031336550E+02  0.91557818550E+02 0.  0.
         13    1    3    3    0    0 -0.41855718193E+02  0.17495747916E+02  0.13171982554E+02  0.47238910117E+02  0.10566000000E+00 0.  1.
         22    1    1    0    0    0  0.59987263444E+01  0.13423609726E+02 -0.24960077048E+02  0.28968663450E+02  0.00000000000E+00 0.  1.
</event>
<event>
 5    1  0.1751020E-003  0.9118800E+02  0.7818608E-02  0.1130116E+00
         25   -1    0    0    0    0  0.00000000000E+00  0.00000000000E+00  0.99999998245E-14  0.12500000000E+03  0.12500000000E+03 0.  0.
        -13    1    3    3    0    0  0.30801556139E+01 -0.22321814667E+02  0.39570951781E+02  0.45537041598E+02  0.10566000000E+00 0.  1.
         23    2    1    0    0    0  0.29160572380E+02 -0.75430452671E+00  0.25153814925E+01  0.95721422492E+02  0.91133723851E+02 0.  0.
         13    1    3    3    0    0  0.26080416766E+02  0.21567510140E+02 -0.37055570288E+02  0.50184380894E+02  0.10566000000E+00 0. -1.
         22    1    1    0    0    0 -0.29160572380E+02  0.75430452671E+00 -0.25153814925E+01  0.29278577508E+02  0.00000000000E+00 0. -1.
</event>
<event>
 5    1  0.1751020E-003  0.9118800E+02  0.7818608E-02  0.1130116E+00
         25   -1    0    0    0    0  0.00000000000E+00  0.00000000000E+00  0.99999998245E-14  0.12500000000E+03  0.12500000000E+03 0.  0.
        -13    1    3    3    0    0 -0.63596710119E+01  0.40762178071E+02  0.16338861503E+02  0.44373078953E+02  0.10566000000E+00 0.  1.
         23    2    1    0    0    0 -0.16282354680E+01 -0.74058097735E+01 -0.19158916344E+02  0.10439511600E+03  0.10234148230E+03 0.  0.
         13    1    3    3    0    0  0.47314355439E+01 -0.48167987845E+02 -0.35497777846E+02  0.60022037048E+02  0.10566000000E+00 0. -1.
         22    1    1    0    0    0  0.16282354680E+01  0.74058097735E+01  0.19158916344E+02  0.20604883999E+02  0.00000000000E+00 0. -1.
</event>
<event>
 5    1  0.1751020E-003  0.9118800E+02  0.7818608E-02  0.1130116E+00
         25   -1    0    0    0    0  0.00000000000E+00  0.00000000000E+00  0.99999998245E-14  0.12500000000E+03  0.12500000000E+03 0.  0.
        -13    1    3    3    0    0  0.13969587824E+02  0.42111574204E+02 -0.34788685714E+02  0.56380829044E+02  0.10566000000E+00 0. -1.
         23    2    1    0    0    0 -0.12844880380E+02  0.21281984060E+02 -0.18334784856E+02  0.94111844775E+02  0.88898600628E+02 0.  0.
         13    1    3    3    0    0 -0.26814468203E+02 -0.20829590144E+02  0.16453900858E+02  0.37731015731E+02  0.10566000000E+00 0.  1.
         22    1    1    0    0    0  0.12844880380E+02 -0.21281984060E+02  0.18334784856E+02  0.30888155225E+02  0.00000000000E+00 0. -1.
</event>
<event>
 5    1  0.1751020E-003  0.9118800E+02  0.7818608E-02  0.1130116E+00
         25   -1    0    0    0    0  0.00000000000E+00  0.00000000000E+00  0.99999998245E-14  0.12500000000E+03  0.12500000000E+03 0.  0.
        -13    1    3    3    0    0 -0.44667646160E+02  0.82797533718E+01 -0.29209855226E+02  0.54009070865E+02  0.10566000000E+00 0.  1.
         23    2    1    0    0    0 -0.56295616612E+01  0.19543596874E+02 -0.21573237306E+02  0.95351244357E+02  0.90624561182E+02 0.  0.
         13    1    3    3    0    0  0.39038084499E+02  0.11263843503E+02  0.76366179202E+01  0.41342173492E+02  0.10566000000E+00 0. -1.
         22    1    1    0    0    0  0.56295616612E+01 -0.19543596874E+02  0.21573237306E+02  0.29648755643E+02  0.00000000000E+00 0.  1.
</event>
<event>
 5    1  0.1751020E-003  0.9118800E+02  0.7818608E-02  0.1130116E+00
         25   -1    0    0    0    0  0.00000000000E+00  0.00000000000E+00  0.99999998245E-14  0.12500000000E+03  0.12500000000E+03 0.  0.
        -13    1    3    3    0    0  0.25685302814E+02 -0.32709562439E+01  0.19858844957E+02  0.32631561753E+02  0.10566000000E+00 0.  1.
         23    2    1    0    0    0 -0.26870265759E+02 -0.16271729890E+01 -0.13482741864E+02  0.94892804812E+02  0.89990006129E+02 0.  0.
         13    1    3    3    0    0 -0.52555568574E+02  0.16437832549E+01 -0.33341586821E+02  0.62261243059E+02  0.10566000000E+00 0. -1.
         22    1    1    0    0    0  0.26870265759E+02  0.16271729890E+01  0.13482741864E+02  0.30107195188E+02  0.00000000000E+00 0. -1.
</event>
<event>
 5    1  0.1751020E-003  0.9118800E+02  0.7818608E-02  0.1130116E+00
         25   -1    0    0    0    0  0.00000000000E+00  0.00000000000E+00  0.99999998245E-14  0.12500000000E+03  0.12500000000E+03 0.  0.
        -13    1    3    3    0    0  0.31143839718E+02 -0.17756842563E+02  0.83101538945E+01  0.36801005855E+02  0.10566000000E+00 0.  1.
         23    2    1    0    0    0 -0.14982657915E+02  0.17924389521E+02 -0.12232088949E+02  0.98629793745E+02  0.95039194211E+02 0.  0.
         13    1    3    3    0    0 -0.46126497632E+02  0.35681232084E+02 -0.20542242844E+02  0.61828787890E+02  0.10566000000E+00 0. -1.
         22    1    1    0    0    0  0.14982657915E+02 -0.17924389521E+02  0.12232088949E+02  0.26370206255E+02  0.00000000000E+00 0. -1.
</event>
<event>
 5    1  0.1751020E-003  0.9118800E+02  0.7818608E-02  0.1130116E+00
         25   -1    0    0    0    0  0.00000000000E+00  0.00000000000E+00  0.99999998245E-14  0.12500000000E+03  0.12500000000E+03 0.  0.
        -13    1    3    3    0    0  0.20978942151E+02  0.44603722895E+01  0.39896891112E+02  0.45296622603E+02  0.10566000000E+00 0. -1.
         23    2    1    0    0    0  0.18382843097E+02  0.19242273025E+02 -0.93605429230E+01  0.96789828868E+02  0.92587565131E+02 0.  0.
         13    1    3    3    0    0 -0.25960990546E+01  0.14781900736E+02 -0.49257434035E+02  0.51493206265E+02  0.10566000000E+00 0.  1.
         22    1    1    0    0    0 -0.18382843097E+02 -0.19242273025E+02  0.93605429230E+01  0.28210171132E+02  0.00000000000E+00 0. -1.
</event>
<event>
 5    1  0.1751020E-003  0.9118800E+02  0.7818608E-02  0.1130116E+00
         25   -1    0    0    0    0  0.00000000000E+00  0.00000000000E+00  0.99999998245E-14  0.12500000000E+03  0.12500000000E+03 0.  0.
        -13    1    3    3    0    0  0.11672221106E+02  0.11000525595E+02  0.31938018011E+02  0.35739340613E+02  0.10566000000E+00 0.  1.
         23    2    1    0    0    0  0.64551841124E+01  0.49947981141E+01 -0.27811168432E+02  0.96015892291E+02  0.91536730730E+02 0.  0.
         13    1    3    3    0    0 -0.52170369939E+01 -0.60057274806E+01 -0.59749186443E+02  0.60276551678E+02  0.10566000000E+00 0. -1.
         22    1    1    0    0    0 -0.64551841124E+01 -0.49947981141E+01  0.27811168432E+02  0.28984107709E+02  0.00000000000E+00 0. -1.
</event>
<event>
 5    1  0.1751020E-003  0.9118800E+02  0.7818608E-02  0.1130116E+00
         25   -1    0    0    0    0  0.00000000000E+00  0.00000000000E+00  0.99999998245E-14  0.12500000000E+03  0.12500000000E+03 0.  0.
        -13    1    3    3    0    0 -0.35558834527E+02 -0.15509938364E+01  0.21419444543E+01  0.35657192611E+02  0.10566000000E+00 0.  1.
         23    2    1    0    0    0  0.25014580948E+02 -0.12112556245E+02 -0.52189043400E+00  0.97202236629E+02  0.93142681716E+02 0.  0.
         13    1    3    3    0    0  0.60573415475E+02 -0.10561562409E+02 -0.26638348883E+01  0.61545044018E+02  0.10566000000E+00 0. -1.
         22    1    1    0    0    0 -0.25014580948E+02  0.12112556245E+02  0.52189043400E+00  0.27797763371E+02  0.00000000000E+00 0. -1.
</event>
<event>
 5    1  0.1751020E-003  0.9118800E+02  0.7818608E-02  0.1130116E+00
         25   -1    0    0    0    0  0.00000000000E+00  0.00000000000E+00  0.99999998245E-14  0.12500000000E+03  0.12500000000E+03 0.  0.
        -13    1    3    3    0    0  0.13295371996E+02  0.35799292492E+02  0.31498339175E+02  0.49502654417E+02  0.10566000000E+00 0.  1.
         23    2    1    0    0    0  0.42755738781E+01  0.29553294781E+02 -0.10834508784E+02  0.93234226832E+02  0.87655899448E+02 0.  0.
         13    1    3    3    0    0 -0.90197981181E+01 -0.62459977118E+01 -0.42332847959E+02  0.43731572415E+02  0.10566000000E+00 0. -1.
         22    1    1    0    0    0 -0.42755738781E+01 -0.29553294781E+02  0.10834508784E+02  0.31765773168E+02  0.00000000000E+00 0. -1.
</event>
<event>
 5    1  0.1751020E-003  0.9118800E+02  0.7818608E-02  0.1130116E+00
         25   -1    0    0    0    0  0.00000000000E+00  0.00000000000E+00  0.99999998245E-14  0.12500000000E+03  0.12500000000E+03 0.  0.
        -13    1    3    3    0    0 -0.70080352508E+00 -0.42226040962E+02 -0.43986191685E+02  0.60978077076E+02  0.10566000000E+00 0.  1.
         23    2    1    0    0    0  0.84416944520E+01 -0.17654316440E+02 -0.24499743519E+02  0.93644386042E+02  0.88238860546E+02 0.  0.
         13    1    3    3    0    0  0.91424979771E+01  0.24571724522E+02  0.19486448166E+02  0.32666308966E+02  0.10566000000E+00 0. -1.
         22    1    1    0    0    0 -0.84416944520E+01  0.17654316440E+02  0.24499743519E+02  0.31355613958E+02  0.00000000000E+00 0.  1.
</event>
<event>
 4    1  0.1751020E-003  0.9118800E+02  0.7818608E-02  0.1130116E+00
         25   -1    0    0    0    0  0.00000000000E+00  0.00000000000E+00  0.99999998245E-14  0.12500000000E+03  0.12500000000E+03 0.  0.
        -13    1    1    0    0    0 -0.60152275602E+00 -0.25343280194E+01  0.13377879868E+02  0.13629507766E+02  0.10566000000E+00 0. -1.
         13    1    1    0    0    0  0.10592844248E+02 -0.36460258005E+02 -0.45937105188E+02  0.59596875422E+02  0.10566000000E+00 0.  1.
         22    1    1    0    0    0 -0.99913214921E+01  0.38994586024E+02  0.32559225319E+02  0.51773616812E+02  0.00000000000E+00 0.  1.
</event>
<event>
 5    1  0.1751020E-003  0.9118800E+02  0.7818608E-02  0.1130116E+00
         25   -1    0    0    0    0  0.00000000000E+00  0.00000000000E+00  0.99999998245E-14  0.12500000000E+03  0.12500000000E+03 0.  0.
        -13    1    3    3    0    0 -0.42432682181E+00  0.20091075233E+02  0.42196469989E+02  0.46737400451E+02  0.10566000000E+00 0.  1.
         23    2    1    0    0    0 -0.20962608021E+02 -0.14634663017E+02  0.16056010280E+02  0.94810601815E+02  0.89875750087E+02 0.  0.
         13    1    3    3    0    0 -0.20538281199E+02 -0.34725738250E+02 -0.26140459709E+02  0.48073201365E+02  0.10566000000E+00 0. -1.
         22    1    1    0    0    0  0.20962608021E+02  0.14634663017E+02 -0.16056010280E+02  0.30189398185E+02  0.00000000000E+00 0. -1.
</event>
<event>
 5    1  0.1751020E-003  0.9118800E+02  0.7818608E-02  0.1130116E+00
         25   -1    0    0    0    0  0.00000000000E+00  0.00000000000E+00  0.99999998245E-14  0.12500000000E+03  0.12500000000E+03 0.  0.
        -13    1    3    3    0    0 -0.15315549730E+02  0.25235435848E+01  0.39318401299E+02  0.42271529195E+02  0.10566000000E+00 0.  1.
         23    2    1    0    0    0  0.27040849661E+02 -0.78774367768E+01  0.88402000056E+01  0.95480333730E+02  0.90802441776E+02 0.  0.
         13    1    3    3    0    0  0.42356399391E+02 -0.10400980362E+02 -0.30478201294E+02  0.53208804534E+02  0.10566000000E+00 0. -1.
         22    1    1    0    0    0 -0.27040849661E+02  0.78774367768E+01 -0.88402000056E+01  0.29519666270E+02  0.00000000000E+00 0. -1.
</event>
<event>
 5    1  0.1751020E-003  0.9118800E+02  0.7818608E-02  0.1130116E+00
         25   -1    0    0    0    0  0.00000000000E+00  0.00000000000E+00  0.99999998245E-14  0.12500000000E+03  0.12500000000E+03 0.  0.
        -13    1    3    3    0    0  0.88886382671E+01 -0.23358033281E+02 -0.14655544249E+02  0.28972430866E+02  0.10566000000E+00 0. -1.
         23    2    1    0    0    0 -0.35018186996E+02 -0.10984998850E+02  0.17056616883E+02  0.84529371147E+02  0.74211473417E+02 0.  0.
         13    1    3    3    0    0 -0.43906825263E+02  0.12373034431E+02  0.31712161132E+02  0.55556940282E+02  0.10566000000E+00 0.  1.
         22    1    1    0    0    0  0.35018186996E+02  0.10984998850E+02 -0.17056616883E+02  0.40470628853E+02  0.00000000000E+00 0.  1.
</event>
<event>
 5    1  0.1751020E-003  0.9118800E+02  0.7818608E-02  0.1130116E+00
         25   -1    0    0    0    0  0.00000000000E+00  0.00000000000E+00  0.99999998245E-14  0.12500000000E+03  0.12500000000E+03 0.  0.
        -13    1    3    3    0    0 -0.12777633039E+02 -0.10014766429E+02 -0.27746326079E+02  0.32147056282E+02  0.10566000000E+00 0. -1.
         23    2    1    0    0    0  0.44525234377E+01  0.99400573094E+01  0.28621693373E+02  0.94375972900E+02  0.89269217679E+02 0.  0.
         13    1    3    3    0    0  0.17230156476E+02  0.19954823739E+02  0.56368019451E+02  0.62228916619E+02  0.10566000000E+00 0.  1.
         22    1    1    0    0    0 -0.44525234377E+01 -0.99400573094E+01 -0.28621693373E+02  0.30624027100E+02  0.00000000000E+00 0.  1.
</event>
<event>
 5    1  0.1751020E-003  0.9118800E+02  0.7818608E-02  0.1130116E+00
         25   -1    0    0    0    0  0.00000000000E+00  0.00000000000E+00  0.99999998245E-14  0.12500000000E+03  0.12500000000E+03 0.  0.
        -13    1    3    3    0    0 -0.21111603934E+02 -0.30427915182E+02 -0.71361770044E+01  0.37715965178E+02  0.10566000000E+00 0.  1.
         23    2    1    0    0    0  0.37494469676E+01  0.23454717750E+02 -0.13960491189E+02  0.97448639752E+02  0.93472776454E+02 0.  0.
         13    1    3    3    0    0  0.24861050902E+02  0.53882632932E+02 -0.68243141843E+01  0.59732674574E+02  0.10566000000E+00 0. -1.
         22    1    1    0    0    0 -0.37494469676E+01 -0.23454717750E+02  0.13960491189E+02  0.27551360248E+02  0.00000000000E+00 0. -1.
</event>
<event>
 5    1  0.1751020E-003  0.9118800E+02  0.7818608E-02  0.1130116E+00
         25   -1    0    0    0    0  0.00000000000E+00  0.00000000000E+00  0.99999998245E-14  0.12500000000E+03  0.12500000000E+03 0.  0.
        -13    1    3    3    0    0  0.24864757963E+02 -0.36413783865E+02 -0.99851582892E+01  0.45209892656E+02  0.10566000000E+00 0.  1.
         23    2    1    0    0    0  0.25450219238E+02  0.12587824575E+02  0.43658693841E+01  0.96273221512E+02  0.91887460396E+02 0.  0.
         13    1    3    3    0    0  0.58546127506E+00  0.49001608439E+02  0.14351027673E+02  0.51063328856E+02  0.10566000000E+00 0. -1.
         22    1    1    0    0    0 -0.25450219238E+02 -0.12587824575E+02 -0.43658693841E+01  0.28726778488E+02  0.00000000000E+00 0. -1.
</event>
<event>
 5    1  0.1751020E-003  0.9118800E+02  0.7818608E-02  0.1130116E+00
         25   -1    0    0    0    0  0.00000000000E+00  0.00000000000E+00  0.99999998245E-14  0.12500000000E+03  0.12500000000E+03 0.  0.
        -13    1    3    3    0    0 -0.16674036098E+02  0.34749750375E+02  0.17964122464E+02  0.42523987241E+02  0.10566000000E+00 0. -1.
         23    2    1    0    0    0  0.91596271398E+01 -0.10096437628E+02  0.26709683364E+02  0.95012602522E+02  0.90156256746E+02 0.  0.
         13    1    3    3    0    0  0.25833663238E+02 -0.44846188003E+02  0.87455608995E+01  0.52488615281E+02  0.10566000000E+00 0.  1.
         22    1    1    0    0    0 -0.91596271398E+01  0.10096437628E+02 -0.26709683364E+02  0.29987397478E+02  0.00000000000E+00 0.  1.
</event>
<event>
 5    1  0.1751020E-003  0.9118800E+02  0.7818608E-02  0.1130116E+00
         25   -1    0    0    0    0  0.00000000000E+00  0.00000000000E+00  0.99999998245E-14  0.12500000000E+03  0.12500000000E+03 0.  0.
        -13    1    3    3    0    0  0.20890879250E+02  0.31373055077E+02  0.45703204505E+02  0.59240961224E+02  0.10566000000E+00 0.  1.
         23    2    1    0    0    0  0.13054732227E+02  0.23331684256E+02  0.10356008863E+02  0.96328752324E+02  0.91962971250E+02 0.  0.
         13    1    3    3    0    0 -0.78361470224E+01 -0.80413708216E+01 -0.35347195643E+02  0.37087791100E+02  0.10566000000E+00 0. -1.
         22    1    1    0    0    0 -0.13054732227E+02 -0.23331684256E+02 -0.10356008863E+02  0.28671247676E+02  0.00000000000E+00 0.  1.
</event>
<event>
 5    1  0.1751020E-003  0.9118800E+02  0.7818608E-02  0.1130116E+00
         25   -1    0    0    0    0  0.00000000000E+00  0.00000000000E+00  0.99999998245E-14  0.12500000000E+03  0.12500000000E+03 0.  0.
        -13    1    3    3    0    0 -0.32864630810E+02  0.26623723695E+01  0.11784400859E+00  0.32972674083E+02  0.10566000000E+00 0. -1.
         23    2    1    0    0    0  0.29075276366E+02 -0.49789320772E+01 -0.21484495268E+01  0.95423365713E+02  0.90723984856E+02 0.  0.
         13    1    3    3    0    0  0.61939907176E+02 -0.76413044466E+01 -0.22662935354E+01  0.62450691630E+02  0.10566000000E+00 0.  1.
         22    1    1    0    0    0 -0.29075276366E+02  0.49789320772E+01  0.21484495268E+01  0.29576634287E+02  0.00000000000E+00 0.  1.
</event>
<event>
 5    1  0.1751020E-003  0.9118800E+02  0.7818608E-02  0.1130116E+00
         25   -1    0    0    0    0  0.00000000000E+00  0.00000000000E+00  0.99999998245E-14  0.12500000000E+03  0.12500000000E+03 0.  0.
        -13    1    3    3    0    0  0.46377251340E+02 -0.10610011413E+02 -0.12738241265E+02  0.49251352658E+02  0.10566000000E+00 0. -1.
         23    2    1    0    0    0  0.62440971017E+01  0.16973370296E+02 -0.19485528732E+02  0.98414856070E+02  0.94756076415E+02 0.  0.
         13    1    3    3    0    0 -0.40133154239E+02  0.27583381708E+02 -0.67472874670E+01  0.49163503412E+02  0.10566000000E+00 0.  1.
         22    1    1    0    0    0 -0.62440971017E+01 -0.16973370296E+02  0.19485528732E+02  0.26585143930E+02  0.00000000000E+00 0.  1.
</event>
<event>
 5    1  0.1751020E-003  0.9118800E+02  0.7818608E-02  0.1130116E+00
         25   -1    0    0    0    0  0.00000000000E+00  0.00000000000E+00  0.99999998245E-14  0.12500000000E+03  0.12500000000E+03 0.  0.
        -13    1    3    3    0    0 -0.44452335861E+00  0.55103266129E+02 -0.51654114973E+01  0.55346726905E+02  0.10566000000E+00 0.  1.
         23    2    1    0    0    0 -0.13192073039E+02  0.17801849178E+02 -0.17624228658E+02  0.96688340547E+02  0.92450446926E+02 0.  0.
         13    1    3    3    0    0 -0.12747549680E+02 -0.37301416951E+02 -0.12458817160E+02  0.41341613642E+02  0.10566000000E+00 0. -1.
         22    1    1    0    0    0  0.13192073039E+02 -0.17801849178E+02  0.17624228658E+02  0.28311659453E+02  0.00000000000E+00 0.  1.
</event>
<event>
 5    1  0.1751020E-003  0.9118800E+02  0.7818608E-02  0.1130116E+00
         25   -1    0    0    0    0  0.00000000000E+00  0.00000000000E+00  0.99999998245E-14  0.12500000000E+03  0.12500000000E+03 0.  0.
        -13    1    3    3    0    0 -0.33709544656E+02  0.13264359075E+02  0.37278198418E+02  0.51980302653E+02  0.10566000000E+00 0.  1.
         23    2    1    0    0    0 -0.11162897084E+02 -0.19784660255E+02  0.15082571250E+02  0.97732308344E+02  0.93851356336E+02 0.  0.
         13    1    3    3    0    0  0.22546647572E+02 -0.33049019330E+02 -0.22195627168E+02  0.45752005692E+02  0.10566000000E+00 0. -1.
         22    1    1    0    0    0  0.11162897084E+02  0.19784660255E+02 -0.15082571250E+02  0.27267691656E+02  0.00000000000E+00 0.  1.
</event>
<event>
 5    1  0.1751020E-003  0.9118800E+02  0.7818608E-02  0.1130116E+00
         25   -1    0    0    0    0  0.00000000000E+00  0.00000000000E+00  0.99999998245E-14  0.12500000000E+03  0.12500000000E+03 0.  0.
        -13    1    3    3    0    0 -0.43021011339E+02  0.20333205356E+02 -0.36773168435E+02  0.60137540168E+02  0.10566000000E+00 0.  1.
         23    2    1    0    0    0 -0.21348369050E+02 -0.24798250408E+01 -0.19212118055E+02  0.96172792826E+02  0.91750739542E+02 0.  0.
         13    1    3    3    0    0  0.21672642289E+02 -0.22813030397E+02  0.17561050380E+02  0.36035252658E+02  0.10566000000E+00 0. -1.
         22    1    1    0    0    0  0.21348369050E+02  0.24798250408E+01  0.19212118055E+02  0.28827207174E+02  0.00000000000E+00 0.  1.
</event>
<event>
 5    1  0.1751020E-003  0.9118800E+02  0.7818608E-02  0.1130116E+00
         25   -1    0    0    0    0  0.00000000000E+00  0.00000000000E+00  0.99999998245E-14  0.12500000000E+03  0.12500000000E+03 0.  0.
        -13    1    3    3    0    0  0.84471139153E+01  0.15590592518E+02 -0.48534742377E+02  0.51672552580E+02  0.10566000000E+00 0. -1.
         23    2    1    0    0    0 -0.67330659638E+01  0.26509890552E+02 -0.77001153408E+01  0.96585210706E+02  0.92310902262E+02 0.  0.
         13    1    3    3    0    0 -0.15180179879E+02  0.10919298034E+02  0.40834627036E+02  0.44912658126E+02  0.10566000000E+00 0.  1.
         22    1    1    0    0    0  0.67330659638E+01 -0.26509890552E+02  0.77001153408E+01  0.28414789294E+02  0.00000000000E+00 0. -1.
</event>
<event>
 5    1  0.1751020E-003  0.9118800E+02  0.7818608E-02  0.1130116E+00
         25   -1    0    0    0    0  0.00000000000E+00  0.00000000000E+00  0.99999998245E-14  0.12500000000E+03  0.12500000000E+03 0.  0.
        -13    1    3    3    0    0 -0.30457123046E+02 -0.36402259035E+02 -0.15031162193E+02  0.49786622782E+02  0.10566000000E+00 0. -1.
         23    2    1    0    0    0  0.14605472925E+02 -0.21345531466E+02 -0.86659109104E+01  0.97722728053E+02  0.93838595542E+02 0.  0.
         13    1    3    3    0    0  0.45062595971E+02  0.15056727569E+02  0.63652512827E+01  0.47936105272E+02  0.10566000000E+00 0.  1.
         22    1    1    0    0    0 -0.14605472925E+02  0.21345531466E+02  0.86659109104E+01  0.27277271947E+02  0.00000000000E+00 0.  1.
</event>
<event>
 5    1  0.1751020E-003  0.9118800E+02  0.7818608E-02  0.1130116E+00
         25   -1    0    0    0    0  0.00000000000E+00  0.00000000000E+00  0.99999998245E-14  0.12500000000E+03  0.12500000000E+03 0.  0.
        -13    1    3    3    0    0 -0.10142556477E+02 -0.16465260045E+02  0.47867020307E+02  0.51625953138E+02  0.10566000000E+00 0.  1.
         23    2    1    0    0    0  0.65896554787E+01  0.16043695755E+02  0.24371661928E+02  0.95086764836E+02  0.90259022868E+02 0.  0.
         13    1    3    3    0    0  0.16732211955E+02  0.32508955800E+02 -0.23495358379E+02  0.43460811699E+02  0.10566000000E+00 0. -1.
         22    1    1    0    0    0 -0.65896554787E+01 -0.16043695755E+02 -0.24371661928E+02  0.29913235164E+02  0.00000000000E+00 0. -1.
</event>
<event>
 5    1  0.1751020E-003  0.9118800E+02  0.7818608E-02  0.1130116E+00
         25   -1    0    0    0    0  0.00000000000E+00  0.00000000000E+00  0.99999998245E-14  0.12500000000E+03  0.12500000000E+03 0.  0.
        -13    1    3    3    0    0 -0.14489433221E+02  0.42424236450E+02  0.14881051918E+02  0.47235753235E+02  0.10566000000E+00 0.  1.
         23    2    1    0    0    0 -0.60928439860E+01 -0.26511423563E+01  0.29029351454E+02  0.95219896752E+02  0.90443209740E+02 0.  0.
         13    1    3    3    0    0  0.83965892353E+01 -0.45075378806E+02  0.14148299536E+02  0.47984143517E+02  0.10566000000E+00 0. -1.
         22    1    1    0    0    0  0.60928439860E+01  0.26511423563E+01 -0.29029351454E+02  0.29780103248E+02  0.00000000000E+00 0. -1.
</event>
<event>
 5    1  0.1751020E-003  0.9118800E+02  0.7818608E-02  0.1130116E+00
         25   -1    0    0    0    0  0.00000000000E+00  0.00000000000E+00  0.99999998245E-14  0.12500000000E+03  0.12500000000E+03 0.  0.
        -13    1    3    3    0    0  0.31076716484E+02  0.29723936956E+02 -0.12573684210E+02  0.44803832808E+02  0.10566000000E+00 0.  1.
         23    2    1    0    0    0  0.18768895323E+01 -0.71740343745E+01 -0.29325809561E+02  0.94751155561E+02  0.89793033639E+02 0.  0.
         13    1    3    3    0    0 -0.29199826952E+02 -0.36897971331E+02 -0.16752125351E+02  0.49947322753E+02  0.10566000000E+00 0. -1.
         22    1    1    0    0    0 -0.18768895323E+01  0.71740343745E+01  0.29325809561E+02  0.30248844439E+02  0.00000000000E+00 0. -1.
</event>
<event>
 5    1  0.1751020E-003  0.9118800E+02  0.7818608E-02  0.1130116E+00
         25   -1    0    0    0    0  0.00000000000E+00  0.00000000000E+00  0.99999998245E-14  0.12500000000E+03  0.12500000000E+03 0.  0.
        -13    1    3    3    0    0 -0.29686967822E+02 -0.23479051457E+02 -0.76471063901E+01  0.38614392601E+02  0.10566000000E+00 0.  1.
         23    2    1    0    0    0  0.16893962131E+02  0.54975212583E+01 -0.23334893344E+02  0.95671755187E+02  0.91065574158E+02 0.  0.
         13    1    3    3    0    0  0.46580929953E+02  0.28976572715E+02 -0.15687786954E+02  0.57057362585E+02  0.10566000000E+00 0. -1.
         22    1    1    0    0    0 -0.16893962131E+02 -0.54975212583E+01  0.23334893344E+02  0.29328244813E+02  0.00000000000E+00 0.  1.
</event>
<event>
 5    1  0.1751020E-003  0.9118800E+02  0.7818608E-02  0.1130116E+00
         25   -1    0    0    0    0  0.00000000000E+00  0.00000000000E+00  0.99999998245E-14  0.12500000000E+03  0.12500000000E+03 0.  0.
        -13    1    3    3    0    0 -0.39621860526E+02 -0.12179524359E+02 -0.18667552732E+02  0.45461206915E+02  0.10566000000E+00 0. -1.
         23    2    1    0    0    0 -0.59224936367E+01  0.23997721529E+02 -0.17130359741E+02  0.94926493481E+02  0.90036788983E+02 0.  0.
         13    1    3    3    0    0  0.33699366889E+02  0.36177245889E+02  0.15371929905E+01  0.49465286567E+02  0.10566000000E+00 0.  1.
         22    1    1    0    0    0  0.59224936367E+01 -0.23997721529E+02  0.17130359741E+02  0.30073506519E+02  0.00000000000E+00 0.  1.
</event>
<event>
 5    1  0.1751020E-003  0.9118800E+02  0.7818608E-02  0.1130116E+00
         25   -1    0    0    0    0  0.00000000000E+00  0.00000000000E+00  0.99999998245E-14  0.12500000000E+03  0.12500000000E+03 0.  0.
        -13    1    3    3    0    0  0.46023083836E+02 -0.24502661943E+02 -0.30364940821E+02  0.60336932994E+02  0.10566000000E+00 0.  1.
         23    2    1    0    0    0  0.27077991697E+02 -0.19705019962E+02 -0.30236392810E+02  0.79880770217E+02  0.65918074565E+02 0.  0.
         13    1    3    3    0    0 -0.18945092140E+02  0.47976419813E+01  0.12854801054E+00  0.19543837223E+02  0.10566000000E+00 0. -1.
         22    1    1    0    0    0 -0.27077991697E+02  0.19705019962E+02  0.30236392810E+02  0.45119229783E+02  0.00000000000E+00 0.  1.
</event>
<event>
 5    1  0.1751020E-003  0.9118800E+02  0.7818608E-02  0.1130116E+00
         25   -1    0    0    0    0  0.00000000000E+00  0.00000000000E+00  0.99999998245E-14  0.12500000000E+03  0.12500000000E+03 0.  0.
        -13    1    3    3    0    0  0.15182265738E+02 -0.21132972188E+02 -0.26005860051E+02  0.36788851945E+02  0.10566000000E+00 0. -1.
         23    2    1    0    0    0 -0.28897835891E+02  0.91792731713E+01 -0.49608488688E+01  0.94276165659E+02  0.89129352150E+02 0.  0.
         13    1    3    3    0    0 -0.44080101628E+02  0.30312245360E+02  0.21045011182E+02  0.57487313714E+02  0.10566000000E+00 0.  1.
         22    1    1    0    0    0  0.28897835891E+02 -0.91792731713E+01  0.49608488688E+01  0.30723834341E+02  0.00000000000E+00 0.  1.
</event>
<event>
 5    1  0.1751020E-003  0.9118800E+02  0.7818608E-02  0.1130116E+00
         25   -1    0    0    0    0  0.00000000000E+00  0.00000000000E+00  0.99999998245E-14  0.12500000000E+03  0.12500000000E+03 0.  0.
        -13    1    3    3    0    0  0.22264723984E+02  0.19769790489E+02 -0.49157605539E+02  0.57472114077E+02  0.10566000000E+00 0.  1.
         23    2    1    0    0    0  0.22754598668E+02  0.15188660124E+02 -0.11645173881E+02  0.95266563743E+02  0.90507684402E+02 0.  0.
         13    1    3    3    0    0  0.48987468411E+00 -0.45811303645E+01  0.37512431659E+02  0.37794449667E+02  0.10566000000E+00 0. -1.
         22    1    1    0    0    0 -0.22754598668E+02 -0.15188660124E+02  0.11645173881E+02  0.29733436257E+02  0.00000000000E+00 0.  1.
</event>
<event>
 5    1  0.1751020E-003  0.9118800E+02  0.7818608E-02  0.1130116E+00
         25   -1    0    0    0    0  0.00000000000E+00  0.00000000000E+00  0.99999998245E-14  0.12500000000E+03  0.12500000000E+03 0.  0.
        -13    1    3    3    0    0 -0.36349680731E+02 -0.15403956204E+01  0.11611793012E+00  0.36382643600E+02  0.10566000000E+00 0. -1.
         23    2    1    0    0    0  0.19280445908E+02 -0.79065485316E+01  0.20305183300E+02  0.95904475035E+02  0.91384455783E+02 0.  0.
         13    1    3    3    0    0  0.55630126640E+02 -0.63661529112E+01  0.20189065370E+02  0.59521831435E+02  0.10566000000E+00 0.  1.
         22    1    1    0    0    0 -0.19280445908E+02  0.79065485316E+01 -0.20305183300E+02  0.29095524965E+02  0.00000000000E+00 0.  1.
</event>
<event>
 5    1  0.1751020E-003  0.9118800E+02  0.7818608E-02  0.1130116E+00
         25   -1    0    0    0    0  0.00000000000E+00  0.00000000000E+00  0.99999998245E-14  0.12500000000E+03  0.12500000000E+03 0.  0.
        -13    1    3    3    0    0  0.31627872257E+02 -0.79218448682E+01  0.18865697559E+02  0.37669664693E+02  0.10566000000E+00 0. -1.
         23    2    1    0    0    0 -0.93929393431E+01  0.28019879640E+02 -0.20492406019E+00  0.95446946716E+02  0.90756469075E+02 0.  0.
         13    1    3    3    0    0 -0.41020811600E+02  0.35941724508E+02 -0.19070621620E+02  0.57777282023E+02  0.10566000000E+00 0.  1.
         22    1    1    0    0    0  0.93929393431E+01 -0.28019879640E+02  0.20492406019E+00  0.29553053284E+02  0.00000000000E+00 0.  1.
</event>
<event>
 5    1  0.1751020E-003  0.9118800E+02  0.7818608E-02  0.1130116E+00
         25   -1    0    0    0    0  0.00000000000E+00  0.00000000000E+00  0.99999998245E-14  0.12500000000E+03  0.12500000000E+03 0.  0.
        -13    1    3    3    0    0 -0.49574998223E+02  0.25277360015E+02  0.12184179409E+02  0.56965698188E+02  0.10566000000E+00 0. -1.
         23    2    1    0    0    0 -0.12085434901E+02  0.26357015720E+02  0.91562333366E+01  0.94592983978E+02  0.89572573897E+02 0.  0.
         13    1    3    3    0    0  0.37489563322E+02  0.10796557052E+01 -0.30279460721E+01  0.37627285790E+02  0.10566000000E+00 0.  1.
         22    1    1    0    0    0  0.12085434901E+02 -0.26357015720E+02 -0.91562333366E+01  0.30407016022E+02  0.00000000000E+00 0. -1.
</event>
<event>
 5    1  0.1751020E-003  0.9118800E+02  0.7818608E-02  0.1130116E+00
         25   -1    0    0    0    0  0.00000000000E+00  0.00000000000E+00  0.99999998245E-14  0.12500000000E+03  0.12500000000E+03 0.  0.
        -13    1    3    3    0    0  0.92756058383E+01 -0.41134256672E+02 -0.16326689129E+02  0.45217650067E+02  0.10566000000E+00 0. -1.
         23    2    1    0    0    0  0.44931813987E+01 -0.17250374521E+02  0.25658459841E+02  0.93757070214E+02  0.88398345876E+02 0.  0.
         13    1    3    3    0    0 -0.47824244396E+01  0.23883882151E+02  0.41985148970E+02  0.48539420147E+02  0.10566000000E+00 0.  1.
         22    1    1    0    0    0 -0.44931813987E+01  0.17250374521E+02 -0.25658459841E+02  0.31242929786E+02  0.00000000000E+00 0. -1.
</event>
<event>
 5    1  0.1751020E-003  0.9118800E+02  0.7818608E-02  0.1130116E+00
         25   -1    0    0    0    0  0.00000000000E+00  0.00000000000E+00  0.99999998245E-14  0.12500000000E+03  0.12500000000E+03 0.  0.
        -13    1    3    3    0    0 -0.30267778298E+02 -0.15193309545E+02  0.25259611719E+02  0.42249665162E+02  0.10566000000E+00 0. -1.
         23    2    1    0    0    0  0.93246526305E+01 -0.27143126427E+02 -0.78707863315E+01  0.95240165720E+02  0.90471218793E+02 0.  0.
         13    1    3    3    0    0  0.39592430928E+02 -0.11949816882E+02 -0.33130398051E+02  0.52990500558E+02  0.10566000000E+00 0.  1.
         22    1    1    0    0    0 -0.93246526305E+01  0.27143126427E+02  0.78707863315E+01  0.29759834280E+02  0.00000000000E+00 0.  1.
</event>
<event>
 5    1  0.1751020E-003  0.9118800E+02  0.7818608E-02  0.1130116E+00
         25   -1    0    0    0    0  0.00000000000E+00  0.00000000000E+00  0.99999998245E-14  0.12500000000E+03  0.12500000000E+03 0.  0.
        -13    1    3    3    0    0 -0.61291756401E+02 -0.99246745343E+01  0.38360024005E+01  0.62208557657E+02  0.10566000000E+00 0.  1.
         23    2    1    0    0    0 -0.34963371446E+02 -0.97041345531E+01  0.87143914416E+00  0.88704449633E+02  0.80938942470E+02 0.  0.
         13    1    3    3    0    0  0.26328384955E+02  0.22053998114E+00 -0.29645632564E+01  0.26495891975E+02  0.10566000000E+00 0. -1.
         22    1    1    0    0    0  0.34963371446E+02  0.97041345531E+01 -0.87143914416E+00  0.36295550367E+02  0.00000000000E+00 0.  1.
</event>
<event>
 5    1  0.1751020E-003  0.9118800E+02  0.7818608E-02  0.1130116E+00
         25   -1    0    0    0    0  0.00000000000E+00  0.00000000000E+00  0.99999998245E-14  0.12500000000E+03  0.12500000000E+03 0.  0.
        -13    1    3    3    0    0 -0.32107531189E+02  0.97067338029E+01 -0.25129192271E+02  0.41911832558E+02  0.10566000000E+00 0. -1.
         23    2    1    0    0    0 -0.11040503663E+02 -0.27867250366E+02  0.51770812010E+01  0.94581608624E+02  0.89556697997E+02 0.  0.
         13    1    3    3    0    0  0.21067027525E+02 -0.37573984169E+02  0.30306273472E+02  0.52669776066E+02  0.10566000000E+00 0.  1.
         22    1    1    0    0    0  0.11040503663E+02  0.27867250366E+02 -0.51770812010E+01  0.30418391376E+02  0.00000000000E+00 0.  1.
</event>
<event>
 5    1  0.1751020E-003  0.9118800E+02  0.7818608E-02  0.1130116E+00
         25   -1    0    0    0    0  0.00000000000E+00  0.00000000000E+00  0.99999998245E-14  0.12500000000E+03  0.12500000000E+03 0.  0.
        -13    1    3    3    0    0  0.10049228223E+02 -0.58300748948E+02  0.50009014455E+01  0.59371579860E+02  0.10566000000E+00 0. -1.
         23    2    1    0    0    0  0.84849959924E+01 -0.27263817448E+02 -0.11091852127E+02  0.94367662799E+02  0.89257580628E+02 0.  0.
         13    1    3    3    0    0 -0.15642322310E+01  0.31036931500E+02 -0.16092753573E+02  0.34996082938E+02  0.10566000000E+00 0.  1.
         22    1    1    0    0    0 -0.84849959924E+01  0.27263817448E+02  0.11091852127E+02  0.30632337201E+02  0.00000000000E+00 0. -1.
</event>
<event>
 5    1  0.1751020E-003  0.9118800E+02  0.7818608E-02  0.1130116E+00
         25   -1    0    0    0    0  0.00000000000E+00  0.00000000000E+00  0.99999998245E-14  0.12500000000E+03  0.12500000000E+03 0.  0.
        -13    1    3    3    0    0 -0.51058913090E+02  0.11576966165E+02 -0.34859877997E+01  0.52470963651E+02  0.10566000000E+00 0.  1.
         23    2    1    0    0    0 -0.20204342700E+02 -0.18782124564E+02 -0.87111439750E+01  0.96071334347E+02  0.91612409568E+02 0.  0.
         13    1    3    3    0    0  0.30854570389E+02 -0.30359090729E+02 -0.52251561753E+01  0.43600370697E+02  0.10566000000E+00 0. -1.
         22    1    1    0    0    0  0.20204342700E+02  0.18782124564E+02  0.87111439750E+01  0.28928665653E+02  0.00000000000E+00 0. -1.
</event>
<event>
 5    1  0.1751020E-003  0.9118800E+02  0.7818608E-02  0.1130116E+00
         25   -1    0    0    0    0  0.00000000000E+00  0.00000000000E+00  0.99999998245E-14  0.12500000000E+03  0.12500000000E+03 0.  0.
        -13    1    3    3    0    0  0.27478436151E+02  0.83040250408E+01  0.20508728419E+02  0.35279461314E+02  0.10566000000E+00 0. -1.
         23    2    1    0    0    0 -0.24536057701E+02  0.11906569768E+02 -0.10307654984E+02  0.95844686892E+02  0.91302638095E+02 0.  0.
         13    1    3    3    0    0 -0.52014493852E+02  0.36025447271E+01 -0.30816383404E+02  0.60565225578E+02  0.10566000000E+00 0.  1.
         22    1    1    0    0    0  0.24536057701E+02 -0.11906569768E+02  0.10307654984E+02  0.29155313108E+02  0.00000000000E+00 0.  1.
</event>
<event>
 5    1  0.1751020E-003  0.9118800E+02  0.7818608E-02  0.1130116E+00
         25   -1    0    0    0    0  0.00000000000E+00  0.00000000000E+00  0.99999998245E-14  0.12500000000E+03  0.12500000000E+03 0.  0.
        -13    1    3    3    0    0  0.22754130460E+02 -0.24931011143E+02  0.15415201906E+02  0.37107214709E+02  0.10566000000E+00 0.  1.
         23    2    1    0    0    0 -0.27971370055E+02  0.50473593343E+00  0.13628773348E+02  0.93880942108E+02  0.88573334176E+02 0.  0.
         13    1    3    3    0    0 -0.50725500515E+02  0.25435747077E+02 -0.17864285576E+01  0.56773727399E+02  0.10566000000E+00 0. -1.
         22    1    1    0    0    0  0.27971370055E+02 -0.50473593343E+00 -0.13628773348E+02  0.31119057892E+02  0.00000000000E+00 0. -1.
</event>
<event>
 5    1  0.1751020E-003  0.9118800E+02  0.7818608E-02  0.1130116E+00
         25   -1    0    0    0    0  0.00000000000E+00  0.00000000000E+00  0.99999998245E-14  0.12500000000E+03  0.12500000000E+03 0.  0.
        -13    1    3    3    0    0 -0.11544441612E+02  0.10529593989E+02 -0.67552715501E+01  0.17023258779E+02  0.10566000000E+00 0.  1.
         23    2    1    0    0    0  0.11086377410E+02 -0.42557162555E+02 -0.20701292221E+02  0.76393793108E+02  0.58935967601E+02 0.  0.
         13    1    3    3    0    0  0.22630819021E+02 -0.53086756544E+02 -0.13946020671E+02  0.59370534329E+02  0.10566000000E+00 0. -1.
         22    1    1    0    0    0 -0.11086377410E+02  0.42557162555E+02  0.20701292221E+02  0.48606206892E+02  0.00000000000E+00 0. -1.
</event>
<event>
 5    1  0.1751020E-003  0.9118800E+02  0.7818608E-02  0.1130116E+00
         25   -1    0    0    0    0  0.00000000000E+00  0.00000000000E+00  0.99999998245E-14  0.12500000000E+03  0.12500000000E+03 0.  0.
        -13    1    3    3    0    0 -0.26888832517E+02  0.29144010666E+02  0.27245493132E+02  0.48111440759E+02  0.10566000000E+00 0. -1.
         23    2    1    0    0    0  0.14684486932E+02  0.12547050487E+02  0.25633260016E+02  0.92904413833E+02  0.87184307408E+02 0.  0.
         13    1    3    3    0    0  0.41573319449E+02 -0.16596960179E+02 -0.16122331162E+01  0.44792973074E+02  0.10566000000E+00 0.  1.
         22    1    1    0    0    0 -0.14684486932E+02 -0.12547050487E+02 -0.25633260016E+02  0.32095586167E+02  0.00000000000E+00 0.  1.
</event>
<event>
 5    1  0.1751020E-003  0.9118800E+02  0.7818608E-02  0.1130116E+00
         25   -1    0    0    0    0  0.00000000000E+00  0.00000000000E+00  0.99999998245E-14  0.12500000000E+03  0.12500000000E+03 0.  0.
        -13    1    3    3    0    0 -0.16662702879E+02  0.27415860426E+02 -0.34899375631E+02  0.47405196483E+02  0.10566000000E+00 0.  1.
         23    2    1    0    0    0 -0.17232696422E+01 -0.18343097417E+02 -0.20029474543E+02  0.97785688846E+02  0.93922426563E+02 0.  0.
         13    1    3    3    0    0  0.14939433237E+02 -0.45758957843E+02  0.14869901088E+02  0.50380492363E+02  0.10566000000E+00 0. -1.
         22    1    1    0    0    0  0.17232696422E+01  0.18343097417E+02  0.20029474543E+02  0.27214311154E+02  0.00000000000E+00 0. -1.
</event>
<event>
 5    1  0.1751020E-003  0.9118800E+02  0.7818608E-02  0.1130116E+00
         25   -1    0    0    0    0  0.00000000000E+00  0.00000000000E+00  0.99999998245E-14  0.12500000000E+03  0.12500000000E+03 0.  0.
        -13    1    3    3    0    0  0.36039317029E+02  0.29624676426E+01  0.11374106878E+02  0.37907651705E+02  0.10566000000E+00 0. -1.
         23    2    1    0    0    0 -0.84330580656E+01 -0.66837939957E+01 -0.26042721798E+02  0.96821764974E+02  0.92630671182E+02 0.  0.
         13    1    3    3    0    0 -0.44472375094E+02 -0.96462616382E+01 -0.37416828676E+02  0.58914113270E+02  0.10566000000E+00 0.  1.
         22    1    1    0    0    0  0.84330580656E+01  0.66837939957E+01  0.26042721798E+02  0.28178235026E+02  0.00000000000E+00 0.  1.
</event>
<event>
 5    1  0.1751020E-003  0.9118800E+02  0.7818608E-02  0.1130116E+00
         25   -1    0    0    0    0  0.00000000000E+00  0.00000000000E+00  0.99999998245E-14  0.12500000000E+03  0.12500000000E+03 0.  0.
        -13    1    3    3    0    0 -0.19846355287E+02 -0.40938443534E+02  0.17784046933E+01  0.45530296117E+02  0.10566000000E+00 0. -1.
         23    2    1    0    0    0  0.10764568061E+02 -0.11108243362E+02  0.26065200458E+02  0.94690534960E+02  0.89708604603E+02 0.  0.
         13    1    3    3    0    0  0.30610923347E+02  0.29830200173E+02  0.24286795765E+02  0.49160238843E+02  0.10566000000E+00 0.  1.
         22    1    1    0    0    0 -0.10764568061E+02  0.11108243362E+02 -0.26065200458E+02  0.30309465040E+02  0.00000000000E+00 0.  1.
</event>
<event>
 5    1  0.1751020E-003  0.9118800E+02  0.7818608E-02  0.1130116E+00
         25   -1    0    0    0    0  0.00000000000E+00  0.00000000000E+00  0.99999998245E-14  0.12500000000E+03  0.12500000000E+03 0.  0.
        -13    1    3    3    0    0 -0.28255197072E+02 -0.24023159672E+02 -0.27280121181E+02  0.46040031906E+02  0.10566000000E+00 0. -1.
         23    2    1    0    0    0  0.19973229096E+02 -0.10349819779E+02 -0.15921665962E+02  0.97440099837E+02  0.93461355433E+02 0.  0.
         13    1    3    3    0    0  0.48228426167E+02  0.13673339893E+02  0.11358455219E+02  0.51400067932E+02  0.10566000000E+00 0.  1.
         22    1    1    0    0    0 -0.19973229096E+02  0.10349819779E+02  0.15921665962E+02  0.27559900163E+02  0.00000000000E+00 0.  1.
</event>
<event>
 5    1  0.1751020E-003  0.9118800E+02  0.7818608E-02  0.1130116E+00
         25   -1    0    0    0    0  0.00000000000E+00  0.00000000000E+00  0.99999998245E-14  0.12500000000E+03  0.12500000000E+03 0.  0.
        -13    1    3    3    0    0 -0.27001931030E+02 -0.38851420441E+02 -0.16635106494E+02  0.50152518200E+02  0.10566000000E+00 0.  1.
         23    2    1    0    0    0 -0.30899700763E+01 -0.19440439702E+02  0.19267273744E+02  0.97455373512E+02  0.93481780995E+02 0.  0.
         13    1    3    3    0    0  0.23911960954E+02  0.19410980740E+02  0.35902380237E+02  0.47302855312E+02  0.10566000000E+00 0. -1.
         22    1    1    0    0    0  0.30899700763E+01  0.19440439702E+02 -0.19267273744E+02  0.27544626488E+02  0.00000000000E+00 0. -1.
</event>
<event>
 5    1  0.1751020E-003  0.9118800E+02  0.7818608E-02  0.1130116E+00
         25   -1    0    0    0    0  0.00000000000E+00  0.00000000000E+00  0.99999998245E-14  0.12500000000E+03  0.12500000000E+03 0.  0.
        -13    1    3    3    0    0 -0.29520814885E+02 -0.20170787869E+02 -0.35664422579E+02  0.50500508875E+02  0.10566000000E+00 0.  1.
         23    2    1    0    0    0 -0.26192104442E+02 -0.11056742333E+02  0.81883984178E+01  0.95414061537E+02  0.90711164606E+02 0.  0.
         13    1    3    3    0    0  0.33287104437E+01  0.91140455362E+01  0.43852820997E+02  0.44913552661E+02  0.10566000000E+00 0. -1.
         22    1    1    0    0    0  0.26192104442E+02  0.11056742333E+02 -0.81883984178E+01  0.29585938463E+02  0.00000000000E+00 0.  1.
</event>
<event>
 5    1  0.1751020E-003  0.9118800E+02  0.7818608E-02  0.1130116E+00
         25   -1    0    0    0    0  0.00000000000E+00  0.00000000000E+00  0.99999998245E-14  0.12500000000E+03  0.12500000000E+03 0.  0.
        -13    1    3    3    0    0 -0.13462010079E+02 -0.20876583666E+02  0.33592923467E+02  0.41779817281E+02  0.10566000000E+00 0. -1.
         23    2    1    0    0    0 -0.14077411770E+01 -0.22720836625E+02 -0.18739672158E+02  0.95514521120E+02  0.90849492459E+02 0.  0.
         13    1    3    3    0    0  0.12054268902E+02 -0.18442529599E+01 -0.52332595625E+02  0.53734703839E+02  0.10566000000E+00 0.  1.
         22    1    1    0    0    0  0.14077411770E+01  0.22720836625E+02  0.18739672158E+02  0.29485478880E+02  0.00000000000E+00 0.  1.
</event>
<event>
 5    1  0.1751020E-003  0.9118800E+02  0.7818608E-02  0.1130116E+00
         25   -1    0    0    0    0  0.00000000000E+00  0.00000000000E+00  0.99999998245E-14  0.12500000000E+03  0.12500000000E+03 0.  0.
        -13    1    3    3    0    0 -0.19967791923E+02  0.54041188025E+02 -0.47590073222E+00  0.57614237502E+02  0.10566000000E+00 0.  1.
         23    2    1    0    0    0  0.49906016196E+01  0.30660261386E+02 -0.86048084704E+01  0.92766469917E+02  0.86986306275E+02 0.  0.
         13    1    3    3    0    0  0.24958393543E+02 -0.23380926639E+02 -0.81289077382E+01  0.35152232415E+02  0.10566000000E+00 0. -1.
         22    1    1    0    0    0 -0.49906016196E+01 -0.30660261386E+02  0.86048084704E+01  0.32233530083E+02  0.00000000000E+00 0.  1.
</event>
<event>
 5    1  0.1751020E-003  0.9118800E+02  0.7818608E-02  0.1130116E+00
         25   -1    0    0    0    0  0.00000000000E+00  0.00000000000E+00  0.99999998245E-14  0.12500000000E+03  0.12500000000E+03 0.  0.
        -13    1    3    3    0    0  0.30572102763E+02  0.35646510655E+02 -0.10973122259E+02  0.48226007147E+02  0.10566000000E+00 0.  1.
         23    2    1    0    0    0  0.12523395826E+02 -0.89835028494E+01 -0.22499280842E+02  0.97728102287E+02  0.93845754149E+02 0.  0.
         13    1    3    3    0    0 -0.18048706937E+02 -0.44630013505E+02 -0.11526158583E+02  0.49502095140E+02  0.10566000000E+00 0. -1.
         22    1    1    0    0    0 -0.12523395826E+02  0.89835028494E+01  0.22499280842E+02  0.27271897713E+02  0.00000000000E+00 0. -1.
</event>
<event>
 5    1  0.1751020E-003  0.9118800E+02  0.7818608E-02  0.1130116E+00
         25   -1    0    0    0    0  0.00000000000E+00  0.00000000000E+00  0.99999998245E-14  0.12500000000E+03  0.12500000000E+03 0.  0.
        -13    1    3    3    0    0  0.30199723076E+02 -0.13139440966E+02  0.30535938500E+02  0.44912391240E+02  0.10566000000E+00 0. -1.
         23    2    1    0    0    0 -0.48191955587E+01 -0.28837851193E+02 -0.26427313641E+01  0.95643053014E+02  0.91026167960E+02 0.  0.
         13    1    3    3    0    0 -0.35018918635E+02 -0.15698410227E+02 -0.33178669864E+02  0.50730661774E+02  0.10566000000E+00 0.  1.
         22    1    1    0    0    0  0.48191955587E+01  0.28837851193E+02  0.26427313641E+01  0.29356946986E+02  0.00000000000E+00 0.  1.
</event>
<event>
 5    1  0.1751020E-003  0.9118800E+02  0.7818608E-02  0.1130116E+00
         25   -1    0    0    0    0  0.00000000000E+00  0.00000000000E+00  0.99999998245E-14  0.12500000000E+03  0.12500000000E+03 0.  0.
        -13    1    3    3    0    0  0.50717223103E+02 -0.90925806856E+01  0.88432779562E+01  0.52279312082E+02  0.10566000000E+00 0. -1.
         23    2    1    0    0    0  0.87988745338E+01 -0.24968896074E+02  0.87944221742E+01  0.97103623432E+02  0.93010245984E+02 0.  0.
         13    1    3    3    0    0 -0.41918348569E+02 -0.15876315389E+02 -0.48855782056E-01  0.44824311350E+02  0.10566000000E+00 0.  1.
         22    1    1    0    0    0 -0.87988745338E+01  0.24968896074E+02 -0.87944221742E+01  0.27896376568E+02  0.00000000000E+00 0.  1.
</event>
<event>
 5    1  0.1751020E-003  0.9118800E+02  0.7818608E-02  0.1130116E+00
         25   -1    0    0    0    0  0.00000000000E+00  0.00000000000E+00  0.99999998245E-14  0.12500000000E+03  0.12500000000E+03 0.  0.
        -13    1    3    3    0    0  0.14007356074E+02 -0.10689446044E+02  0.57548023528E+02  0.60185184697E+02  0.10566000000E+00 0.  1.
         23    2    1    0    0    0  0.15531482488E+02 -0.10282232641E+02  0.20366691186E+02  0.97400120178E+02  0.93407869285E+02 0.  0.
         13    1    3    3    0    0  0.15241264134E+01  0.40721340290E+00 -0.37181332342E+02  0.37214935481E+02  0.10566000000E+00 0. -1.
         22    1    1    0    0    0 -0.15531482488E+02  0.10282232641E+02 -0.20366691186E+02  0.27599879822E+02  0.00000000000E+00 0.  1.
</event>
<event>
 5    1  0.1751020E-003  0.9118800E+02  0.7818608E-02  0.1130116E+00
         25   -1    0    0    0    0  0.00000000000E+00  0.00000000000E+00  0.99999998245E-14  0.12500000000E+03  0.12500000000E+03 0.  0.
        -13    1    3    3    0    0 -0.17626878133E+02 -0.42743821198E+02 -0.39603338154E+02  0.60878375802E+02  0.10566000000E+00 0. -1.
         23    2    1    0    0    0 -0.10073704415E+01 -0.27258257784E+02 -0.17383834715E+02  0.92654596586E+02  0.86825394594E+02 0.  0.
         13    1    3    3    0    0  0.16619507692E+02  0.15485563414E+02  0.22219503439E+02  0.31776220783E+02  0.10566000000E+00 0.  1.
         22    1    1    0    0    0  0.10073704415E+01  0.27258257784E+02  0.17383834715E+02  0.32345403414E+02  0.00000000000E+00 0. -1.
</event>
<event>
 5    1  0.1751020E-003  0.9118800E+02  0.7818608E-02  0.1130116E+00
         25   -1    0    0    0    0  0.00000000000E+00  0.00000000000E+00  0.99999998245E-14  0.12500000000E+03  0.12500000000E+03 0.  0.
        -13    1    3    3    0    0  0.42446566055E+02  0.64681005879E+01  0.47812738072E+01  0.43202072153E+02  0.10566000000E+00 0. -1.
         23    2    1    0    0    0  0.46839471053E+01 -0.29102588378E+02 -0.16489201406E+01  0.95476806602E+02  0.90797586149E+02 0.  0.
         13    1    3    3    0    0 -0.37762618950E+02 -0.35570688966E+02 -0.64301939477E+01  0.52274734449E+02  0.10566000000E+00 0.  1.
         22    1    1    0    0    0 -0.46839471053E+01  0.29102588378E+02  0.16489201406E+01  0.29523193398E+02  0.00000000000E+00 0.  1.
</event>
<event>
 5    1  0.1751020E-003  0.9118800E+02  0.7818608E-02  0.1130116E+00
         25   -1    0    0    0    0  0.00000000000E+00  0.00000000000E+00  0.99999998245E-14  0.12500000000E+03  0.12500000000E+03 0.  0.
        -13    1    3    3    0    0  0.21014493716E+01 -0.25740814275E+02  0.30608423963E+02  0.40048625326E+02  0.10566000000E+00 0.  1.
         23    2    1    0    0    0  0.22505262673E+01  0.26523951116E+02  0.65409586939E+01  0.97588889262E+02  0.93660142619E+02 0.  0.
         13    1    3    3    0    0  0.14907689574E+00  0.52264765390E+02 -0.24067465269E+02  0.57540263935E+02  0.10566000000E+00 0. -1.
         22    1    1    0    0    0 -0.22505262673E+01 -0.26523951116E+02 -0.65409586939E+01  0.27411110738E+02  0.00000000000E+00 0. -1.
</event>
<event>
 5    1  0.1751020E-003  0.9118800E+02  0.7818608E-02  0.1130116E+00
         25   -1    0    0    0    0  0.00000000000E+00  0.00000000000E+00  0.99999998245E-14  0.12500000000E+03  0.12500000000E+03 0.  0.
        -13    1    3    3    0    0 -0.19259398866E+02  0.53412754773E+02 -0.68511238189E+01  0.57190872338E+02  0.10566000000E+00 0. -1.
         23    2    1    0    0    0 -0.11217405609E+02  0.15440370422E+02 -0.19205565047E+02  0.97924384474E+02  0.94106833537E+02 0.  0.
         13    1    3    3    0    0  0.80419932576E+01 -0.37972384351E+02 -0.12354441228E+02  0.40733512136E+02  0.10566000000E+00 0.  1.
         22    1    1    0    0    0  0.11217405609E+02 -0.15440370422E+02  0.19205565047E+02  0.27075615526E+02  0.00000000000E+00 0. -1.
</event>
<event>
 5    1  0.1751020E-003  0.9118800E+02  0.7818608E-02  0.1130116E+00
         25   -1    0    0    0    0  0.00000000000E+00  0.00000000000E+00  0.99999998245E-14  0.12500000000E+03  0.12500000000E+03 0.  0.
        -13    1    3    3    0    0  0.46831123326E+02  0.23798486862E+02 -0.23209097091E+02  0.57429917645E+02  0.10566000000E+00 0.  1.
         23    2    1    0    0    0  0.10768563251E+02  0.25155420923E+02 -0.94978674974E+01  0.96035079090E+02  0.91562927938E+02 0.  0.
         13    1    3    3    0    0 -0.36062560075E+02  0.13569340608E+01  0.13711229594E+02  0.38605161445E+02  0.10566000000E+00 0. -1.
         22    1    1    0    0    0 -0.10768563251E+02 -0.25155420923E+02  0.94978674974E+01  0.28964920910E+02  0.00000000000E+00 0.  1.
</event>
<event>
 5    1  0.1751020E-003  0.9118800E+02  0.7818608E-02  0.1130116E+00
         25   -1    0    0    0    0  0.00000000000E+00  0.00000000000E+00  0.99999998245E-14  0.12500000000E+03  0.12500000000E+03 0.  0.
        -13    1    3    3    0    0 -0.26856938358E+02  0.21426177323E+02 -0.33606087110E+02  0.48059925796E+02  0.10566000000E+00 0.  1.
         23    2    1    0    0    0 -0.24414688410E+02 -0.14897305883E+02 -0.19009481150E+01  0.96336079534E+02  0.91972930167E+02 0.  0.
         13    1    3    3    0    0  0.24422499479E+01 -0.36323483206E+02  0.31705138995E+02  0.48276153738E+02  0.10566000000E+00 0. -1.
         22    1    1    0    0    0  0.24414688410E+02  0.14897305883E+02  0.19009481150E+01  0.28663920466E+02  0.00000000000E+00 0.  1.
</event>
<event>
 5    1  0.1751020E-003  0.9118800E+02  0.7818608E-02  0.1130116E+00
         25   -1    0    0    0    0  0.00000000000E+00  0.00000000000E+00  0.99999998245E-14  0.12500000000E+03  0.12500000000E+03 0.  0.
        -13    1    3    3    0    0 -0.45983314459E+02  0.43146919367E+01  0.19355812358E+02  0.50077344291E+02  0.10566000000E+00 0. -1.
         23    2    1    0    0    0 -0.74631279309E+01 -0.12978534926E+02  0.28066103229E+02  0.93190460585E+02  0.87593465202E+02 0.  0.
         13    1    3    3    0    0  0.38520186528E+02 -0.17293226862E+02  0.87102908713E+01  0.43113116294E+02  0.10566000000E+00 0.  1.
         22    1    1    0    0    0  0.74631279309E+01  0.12978534926E+02 -0.28066103229E+02  0.31809539415E+02  0.00000000000E+00 0. -1.
</event>
<event>
 5    1  0.1751020E-003  0.9118800E+02  0.7818608E-02  0.1130116E+00
         25   -1    0    0    0    0  0.00000000000E+00  0.00000000000E+00  0.99999998245E-14  0.12500000000E+03  0.12500000000E+03 0.  0.
        -13    1    3    3    0    0  0.85240431283E+01 -0.34081989665E+02 -0.48798319901E+02  0.60129265088E+02  0.10566000000E+00 0. -1.
         23    2    1    0    0    0 -0.79906422827E+01 -0.17947960334E+02 -0.21795126306E+02  0.95657076238E+02  0.91045423056E+02 0.  0.
         13    1    3    3    0    0 -0.16514685411E+02  0.16134029331E+02  0.27003193596E+02  0.35527811150E+02  0.10566000000E+00 0.  1.
         22    1    1    0    0    0  0.79906422827E+01  0.17947960334E+02  0.21795126306E+02  0.29342923762E+02  0.00000000000E+00 0. -1.
</event>
<event>
 5    1  0.1751020E-003  0.9118800E+02  0.7818608E-02  0.1130116E+00
         25   -1    0    0    0    0  0.00000000000E+00  0.00000000000E+00  0.99999998245E-14  0.12500000000E+03  0.12500000000E+03 0.  0.
        -13    1    3    3    0    0  0.10588913217E+02  0.25842682166E+02  0.39579118280E+02  0.48440551942E+02  0.10566000000E+00 0.  1.
         23    2    1    0    0    0  0.20545557764E+02 -0.13706798876E+02  0.16432212312E+02  0.95334972093E+02  0.90602113790E+02 0.  0.
         13    1    3    3    0    0  0.99566445474E+01 -0.39549481042E+02 -0.23146905968E+02  0.46894420151E+02  0.10566000000E+00 0. -1.
         22    1    1    0    0    0 -0.20545557764E+02  0.13706798876E+02 -0.16432212312E+02  0.29665027907E+02  0.00000000000E+00 0.  1.
</event>
<event>
 5    1  0.1751020E-003  0.9118800E+02  0.7818608E-02  0.1130116E+00
         25   -1    0    0    0    0  0.00000000000E+00  0.00000000000E+00  0.99999998245E-14  0.12500000000E+03  0.12500000000E+03 0.  0.
        -13    1    3    3    0    0 -0.71277967902E+01  0.28896781067E+02 -0.14115186081E+02  0.32940538630E+02  0.10566000000E+00 0.  1.
         23    2    1    0    0    0 -0.68796741783E+01 -0.24182321245E+02  0.17170481878E+02  0.94554310230E+02  0.89518587777E+02 0.  0.
         13    1    3    3    0    0  0.24812261185E+00 -0.53079102312E+02  0.31285667959E+02  0.61613771600E+02  0.10566000000E+00 0. -1.
         22    1    1    0    0    0  0.68796741783E+01  0.24182321245E+02 -0.17170481878E+02  0.30445689770E+02  0.00000000000E+00 0. -1.
</event>
<event>
 5    1  0.1751020E-003  0.9118800E+02  0.7818608E-02  0.1130116E+00
         25   -1    0    0    0    0  0.00000000000E+00  0.00000000000E+00  0.99999998245E-14  0.12500000000E+03  0.12500000000E+03 0.  0.
        -13    1    3    3    0    0 -0.22782255204E+02 -0.23339265087E+02  0.19972346794E+02  0.38244715288E+02  0.10566000000E+00 0.  1.
         23    2    1    0    0    0  0.19724043148E+02  0.15076434758E+02  0.15543823276E+02  0.95709264175E+02  0.91117045847E+02 0.  0.
         13    1    3    3    0    0  0.42506298352E+02  0.38415699845E+02 -0.44285235186E+01  0.57464548887E+02  0.10566000000E+00 0. -1.
         22    1    1    0    0    0 -0.19724043148E+02 -0.15076434758E+02 -0.15543823276E+02  0.29290735825E+02  0.00000000000E+00 0. -1.
</event>
<event>
 5    1  0.1751020E-003  0.9118800E+02  0.7818608E-02  0.1130116E+00
         25   -1    0    0    0    0  0.00000000000E+00  0.00000000000E+00  0.99999998245E-14  0.12500000000E+03  0.12500000000E+03 0.  0.
        -13    1    3    3    0    0 -0.24896188307E+00  0.25790773469E+02 -0.19078674576E+02  0.32081660894E+02  0.10566000000E+00 0.  1.
         23    2    1    0    0    0  0.20633521795E+02  0.27334244036E+02  0.26141948228E+02  0.81915146793E+02  0.69669122991E+02 0.  0.
         13    1    3    3    0    0  0.20882483678E+02  0.15434705675E+01  0.45220622805E+02  0.49833485899E+02  0.10566000000E+00 0. -1.
         22    1    1    0    0    0 -0.20633521795E+02 -0.27334244036E+02 -0.26141948228E+02  0.43084853207E+02  0.00000000000E+00 0. -1.
</event>
<event>
 5    1  0.1751020E-003  0.9118800E+02  0.7818608E-02  0.1130116E+00
         25   -1    0    0    0    0  0.00000000000E+00  0.00000000000E+00  0.99999998245E-14  0.12500000000E+03  0.12500000000E+03 0.  0.
        -13    1    3    3    0    0 -0.21490346750E+02 -0.10785970555E+02 -0.44355118423E+02  0.50453541587E+02  0.10566000000E+00 0. -1.
         23    2    1    0    0    0  0.17606333551E+02 -0.10890185429E+02 -0.13177387217E+02  0.10045977478E+03  0.97416342038E+02 0.  0.
         13    1    3    3    0    0  0.39096680302E+02 -0.10421487401E+00  0.31177731206E+02  0.50006233197E+02  0.10566000000E+00 0.  1.
         22    1    1    0    0    0 -0.17606333551E+02  0.10890185429E+02  0.13177387217E+02  0.24540225216E+02  0.00000000000E+00 0.  1.
</event>
<event>
 5    1  0.1751020E-003  0.9118800E+02  0.7818608E-02  0.1130116E+00
         25   -1    0    0    0    0  0.00000000000E+00  0.00000000000E+00  0.99999998245E-14  0.12500000000E+03  0.12500000000E+03 0.  0.
        -13    1    3    3    0    0  0.32713789198E+02 -0.98845492765E+01 -0.11112240894E+02  0.35935906554E+02  0.10566000000E+00 0. -1.
         23    2    1    0    0    0 -0.17115307112E+02  0.20262004827E+02  0.81092512426E+01  0.97264778118E+02  0.93226576305E+02 0.  0.
         13    1    3    3    0    0 -0.49829096310E+02  0.30146554103E+02  0.19221492137E+02  0.61328871564E+02  0.10566000000E+00 0.  1.
         22    1    1    0    0    0  0.17115307112E+02 -0.20262004827E+02 -0.81092512426E+01  0.27735221882E+02  0.00000000000E+00 0.  1.
</event>
<event>
 5    1  0.1751020E-003  0.9118800E+02  0.7818608E-02  0.1130116E+00
         25   -1    0    0    0    0  0.00000000000E+00  0.00000000000E+00  0.99999998245E-14  0.12500000000E+03  0.12500000000E+03 0.  0.
        -13    1    3    3    0    0  0.30908706914E+02 -0.13300188908E+01 -0.38896068106E+02  0.49699420434E+02  0.10566000000E+00 0.  1.
         23    2    1    0    0    0  0.10794021086E+02 -0.23692678582E+02  0.12069266482E+00  0.98964092559E+02  0.95477867276E+02 0.  0.
         13    1    3    3    0    0 -0.20114685828E+02 -0.22362659691E+02  0.39016760771E+02  0.49264672124E+02  0.10566000000E+00 0. -1.
         22    1    1    0    0    0 -0.10794021086E+02  0.23692678582E+02 -0.12069266482E+00  0.26035907441E+02  0.00000000000E+00 0.  1.
</event>
<event>
 5    1  0.1751020E-003  0.9118800E+02  0.7818608E-02  0.1130116E+00
         25   -1    0    0    0    0  0.00000000000E+00  0.00000000000E+00  0.99999998245E-14  0.12500000000E+03  0.12500000000E+03 0.  0.
        -13    1    3    3    0    0  0.11680606323E+02 -0.25089587972E+02  0.50560932391E+02  0.57639769578E+02  0.10566000000E+00 0.  1.
         23    2    1    0    0    0  0.24686495141E+01  0.46458022635E+01  0.29047012381E+02  0.95480402487E+02  0.90802536427E+02 0.  0.
         13    1    3    3    0    0 -0.92119568093E+01  0.29735390235E+02 -0.21513920010E+02  0.37840632909E+02  0.10566000000E+00 0. -1.
         22    1    1    0    0    0 -0.24686495141E+01 -0.46458022635E+01 -0.29047012381E+02  0.29519597513E+02  0.00000000000E+00 0.  1.
</event>
<event>
 5    1  0.1751020E-003  0.9118800E+02  0.7818608E-02  0.1130116E+00
         25   -1    0    0    0    0  0.00000000000E+00  0.00000000000E+00  0.99999998245E-14  0.12500000000E+03  0.12500000000E+03 0.  0.
        -13    1    3    3    0    0 -0.91152181464E+01 -0.54236379221E+02  0.44189415497E+00  0.54998895146E+02  0.10566000000E+00 0. -1.
         23    2    1    0    0    0 -0.19927623490E+02 -0.14841102604E+02  0.11932485577E+02  0.97436387818E+02  0.93456390657E+02 0.  0.
         13    1    3    3    0    0 -0.10812405344E+02  0.39395276617E+02  0.11490591422E+02  0.42437492672E+02  0.10566000000E+00 0.  1.
         22    1    1    0    0    0  0.19927623490E+02  0.14841102604E+02 -0.11932485577E+02  0.27563612182E+02  0.00000000000E+00 0. -1.
</event>
<event>
 5    1  0.1751020E-003  0.9118800E+02  0.7818608E-02  0.1130116E+00
         25   -1    0    0    0    0  0.00000000000E+00  0.00000000000E+00  0.99999998245E-14  0.12500000000E+03  0.12500000000E+03 0.  0.
        -13    1    3    3    0    0  0.28682110375E+02 -0.50727679116E+02 -0.18610407107E+01  0.58304678377E+02  0.10566000000E+00 0. -1.
         23    2    1    0    0    0  0.13256045282E+02 -0.21569038665E+02 -0.16901729833E+02  0.94559654456E+02  0.89526049919E+02 0.  0.
         13    1    3    3    0    0 -0.15426065092E+02  0.29158640451E+02 -0.15040689123E+02  0.36254976080E+02  0.10566000000E+00 0.  1.
         22    1    1    0    0    0 -0.13256045282E+02  0.21569038665E+02  0.16901729833E+02  0.30440345544E+02  0.00000000000E+00 0. -1.
</event>
<event>
 5    1  0.1751020E-003  0.9118800E+02  0.7818608E-02  0.1130116E+00
         25   -1    0    0    0    0  0.00000000000E+00  0.00000000000E+00  0.99999998245E-14  0.12500000000E+03  0.12500000000E+03 0.  0.
        -13    1    3    3    0    0  0.15233354686E+02  0.20648340906E+01 -0.31962678545E+02  0.35467486782E+02  0.10566000000E+00 0. -1.
         23    2    1    0    0    0 -0.25630337475E+02 -0.16223919549E+01  0.12897835637E+02  0.96261515022E+02  0.91871533978E+02 0.  0.
         13    1    3    3    0    0 -0.40863692161E+02 -0.36872260454E+01  0.44860514182E+02  0.60794028240E+02  0.10566000000E+00 0.  1.
         22    1    1    0    0    0  0.25630337475E+02  0.16223919549E+01 -0.12897835637E+02  0.28738484978E+02  0.00000000000E+00 0.  1.
</event>
<event>
 5    1  0.1751020E-003  0.9118800E+02  0.7818608E-02  0.1130116E+00
         25   -1    0    0    0    0  0.00000000000E+00  0.00000000000E+00  0.99999998245E-14  0.12500000000E+03  0.12500000000E+03 0.  0.
        -13    1    3    3    0    0 -0.29976902032E+02 -0.11161574719E+02  0.10119269552E+02  0.33550054932E+02  0.10566000000E+00 0. -1.
         23    2    1    0    0    0  0.19470042669E+02  0.14452157094E+02 -0.16897950430E+02  0.95445167317E+02  0.90754018254E+02 0.  0.
         13    1    3    3    0    0  0.49446944700E+02  0.25613731813E+02 -0.27017219982E+02  0.61895112385E+02  0.10566000000E+00 0.  1.
         22    1    1    0    0    0 -0.19470042669E+02 -0.14452157094E+02  0.16897950430E+02  0.29554832683E+02  0.00000000000E+00 0.  1.
</event>
<event>
 5    1  0.1751020E-003  0.9118800E+02  0.7818608E-02  0.1130116E+00
         25   -1    0    0    0    0  0.00000000000E+00  0.00000000000E+00  0.99999998245E-14  0.12500000000E+03  0.12500000000E+03 0.  0.
        -13    1    3    3    0    0  0.14705115769E+02 -0.46230251402E+02  0.14258371049E+02  0.50564699974E+02  0.10566000000E+00 0.  1.
         23    2    1    0    0    0 -0.17952984666E+02 -0.26586293156E+02  0.16850145304E+02  0.88763719300E+02  0.81030425304E+02 0.  0.
         13    1    3    3    0    0 -0.32658100436E+02  0.19643958245E+02  0.25917742550E+01  0.38199019326E+02  0.10566000000E+00 0. -1.
         22    1    1    0    0    0  0.17952984666E+02  0.26586293156E+02 -0.16850145304E+02  0.36236280700E+02  0.00000000000E+00 0. -1.
</event>
<event>
 5    1  0.1751020E-003  0.9118800E+02  0.7818608E-02  0.1130116E+00
         25   -1    0    0    0    0  0.00000000000E+00  0.00000000000E+00  0.99999998245E-14  0.12500000000E+03  0.12500000000E+03 0.  0.
        -13    1    3    3    0    0  0.50279264991E+02 -0.32094672618E+02  0.14500738554E+01  0.59667297381E+02  0.10566000000E+00 0. -1.
         23    2    1    0    0    0  0.17848956597E+02 -0.16089350368E+02 -0.11858166873E+02  0.98203198541E+02  0.94476450162E+02 0.  0.
         13    1    3    3    0    0 -0.32430308395E+02  0.16005322250E+02 -0.13308240728E+02  0.38535901160E+02  0.10566000000E+00 0.  1.
         22    1    1    0    0    0 -0.17848956597E+02  0.16089350368E+02  0.11858166873E+02  0.26796801459E+02  0.00000000000E+00 0. -1.
</event>
<event>
 5    1  0.1751020E-003  0.9118800E+02  0.7818608E-02  0.1130116E+00
         25   -1    0    0    0    0  0.00000000000E+00  0.00000000000E+00  0.99999998245E-14  0.12500000000E+03  0.12500000000E+03 0.  0.
        -13    1    3    3    0    0 -0.14022158826E+01  0.42709380165E+02 -0.35689917344E+02  0.55676195339E+02  0.10566000000E+00 0. -1.
         23    2    1    0    0    0 -0.14478433364E+02  0.67020612271E+01 -0.24815931868E+02  0.95497913093E+02  0.90826638567E+02 0.  0.
         13    1    3    3    0    0 -0.13076217481E+02 -0.36007318938E+02  0.10873985475E+02  0.39821717754E+02  0.10566000000E+00 0.  1.
         22    1    1    0    0    0  0.14478433364E+02 -0.67020612271E+01  0.24815931868E+02  0.29502086907E+02  0.00000000000E+00 0. -1.
</event>
<event>
 5    1  0.1751020E-003  0.9118800E+02  0.7818608E-02  0.1130116E+00
         25   -1    0    0    0    0  0.00000000000E+00  0.00000000000E+00  0.99999998245E-14  0.12500000000E+03  0.12500000000E+03 0.  0.
        -13    1    3    3    0    0  0.38369995869E+02  0.28776341198E+02  0.32204022750E+02  0.57770620916E+02  0.10566000000E+00 0.  1.
         23    2    1    0    0    0  0.39090848706E+01  0.15072725356E+02  0.24996311747E+02  0.95550320967E+02  0.90898736194E+02 0.  0.
         13    1    3    3    0    0 -0.34460910998E+02 -0.13703615843E+02 -0.72077110029E+01  0.37779700051E+02  0.10566000000E+00 0. -1.
         22    1    1    0    0    0 -0.39090848706E+01 -0.15072725356E+02 -0.24996311747E+02  0.29449679033E+02  0.00000000000E+00 0.  1.
</event>
<event>
 5    1  0.1751020E-003  0.9118800E+02  0.7818608E-02  0.1130116E+00
         25   -1    0    0    0    0  0.00000000000E+00  0.00000000000E+00  0.99999998245E-14  0.12500000000E+03  0.12500000000E+03 0.  0.
        -13    1    3    3    0    0  0.19211040736E+02  0.25708637175E+02  0.38592820608E+02  0.50193775292E+02  0.10566000000E+00 0. -1.
         23    2    1    0    0    0  0.28126509612E+02  0.40036936083E+01 -0.13926847078E+01  0.96555849878E+02  0.92271135625E+02 0.  0.
         13    1    3    3    0    0  0.89154688762E+01 -0.21704943567E+02 -0.39985505316E+02  0.46362074586E+02  0.10566000000E+00 0.  1.
         22    1    1    0    0    0 -0.28126509612E+02 -0.40036936083E+01  0.13926847078E+01  0.28444150122E+02  0.00000000000E+00 0.  1.
</event>
<event>
 5    1  0.1751020E-003  0.9118800E+02  0.7818608E-02  0.1130116E+00
         25   -1    0    0    0    0  0.00000000000E+00  0.00000000000E+00  0.99999998245E-14  0.12500000000E+03  0.12500000000E+03 0.  0.
        -13    1    3    3    0    0  0.36938116314E+02  0.42702302616E+02  0.21044274132E+02  0.60255984959E+02  0.10566000000E+00 0. -1.
         23    2    1    0    0    0  0.16151871113E+02  0.16019245339E+02  0.20941272520E+02  0.94080167264E+02  0.88854047831E+02 0.  0.
         13    1    3    3    0    0 -0.20786245202E+02 -0.26683057277E+02 -0.10300161247E+00  0.33824182305E+02  0.10566000000E+00 0.  1.
         22    1    1    0    0    0 -0.16151871113E+02 -0.16019245339E+02 -0.20941272520E+02  0.30919832736E+02  0.00000000000E+00 0. -1.
</event>
<event>
 5    1  0.1751020E-003  0.9118800E+02  0.7818608E-02  0.1130116E+00
         25   -1    0    0    0    0  0.00000000000E+00  0.00000000000E+00  0.99999998245E-14  0.12500000000E+03  0.12500000000E+03 0.  0.
        -13    1    3    3    0    0  0.34993023066E+02  0.10401211789E+02  0.28782217128E+02  0.46487891507E+02  0.10566000000E+00 0.  1.
         23    2    1    0    0    0  0.23696223513E+02 -0.12767394491E+02 -0.12630357750E+02  0.95267134215E+02  0.90508472276E+02 0.  0.
         13    1    3    3    0    0 -0.11296799552E+02 -0.23168606280E+02 -0.41412574878E+02  0.48779242708E+02  0.10566000000E+00 0. -1.
         22    1    1    0    0    0 -0.23696223513E+02  0.12767394491E+02  0.12630357750E+02  0.29732865785E+02  0.00000000000E+00 0.  1.
</event>
<event>
 5    1  0.1751020E-003  0.9118800E+02  0.7818608E-02  0.1130116E+00
         25   -1    0    0    0    0  0.00000000000E+00  0.00000000000E+00  0.99999998245E-14  0.12500000000E+03  0.12500000000E+03 0.  0.
        -13    1    3    3    0    0 -0.98154256234E+01  0.24453467346E+02  0.23823445336E+02  0.35522983505E+02  0.10566000000E+00 0.  1.
         23    2    1    0    0    0  0.20986729895E+02  0.19132014358E+01 -0.21579122992E+02  0.94837743444E+02  0.89913490985E+02 0.  0.
         13    1    3    3    0    0  0.30802155518E+02 -0.22540265910E+02 -0.45402568328E+02  0.59314759939E+02  0.10566000000E+00 0. -1.
         22    1    1    0    0    0 -0.20986729895E+02 -0.19132014358E+01  0.21579122992E+02  0.30162256556E+02  0.00000000000E+00 0. -1.
</event>
<event>
 5    1  0.1751020E-003  0.9118800E+02  0.7818608E-02  0.1130116E+00
         25   -1    0    0    0    0  0.00000000000E+00  0.00000000000E+00  0.99999998245E-14  0.12500000000E+03  0.12500000000E+03 0.  0.
        -13    1    3    3    0    0  0.34629189282E+02  0.13404334782E+01  0.17855095278E+02  0.38984523900E+02  0.10566000000E+00 0. -1.
         23    2    1    0    0    0 -0.20357136002E+02 -0.12772802189E+02  0.16645111134E+02  0.95766163669E+02  0.91195070685E+02 0.  0.
         13    1    3    3    0    0 -0.54986325284E+02 -0.14113235667E+02 -0.12099841441E+01  0.56781639770E+02  0.10566000000E+00 0.  1.
         22    1    1    0    0    0  0.20357136002E+02  0.12772802189E+02 -0.16645111134E+02  0.29233836331E+02  0.00000000000E+00 0.  1.
</event>
<event>
 5    1  0.1751020E-003  0.9118800E+02  0.7818608E-02  0.1130116E+00
         25   -1    0    0    0    0  0.00000000000E+00  0.00000000000E+00  0.99999998245E-14  0.12500000000E+03  0.12500000000E+03 0.  0.
        -13    1    3    3    0    0 -0.81675624369E+00 -0.36032397618E+02 -0.44710116773E+02  0.57428272434E+02  0.10566000000E+00 0.  1.
         23    2    1    0    0    0 -0.16526203255E+01 -0.28433335184E+02 -0.73186623811E+01  0.95593393214E+02  0.90957947995E+02 0.  0.
         13    1    3    3    0    0 -0.83586408183E+00  0.75990624343E+01  0.37391454392E+02  0.38165120781E+02  0.10566000000E+00 0. -1.
         22    1    1    0    0    0  0.16526203255E+01  0.28433335184E+02  0.73186623811E+01  0.29406606786E+02  0.00000000000E+00 0.  1.
</event>
<event>
 5    1  0.1751020E-003  0.9118800E+02  0.7818608E-02  0.1130116E+00
         25   -1    0    0    0    0  0.00000000000E+00  0.00000000000E+00  0.99999998245E-14  0.12500000000E+03  0.12500000000E+03 0.  0.
        -13    1    3    3    0    0  0.28143200460E+02  0.31715917069E+02 -0.38313499766E+02  0.57147830720E+02  0.10566000000E+00 0.  1.
         23    2    1    0    0    0  0.26004515440E+02  0.10018559267E+02 -0.54213211462E+01  0.96609912363E+02  0.92344345202E+02 0.  0.
         13    1    3    3    0    0 -0.21386850202E+01 -0.21697357802E+02  0.32892178620E+02  0.39462081643E+02  0.10566000000E+00 0. -1.
         22    1    1    0    0    0 -0.26004515440E+02 -0.10018559267E+02  0.54213211462E+01  0.28390087637E+02  0.00000000000E+00 0.  1.
</event>
<event>
 5    1  0.1751020E-003  0.9118800E+02  0.7818608E-02  0.1130116E+00
         25   -1    0    0    0    0  0.00000000000E+00  0.00000000000E+00  0.99999998245E-14  0.12500000000E+03  0.12500000000E+03 0.  0.
        -13    1    3    3    0    0  0.58290996178E+01 -0.33257067002E+02  0.21458261936E+02  0.40005988018E+02  0.10566000000E+00 0.  1.
         23    2    1    0    0    0 -0.16734147907E+02  0.14553920604E+02  0.23203390949E+02  0.92902559874E+02  0.87181649264E+02 0.  0.
         13    1    3    3    0    0 -0.22563247525E+02  0.47810987607E+02  0.17451290129E+01  0.52896571856E+02  0.10566000000E+00 0. -1.
         22    1    1    0    0    0  0.16734147907E+02 -0.14553920604E+02 -0.23203390949E+02  0.32097440126E+02  0.00000000000E+00 0. -1.
</event>
<event>
 5    1  0.1751020E-003  0.9118800E+02  0.7818608E-02  0.1130116E+00
         25   -1    0    0    0    0  0.00000000000E+00  0.00000000000E+00  0.99999998245E-14  0.12500000000E+03  0.12500000000E+03 0.  0.
        -13    1    3    3    0    0  0.25730715126E+02 -0.13712103747E+01 -0.26434877177E+02  0.36915631028E+02  0.10566000000E+00 0.  1.
         23    2    1    0    0    0 -0.11359757160E+02 -0.27605398501E+02  0.82000310575E+01  0.94042890663E+02  0.88801591573E+02 0.  0.
         13    1    3    3    0    0 -0.37090472286E+02 -0.26234188126E+02  0.34634908234E+02  0.57127259636E+02  0.10566000000E+00 0. -1.
         22    1    1    0    0    0  0.11359757160E+02  0.27605398501E+02 -0.82000310575E+01  0.30957109337E+02  0.00000000000E+00 0. -1.
</event>
<event>
 5    1  0.1751020E-003  0.9118800E+02  0.7818608E-02  0.1130116E+00
         25   -1    0    0    0    0  0.00000000000E+00  0.00000000000E+00  0.99999998245E-14  0.12500000000E+03  0.12500000000E+03 0.  0.
        -13    1    3    3    0    0  0.16338120245E+02  0.28120741464E+02 -0.14621524223E+02  0.35658244604E+02  0.10566000000E+00 0.  1.
         23    2    1    0    0    0 -0.17986327548E+02 -0.13935275211E+01  0.23870210213E+02  0.95079491427E+02  0.90248949339E+02 0.  0.
         13    1    3    3    0    0 -0.34324447793E+02 -0.29514268985E+02  0.38491734436E+02  0.59421246823E+02  0.10566000000E+00 0. -1.
         22    1    1    0    0    0  0.17986327548E+02  0.13935275211E+01 -0.23870210213E+02  0.29920508573E+02  0.00000000000E+00 0.  1.
</event>
<event>
 5    1  0.1751020E-003  0.9118800E+02  0.7818608E-02  0.1130116E+00
         25   -1    0    0    0    0  0.00000000000E+00  0.00000000000E+00  0.99999998245E-14  0.12500000000E+03  0.12500000000E+03 0.  0.
        -13    1    3    3    0    0 -0.10970489080E+02 -0.22022706769E+02 -0.26441736699E+02  0.36118248127E+02  0.10566000000E+00 0.  1.
         23    2    1    0    0    0  0.15912624757E+02  0.22224826983E+01  0.22721250713E+02  0.97171843576E+02  0.93101884481E+02 0.  0.
         13    1    3    3    0    0  0.26883113837E+02  0.24245189468E+02  0.49162987412E+02  0.61053595449E+02  0.10566000000E+00 0. -1.
         22    1    1    0    0    0 -0.15912624757E+02 -0.22224826983E+01 -0.22721250713E+02  0.27828156424E+02  0.00000000000E+00 0. -1.
</event>
<event>
 5    1  0.1751020E-003  0.9118800E+02  0.7818608E-02  0.1130116E+00
         25   -1    0    0    0    0  0.00000000000E+00  0.00000000000E+00  0.99999998245E-14  0.12500000000E+03  0.12500000000E+03 0.  0.
        -13    1    3    3    0    0  0.54657445920E+02  0.73909795339E+01  0.23809978787E+02  0.60074863519E+02  0.10566000000E+00 0.  1.
         23    2    1    0    0    0  0.25284363238E+02  0.12834665843E+02  0.29906124640E+01  0.96487346062E+02  0.92178286573E+02 0.  0.
         13    1    3    3    0    0 -0.29373082681E+02  0.54436863086E+01 -0.20819366323E+02  0.36412482543E+02  0.10566000000E+00 0. -1.
         22    1    1    0    0    0 -0.25284363238E+02 -0.12834665843E+02 -0.29906124640E+01  0.28512653938E+02  0.00000000000E+00 0.  1.
</event>
<event>
 5    1  0.1751020E-003  0.9118800E+02  0.7818608E-02  0.1130116E+00
         25   -1    0    0    0    0  0.00000000000E+00  0.00000000000E+00  0.99999998245E-14  0.12500000000E+03  0.12500000000E+03 0.  0.
        -13    1    3    3    0    0  0.23205272696E+02  0.24021068566E+02 -0.18439235952E+02  0.38151186121E+02  0.10566000000E+00 0. -1.
         23    2    1    0    0    0 -0.28757417830E+02  0.46062259262E+01 -0.30555006723E+01  0.95716173715E+02  0.91126524288E+02 0.  0.
         13    1    3    3    0    0 -0.51962690526E+02 -0.19414842639E+02  0.15383735280E+02  0.57564987593E+02  0.10566000000E+00 0.  1.
         22    1    1    0    0    0  0.28757417830E+02 -0.46062259262E+01  0.30555006723E+01  0.29283826285E+02  0.00000000000E+00 0.  1.
</event>
<event>
 5    1  0.1751020E-003  0.9118800E+02  0.7818608E-02  0.1130116E+00
         25   -1    0    0    0    0  0.00000000000E+00  0.00000000000E+00  0.99999998245E-14  0.12500000000E+03  0.12500000000E+03 0.  0.
        -13    1    3    3    0    0  0.47694833188E+02  0.22518022658E+02 -0.33267434518E+02  0.62358574556E+02  0.10566000000E+00 0. -1.
         23    2    1    0    0    0  0.24162996021E+02  0.81480944404E+01 -0.16414389939E+02  0.94673872374E+02  0.89685383946E+02 0.  0.
         13    1    3    3    0    0 -0.23531837167E+02 -0.14369928218E+02  0.16853044579E+02  0.32315297818E+02  0.10566000000E+00 0.  1.
         22    1    1    0    0    0 -0.24162996021E+02 -0.81480944404E+01  0.16414389939E+02  0.30326127626E+02  0.00000000000E+00 0. -1.
</event>
<event>
 5    1  0.1751020E-003  0.9118800E+02  0.7818608E-02  0.1130116E+00
         25   -1    0    0    0    0  0.00000000000E+00  0.00000000000E+00  0.99999998245E-14  0.12500000000E+03  0.12500000000E+03 0.  0.
        -13    1    3    3    0    0 -0.14818269861E+02  0.32321623159E+02  0.43826225286E+02  0.56435960452E+02  0.10566000000E+00 0.  1.
         23    2    1    0    0    0 -0.26653067855E+01  0.28265979177E+02  0.65357390449E+01  0.95866079496E+02  0.91331921440E+02 0.  0.
         13    1    3    3    0    0  0.12152963075E+02 -0.40556439822E+01 -0.37290486241E+02  0.39430119043E+02  0.10566000000E+00 0. -1.
         22    1    1    0    0    0  0.26653067855E+01 -0.28265979177E+02 -0.65357390449E+01  0.29133920504E+02  0.00000000000E+00 0.  1.
</event>
<event>
 5    1  0.1751020E-003  0.9118800E+02  0.7818608E-02  0.1130116E+00
         25   -1    0    0    0    0  0.00000000000E+00  0.00000000000E+00  0.99999998245E-14  0.12500000000E+03  0.12500000000E+03 0.  0.
        -13    1    3    3    0    0 -0.78136112776E+01  0.26724112937E+02 -0.19661456553E+02  0.34085404080E+02  0.10566000000E+00 0.  1.
         23    2    1    0    0    0 -0.42767614178E+00 -0.10711195543E+02  0.27929303302E+02  0.95084141333E+02  0.90255389497E+02 0.  0.
         13    1    3    3    0    0  0.73859351358E+01 -0.37435308480E+02  0.47590759855E+02  0.60998737253E+02  0.10566000000E+00 0. -1.
         22    1    1    0    0    0  0.42767614178E+00  0.10711195543E+02 -0.27929303302E+02  0.29915858667E+02  0.00000000000E+00 0. -1.
</event>
<event>
 5    1  0.1751020E-003  0.9118800E+02  0.7818608E-02  0.1130116E+00
         25   -1    0    0    0    0  0.00000000000E+00  0.00000000000E+00  0.99999998245E-14  0.12500000000E+03  0.12500000000E+03 0.  0.
        -13    1    3    3    0    0  0.50997180853E+02 -0.20130924720E+02 -0.22614374580E+02  0.59307568545E+02  0.10566000000E+00 0. -1.
         23    2    1    0    0    0  0.30197425968E+02 -0.63081180031E+01  0.16213499294E+01  0.94108161864E+02  0.88893421950E+02 0.  0.
         13    1    3    3    0    0 -0.20799754885E+02  0.13822806717E+02  0.24235724510E+02  0.34800593319E+02  0.10566000000E+00 0.  1.
         22    1    1    0    0    0 -0.30197425968E+02  0.63081180031E+01 -0.16213499294E+01  0.30891838136E+02  0.00000000000E+00 0. -1.
</event>
<event>
 5    1  0.1751020E-003  0.9118800E+02  0.7818608E-02  0.1130116E+00
         25   -1    0    0    0    0  0.00000000000E+00  0.00000000000E+00  0.99999998245E-14  0.12500000000E+03  0.12500000000E+03 0.  0.
        -13    1    3    3    0    0 -0.15736063783E+02  0.29710340893E+02  0.26508204968E+02  0.42813831340E+02  0.10566000000E+00 0.  1.
         23    2    1    0    0    0  0.10161742779E+02  0.17092207310E+02 -0.19533759902E+02  0.97125776371E+02  0.93040013396E+02 0.  0.
         13    1    3    3    0    0  0.25897806562E+02 -0.12618133584E+02 -0.46041964870E+02  0.54311945030E+02  0.10566000000E+00 0. -1.
         22    1    1    0    0    0 -0.10161742779E+02 -0.17092207310E+02  0.19533759902E+02  0.27874223629E+02  0.00000000000E+00 0. -1.
</event>
<event>
 5    1  0.1751020E-003  0.9118800E+02  0.7818608E-02  0.1130116E+00
         25   -1    0    0    0    0  0.00000000000E+00  0.00000000000E+00  0.99999998245E-14  0.12500000000E+03  0.12500000000E+03 0.  0.
        -13    1    3    3    0    0 -0.51491071863E+02 -0.91907102092E+00 -0.20216871652E+02  0.55325475476E+02  0.10566000000E+00 0. -1.
         23    2    1    0    0    0 -0.20370884961E+02 -0.61419994923E+01  0.12124778890E+02  0.10051107648E+03  0.97482147703E+02 0.  0.
         13    1    3    3    0    0  0.31120186902E+02 -0.52229284714E+01  0.32341650542E+02  0.45185601008E+02  0.10566000000E+00 0.  1.
         22    1    1    0    0    0  0.20370884961E+02  0.61419994923E+01 -0.12124778890E+02  0.24488923517E+02  0.00000000000E+00 0. -1.
</event>
<event>
 5    1  0.1751020E-003  0.9118800E+02  0.7818608E-02  0.1130116E+00
         25   -1    0    0    0    0  0.00000000000E+00  0.00000000000E+00  0.99999998245E-14  0.12500000000E+03  0.12500000000E+03 0.  0.
        -13    1    3    3    0    0  0.40212145271E+02 -0.16209189481E+01 -0.14419422479E+01  0.40270763179E+02  0.10566000000E+00 0.  1.
         23    2    1    0    0    0 -0.36655159244E+01  0.27574219179E+02  0.12068521511E+02  0.94678014877E+02  0.89691157419E+02 0.  0.
         13    1    3    3    0    0 -0.43877661196E+02  0.29195138127E+02  0.13510463759E+02  0.54407251698E+02  0.10566000000E+00 0. -1.
         22    1    1    0    0    0  0.36655159244E+01 -0.27574219179E+02 -0.12068521511E+02  0.30321985123E+02  0.00000000000E+00 0. -1.
</event>
<event>
 5    1  0.1751020E-003  0.9118800E+02  0.7818608E-02  0.1130116E+00
         25   -1    0    0    0    0  0.00000000000E+00  0.00000000000E+00  0.99999998245E-14  0.12500000000E+03  0.12500000000E+03 0.  0.
        -13    1    3    3    0    0 -0.20832406389E+02  0.33338445858E+02 -0.31162027205E+01  0.39435555171E+02  0.10566000000E+00 0.  1.
         23    2    1    0    0    0 -0.54913221518E+01 -0.11998007366E+02  0.26272575907E+02  0.95600084277E+02  0.90967142801E+02 0.  0.
         13    1    3    3    0    0  0.15341084237E+02 -0.45336453224E+02  0.29388778627E+02  0.56164529107E+02  0.10566000000E+00 0. -1.
         22    1    1    0    0    0  0.54913221518E+01  0.11998007366E+02 -0.26272575907E+02  0.29399915723E+02  0.00000000000E+00 0. -1.
</event>
<event>
 5    1  0.1751020E-003  0.9118800E+02  0.7818608E-02  0.1130116E+00
         25   -1    0    0    0    0  0.00000000000E+00  0.00000000000E+00  0.99999998245E-14  0.12500000000E+03  0.12500000000E+03 0.  0.
        -13    1    3    3    0    0  0.47909406284E+02 -0.27436339089E+02 -0.10570743674E+02  0.56212237982E+02  0.10566000000E+00 0.  1.
         23    2    1    0    0    0  0.36498884734E+02 -0.83029643891E+00  0.33560456146E+01  0.88337743916E+02  0.80370616390E+02 0.  0.
         13    1    3    3    0    0 -0.11410521549E+02  0.26606042650E+02  0.13926789289E+02  0.32125505933E+02  0.10566000000E+00 0. -1.
         22    1    1    0    0    0 -0.36498884734E+02  0.83029643891E+00 -0.33560456146E+01  0.36662256084E+02  0.00000000000E+00 0.  1.
</event>
<event>
 5    1  0.1751020E-003  0.9118800E+02  0.7818608E-02  0.1130116E+00
         25   -1    0    0    0    0  0.00000000000E+00  0.00000000000E+00  0.99999998245E-14  0.12500000000E+03  0.12500000000E+03 0.  0.
        -13    1    3    3    0    0 -0.19877473711E+02 -0.18654413772E+02  0.23152277588E+02  0.35765070053E+02  0.10566000000E+00 0. -1.
         23    2    1    0    0    0  0.29317830969E+02 -0.18631869144E+02 -0.29265549147E+00  0.90261442060E+02  0.83308826153E+02 0.  0.
         13    1    3    3    0    0  0.49195304680E+02  0.22544628933E-01 -0.23444933080E+02  0.54496372007E+02  0.10566000000E+00 0.  1.
         22    1    1    0    0    0 -0.29317830969E+02  0.18631869144E+02  0.29265549147E+00  0.34738557940E+02  0.00000000000E+00 0.  1.
</event>
<event>
 5    1  0.1751020E-003  0.9118800E+02  0.7818608E-02  0.1130116E+00
         25   -1    0    0    0    0  0.00000000000E+00  0.00000000000E+00  0.99999998245E-14  0.12500000000E+03  0.12500000000E+03 0.  0.
        -13    1    3    3    0    0 -0.11225214102E+02 -0.21989237629E+02  0.25684226647E+02  0.35626151429E+02  0.10566000000E+00 0. -1.
         23    2    1    0    0    0 -0.15572130682E+01  0.22735843281E+02 -0.15702881673E+02  0.97324668474E+02  0.93306843899E+02 0.  0.
         13    1    3    3    0    0  0.96680010334E+01  0.44725080910E+02 -0.41387108320E+02  0.61698517045E+02  0.10566000000E+00 0.  1.
         22    1    1    0    0    0  0.15572130682E+01 -0.22735843281E+02  0.15702881673E+02  0.27675331526E+02  0.00000000000E+00 0.  1.
</event>
<event>
 5    1  0.1751020E-003  0.9118800E+02  0.7818608E-02  0.1130116E+00
         25   -1    0    0    0    0  0.00000000000E+00  0.00000000000E+00  0.99999998245E-14  0.12500000000E+03  0.12500000000E+03 0.  0.
        -13    1    3    3    0    0 -0.16455337799E+02 -0.15672888160E+01 -0.35061973042E+02  0.38763225536E+02  0.10566000000E+00 0. -1.
         23    2    1    0    0    0  0.26414812275E+02  0.17683583920E+02 -0.14646665168E+02  0.90000339311E+02  0.82916131288E+02 0.  0.
         13    1    3    3    0    0  0.42870150074E+02  0.19250872736E+02  0.20415307874E+02  0.51237113776E+02  0.10566000000E+00 0.  1.
         22    1    1    0    0    0 -0.26414812275E+02 -0.17683583920E+02  0.14646665168E+02  0.34999660689E+02  0.00000000000E+00 0.  1.
</event>
<event>
 5    1  0.1751020E-003  0.9118800E+02  0.7818608E-02  0.1130116E+00
         25   -1    0    0    0    0  0.00000000000E+00  0.00000000000E+00  0.99999998245E-14  0.12500000000E+03  0.12500000000E+03 0.  0.
        -13    1    3    3    0    0 -0.26721368876E+02 -0.23715078956E+02 -0.17500602985E+02  0.39783398465E+02  0.10566000000E+00 0.  1.
         23    2    1    0    0    0 -0.17479021082E+02  0.26105011642E+02  0.56708982120E+00  0.93578520059E+02  0.88145504790E+02 0.  0.
         13    1    3    3    0    0  0.92423477939E+01  0.49820090599E+02  0.18067692806E+02  0.53795121595E+02  0.10566000000E+00 0. -1.
         22    1    1    0    0    0  0.17479021082E+02 -0.26105011642E+02 -0.56708982120E+00  0.31421479941E+02  0.00000000000E+00 0. -1.
</event>
<event>
 5    1  0.1751020E-003  0.9118800E+02  0.7818608E-02  0.1130116E+00
         25   -1    0    0    0    0  0.00000000000E+00  0.00000000000E+00  0.99999998245E-14  0.12500000000E+03  0.12500000000E+03 0.  0.
        -13    1    3    3    0    0 -0.24191217912E+02 -0.56461814737E+01  0.27156086205E+02  0.36804328160E+02  0.10566000000E+00 0.  1.
         23    2    1    0    0    0  0.58853001803E+01 -0.23339498156E+02 -0.18765187441E+02  0.94479495547E+02  0.89414058664E+02 0.  0.
         13    1    3    3    0    0  0.30076518092E+02 -0.17693316682E+02 -0.45921273646E+02  0.57675167387E+02  0.10566000000E+00 0. -1.
         22    1    1    0    0    0 -0.58853001803E+01  0.23339498156E+02  0.18765187441E+02  0.30520504453E+02  0.00000000000E+00 0. -1.
</event>
<event>
 5    1  0.1751020E-003  0.9118800E+02  0.7818608E-02  0.1130116E+00
         25   -1    0    0    0    0  0.00000000000E+00  0.00000000000E+00  0.99999998245E-14  0.12500000000E+03  0.12500000000E+03 0.  0.
        -13    1    3    3    0    0 -0.34864530014E+02 -0.15363070225E+02 -0.15740102331E+02  0.41222825780E+02  0.10566000000E+00 0. -1.
         23    2    1    0    0    0 -0.70562551309E+01 -0.22353739958E+02  0.24797720929E+02  0.90876585900E+02  0.84226756289E+02 0.  0.
         13    1    3    3    0    0  0.27808274883E+02 -0.69906697324E+01  0.40537823261E+02  0.49653760120E+02  0.10566000000E+00 0.  1.
         22    1    1    0    0    0  0.70562551309E+01  0.22353739958E+02 -0.24797720929E+02  0.34123414100E+02  0.00000000000E+00 0.  1.
</event>
<event>
 5    1  0.1751020E-003  0.9118800E+02  0.7818608E-02  0.1130116E+00
         25   -1    0    0    0    0  0.00000000000E+00  0.00000000000E+00  0.99999998245E-14  0.12500000000E+03  0.12500000000E+03 0.  0.
        -13    1    3    3    0    0  0.25466559929E+02  0.24598065630E+02  0.22827941927E+02  0.42127622815E+02  0.10566000000E+00 0.  1.
         23    2    1    0    0    0  0.15549593985E+02 -0.84086534144E+01 -0.20784911388E+02  0.97714328545E+02  0.93827406104E+02 0.  0.
         13    1    3    3    0    0 -0.99169659444E+01 -0.33006719044E+02 -0.43612853315E+02  0.55586705730E+02  0.10566000000E+00 0. -1.
         22    1    1    0    0    0 -0.15549593985E+02  0.84086534144E+01  0.20784911388E+02  0.27285671455E+02  0.00000000000E+00 0. -1.
</event>
<event>
 5    1  0.1751020E-003  0.9118800E+02  0.7818608E-02  0.1130116E+00
         25   -1    0    0    0    0  0.00000000000E+00  0.00000000000E+00  0.99999998245E-14  0.12500000000E+03  0.12500000000E+03 0.  0.
        -13    1    3    3    0    0 -0.28840001144E+02 -0.11653879933E+02  0.39136837840E+02  0.49992617692E+02  0.10566000000E+00 0. -1.
         23    2    1    0    0    0 -0.48767895956E+01 -0.28493666821E+02  0.38722677105E+01  0.95833810964E+02  0.91287746938E+02 0.  0.
         13    1    3    3    0    0  0.23963211548E+02 -0.16839786888E+02 -0.35264570130E+02  0.45841193272E+02  0.10566000000E+00 0.  1.
         22    1    1    0    0    0  0.48767895956E+01  0.28493666821E+02 -0.38722677105E+01  0.29166189036E+02  0.00000000000E+00 0.  1.
</event>
<event>
 5    1  0.1751020E-003  0.9118800E+02  0.7818608E-02  0.1130116E+00
         25   -1    0    0    0    0  0.00000000000E+00  0.00000000000E+00  0.99999998245E-14  0.12500000000E+03  0.12500000000E+03 0.  0.
        -13    1    3    3    0    0  0.38235276867E+02 -0.22821577092E+02  0.11478562020E+00  0.44528475360E+02  0.10566000000E+00 0. -1.
         23    2    1    0    0    0  0.92725088765E+01  0.10325758614E+02  0.25952759729E+02  0.95569633890E+02  0.90925290610E+02 0.  0.
         13    1    3    3    0    0 -0.28962767991E+02  0.33147335706E+02  0.25837974108E+02  0.51041158531E+02  0.10566000000E+00 0.  1.
         22    1    1    0    0    0 -0.92725088765E+01 -0.10325758614E+02 -0.25952759729E+02  0.29430366110E+02  0.00000000000E+00 0. -1.
</event>
<event>
 5    1  0.1751020E-003  0.9118800E+02  0.7818608E-02  0.1130116E+00
         25   -1    0    0    0    0  0.00000000000E+00  0.00000000000E+00  0.99999998245E-14  0.12500000000E+03  0.12500000000E+03 0.  0.
        -13    1    3    3    0    0 -0.31963866935E+02 -0.22441577027E+02 -0.35775481085E+02  0.52964227359E+02  0.10566000000E+00 0. -1.
         23    2    1    0    0    0 -0.25259357209E+02  0.11343607404E+02 -0.11972194863E+02  0.94833031220E+02  0.89906939693E+02 0.  0.
         13    1    3    3    0    0  0.67045097263E+01  0.33785184431E+02  0.23803286221E+02  0.41868803860E+02  0.10566000000E+00 0.  1.
         22    1    1    0    0    0  0.25259357209E+02 -0.11343607404E+02  0.11972194863E+02  0.30166968780E+02  0.00000000000E+00 0.  1.
</event>
<event>
 5    1  0.1751020E-003  0.9118800E+02  0.7818608E-02  0.1130116E+00
         25   -1    0    0    0    0  0.00000000000E+00  0.00000000000E+00  0.99999998245E-14  0.12500000000E+03  0.12500000000E+03 0.  0.
        -13    1    3    3    0    0  0.22056744278E+02  0.17464350428E+01 -0.52791497964E+02  0.57240749688E+02  0.10566000000E+00 0.  1.
         23    2    1    0    0    0  0.39583657089E+01 -0.16025222134E+02 -0.26545942547E+02  0.93740385971E+02  0.88374750313E+02 0.  0.
         13    1    3    3    0    0 -0.18098378569E+02 -0.17771657177E+02  0.26245555417E+02  0.36499636283E+02  0.10566000000E+00 0. -1.
         22    1    1    0    0    0 -0.39583657089E+01  0.16025222134E+02  0.26545942547E+02  0.31259614029E+02  0.00000000000E+00 0.  1.
</event>
<event>
 5    1  0.1751020E-003  0.9118800E+02  0.7818608E-02  0.1130116E+00
         25   -1    0    0    0    0  0.00000000000E+00  0.00000000000E+00  0.99999998245E-14  0.12500000000E+03  0.12500000000E+03 0.  0.
        -13    1    3    3    0    0  0.20793817372E+02 -0.36750501903E+02  0.29379479983E+01  0.42327590688E+02  0.10566000000E+00 0. -1.
         23    2    1    0    0    0  0.20682715528E+02  0.15199979009E+02  0.14458690309E+02  0.95540403789E+02  0.90885097498E+02 0.  0.
         13    1    3    3    0    0 -0.11110184440E+00  0.51950480912E+02  0.11520742311E+02  0.53212813100E+02  0.10566000000E+00 0.  1.
         22    1    1    0    0    0 -0.20682715528E+02 -0.15199979009E+02 -0.14458690309E+02  0.29459596211E+02  0.00000000000E+00 0.  1.
</event>
<event>
 5    1  0.1751020E-003  0.9118800E+02  0.7818608E-02  0.1130116E+00
         25   -1    0    0    0    0  0.00000000000E+00  0.00000000000E+00  0.99999998245E-14  0.12500000000E+03  0.12500000000E+03 0.  0.
        -13    1    3    3    0    0 -0.13642974164E+02 -0.23052161402E+02  0.36761894652E+02  0.45486052277E+02  0.10566000000E+00 0. -1.
         23    2    1    0    0    0 -0.22245473872E+02 -0.74226219164E+01 -0.12885671015E+02  0.98241880832E+02  0.94527616112E+02 0.  0.
         13    1    3    3    0    0 -0.86024997089E+01  0.15629539486E+02 -0.49647565667E+02  0.52755828554E+02  0.10566000000E+00 0.  1.
         22    1    1    0    0    0  0.22245473872E+02  0.74226219164E+01  0.12885671015E+02  0.26758119168E+02  0.00000000000E+00 0.  1.
</event>
<event>
 5    1  0.1751020E-003  0.9118800E+02  0.7818608E-02  0.1130116E+00
         25   -1    0    0    0    0  0.00000000000E+00  0.00000000000E+00  0.99999998245E-14  0.12500000000E+03  0.12500000000E+03 0.  0.
        -13    1    3    3    0    0  0.42768999056E+01  0.24575238770E+02  0.40540590954E+02  0.47600261684E+02  0.10566000000E+00 0.  1.
         23    2    1    0    0    0 -0.14579004571E+02  0.23015056359E+02 -0.53475528182E+01  0.97236057293E+02  0.93188058909E+02 0.  0.
         13    1    3    3    0    0 -0.18855904477E+02 -0.15601824111E+01 -0.45888143773E+02  0.49635795609E+02  0.10566000000E+00 0. -1.
         22    1    1    0    0    0  0.14579004571E+02 -0.23015056359E+02  0.53475528182E+01  0.27763942707E+02  0.00000000000E+00 0. -1.
</event>
<event>
 5    1  0.1751020E-003  0.9118800E+02  0.7818608E-02  0.1130116E+00
         25   -1    0    0    0    0  0.00000000000E+00  0.00000000000E+00  0.99999998245E-14  0.12500000000E+03  0.12500000000E+03 0.  0.
        -13    1    3    3    0    0  0.35050826572E+02  0.51843009960E+01 -0.63256234278E+00  0.35437955914E+02  0.10566000000E+00 0.  1.
         23    2    1    0    0    0 -0.24183316357E+02  0.14465380631E+02 -0.76407117648E+01  0.95803073739E+02  0.91245648854E+02 0.  0.
         13    1    3    3    0    0 -0.59234142929E+02  0.92810796353E+01 -0.70081494220E+01  0.60365117825E+02  0.10566000000E+00 0. -1.
         22    1    1    0    0    0  0.24183316357E+02 -0.14465380631E+02  0.76407117648E+01  0.29196926261E+02  0.00000000000E+00 0. -1.
</event>
<event>
 5    1  0.1751020E-003  0.9118800E+02  0.7818608E-02  0.1130116E+00
         25   -1    0    0    0    0  0.00000000000E+00  0.00000000000E+00  0.99999998245E-14  0.12500000000E+03  0.12500000000E+03 0.  0.
        -13    1    3    3    0    0 -0.39470884315E+02 -0.27879886966E+02  0.44207480866E+01  0.48526209243E+02  0.10566000000E+00 0. -1.
         23    2    1    0    0    0  0.66862997503E+01 -0.25929282975E+02  0.12538191432E+02  0.95432440676E+02  0.90736487529E+02 0.  0.
         13    1    3    3    0    0  0.46157184065E+02  0.19506039908E+01  0.81174433458E+01  0.46906231433E+02  0.10566000000E+00 0.  1.
         22    1    1    0    0    0 -0.66862997503E+01  0.25929282975E+02 -0.12538191432E+02  0.29567559324E+02  0.00000000000E+00 0.  1.
</event>
<event>
 5    1  0.1751020E-003  0.9118800E+02  0.7818608E-02  0.1130116E+00
         25   -1    0    0    0    0  0.00000000000E+00  0.00000000000E+00  0.99999998245E-14  0.12500000000E+03  0.12500000000E+03 0.  0.
        -13    1    3    3    0    0 -0.31168017415E+02 -0.32103660662E+02 -0.42500375456E+02  0.61712101045E+02  0.10566000000E+00 0. -1.
         23    2    1    0    0    0 -0.15832151412E+02 -0.17091235818E+02 -0.12610181127E+02  0.98508793380E+02  0.94879915393E+02 0.  0.
         13    1    3    3    0    0  0.15335866002E+02  0.15012424845E+02  0.29890194329E+02  0.36796692335E+02  0.10566000000E+00 0.  1.
         22    1    1    0    0    0  0.15832151412E+02  0.17091235818E+02  0.12610181127E+02  0.26491206620E+02  0.00000000000E+00 0. -1.
</event>
<event>
 5    1  0.1751020E-003  0.9118800E+02  0.7818608E-02  0.1130116E+00
         25   -1    0    0    0    0  0.00000000000E+00  0.00000000000E+00  0.99999998245E-14  0.12500000000E+03  0.12500000000E+03 0.  0.
        -13    1    3    3    0    0  0.35174756058E+02 -0.12303590550E+02  0.30905457213E+02  0.48412810843E+02  0.10566000000E+00 0.  1.
         23    2    1    0    0    0 -0.94248738719E+01 -0.14877973428E+02  0.26333020470E+02  0.93320190848E+02  0.87778401170E+02 0.  0.
         13    1    3    3    0    0 -0.44599629930E+02 -0.25743828785E+01 -0.45724367430E+01  0.44907380005E+02  0.10566000000E+00 0. -1.
         22    1    1    0    0    0  0.94248738719E+01  0.14877973428E+02 -0.26333020470E+02  0.31679809152E+02  0.00000000000E+00 0. -1.
</event>
<event>
 5    1  0.1751020E-003  0.9118800E+02  0.7818608E-02  0.1130116E+00
         25   -1    0    0    0    0  0.00000000000E+00  0.00000000000E+00  0.99999998245E-14  0.12500000000E+03  0.12500000000E+03 0.  0.
        -13    1    3    3    0    0 -0.14889731005E+02 -0.30795999551E+02 -0.41412848479E+02  0.53713432779E+02  0.10566000000E+00 0.  1.
         23    2    1    0    0    0 -0.25187422670E+02 -0.15932601214E+02 -0.44449933744E+01  0.94866762399E+02  0.89953824820E+02 0.  0.
         13    1    3    3    0    0 -0.10297691665E+02  0.14863398337E+02  0.36967855105E+02  0.41153329620E+02  0.10566000000E+00 0. -1.
         22    1    1    0    0    0  0.25187422670E+02  0.15932601214E+02  0.44449933744E+01  0.30133237601E+02  0.00000000000E+00 0. -1.
</event>
<event>
 5    1  0.1751020E-003  0.9118800E+02  0.7818608E-02  0.1130116E+00
         25   -1    0    0    0    0  0.00000000000E+00  0.00000000000E+00  0.99999998245E-14  0.12500000000E+03  0.12500000000E+03 0.  0.
        -13    1    3    3    0    0 -0.29471576516E+02 -0.33755708874E+02 -0.39109371282E+02  0.59477523402E+02  0.10566000000E+00 0.  1.
         23    2    1    0    0    0 -0.25325507602E+01 -0.12080293873E+02 -0.25563084266E+02  0.96613055983E+02  0.92348600400E+02 0.  0.
         13    1    3    3    0    0  0.26939025755E+02  0.21675415002E+02  0.13546287016E+02  0.37135532581E+02  0.10566000000E+00 0. -1.
         22    1    1    0    0    0  0.25325507602E+01  0.12080293873E+02  0.25563084266E+02  0.28386944017E+02  0.00000000000E+00 0.  1.
</event>
<event>
 5    1  0.1751020E-003  0.9118800E+02  0.7818608E-02  0.1130116E+00
         25   -1    0    0    0    0  0.00000000000E+00  0.00000000000E+00  0.99999998245E-14  0.12500000000E+03  0.12500000000E+03 0.  0.
        -13    1    3    3    0    0  0.13462719323E+02  0.44244593829E+02  0.70937712356E+01  0.46788477738E+02  0.10566000000E+00 0. -1.
         23    2    1    0    0    0  0.25645837287E+02 -0.25355396982E+01  0.14083617562E+02  0.95631884375E+02  0.91010829541E+02 0.  0.
         13    1    3    3    0    0  0.12183117964E+02 -0.46780133527E+02  0.69898463268E+01  0.48843406637E+02  0.10566000000E+00 0.  1.
         22    1    1    0    0    0 -0.25645837287E+02  0.25355396982E+01 -0.14083617562E+02  0.29368115625E+02  0.00000000000E+00 0. -1.
</event>
<event>
 5    1  0.1751020E-003  0.9118800E+02  0.7818608E-02  0.1130116E+00
         25   -1    0    0    0    0  0.00000000000E+00  0.00000000000E+00  0.99999998245E-14  0.12500000000E+03  0.12500000000E+03 0.  0.
        -13    1    3    3    0    0  0.11924689260E+02  0.36747586630E+02  0.42010849295E+02  0.57074564909E+02  0.10566000000E+00 0. -1.
         23    2    1    0    0    0  0.20440514293E+02  0.17303677223E+02  0.82090865856E+01  0.96988913399E+02  0.92855954842E+02 0.  0.
         13    1    3    3    0    0  0.85158250333E+01 -0.19443909407E+02 -0.33801762709E+02  0.39914348489E+02  0.10566000000E+00 0.  1.
         22    1    1    0    0    0 -0.20440514293E+02 -0.17303677223E+02 -0.82090865856E+01  0.28011086601E+02  0.00000000000E+00 0. -1.
</event>
<event>
 5    1  0.1751020E-003  0.9118800E+02  0.7818608E-02  0.1130116E+00
         25   -1    0    0    0    0  0.00000000000E+00  0.00000000000E+00  0.99999998245E-14  0.12500000000E+03  0.12500000000E+03 0.  0.
        -13    1    3    3    0    0 -0.32704646684E+02 -0.58448793064E+01  0.29907385851E+02  0.44701447643E+02  0.10566000000E+00 0.  1.
         23    2    1    0    0    0 -0.15496027744E+02 -0.15221954437E+02 -0.18208845262E+02  0.96655744524E+02  0.92406364126E+02 0.  0.
         13    1    3    3    0    0  0.17208618940E+02 -0.93770751305E+01 -0.48116231113E+02  0.51954296881E+02  0.10566000000E+00 0. -1.
         22    1    1    0    0    0  0.15496027744E+02  0.15221954437E+02  0.18208845262E+02  0.28344255476E+02  0.00000000000E+00 0. -1.
</event>
<event>
 5    1  0.1751020E-003  0.9118800E+02  0.7818608E-02  0.1130116E+00
         25   -1    0    0    0    0  0.00000000000E+00  0.00000000000E+00  0.99999998245E-14  0.12500000000E+03  0.12500000000E+03 0.  0.
        -13    1    3    3    0    0  0.41273626987E+02  0.20057118667E+02  0.13473079925E+02  0.47826094766E+02  0.10566000000E+00 0. -1.
         23    2    1    0    0    0 -0.50735801838E+01  0.59210832720E+01  0.25984768181E+02  0.97870521192E+02  0.94035260929E+02 0.  0.
         13    1    3    3    0    0 -0.46347207171E+02 -0.14136035395E+02  0.12511688256E+02  0.50044426425E+02  0.10566000000E+00 0.  1.
         22    1    1    0    0    0  0.50735801838E+01 -0.59210832720E+01 -0.25984768181E+02  0.27129478808E+02  0.00000000000E+00 0. -1.
</event>
<event>
 5    1  0.1751020E-003  0.9118800E+02  0.7818608E-02  0.1130116E+00
         25   -1    0    0    0    0  0.00000000000E+00  0.00000000000E+00  0.99999998245E-14  0.12500000000E+03  0.12500000000E+03 0.  0.
        -13    1    3    3    0    0  0.18718672707E+01  0.56419043900E+01 -0.44755079852E+02  0.45148237051E+02  0.10566000000E+00 0. -1.
         23    2    1    0    0    0 -0.26246851514E+02 -0.12376538200E+02 -0.78136735553E+01  0.94947888482E+02  0.90066487223E+02 0.  0.
         13    1    3    3    0    0 -0.28118718785E+02 -0.18018442590E+02  0.36941406297E+02  0.49799651431E+02  0.10566000000E+00 0.  1.
         22    1    1    0    0    0  0.26246851514E+02  0.12376538200E+02  0.78136735553E+01  0.30052111518E+02  0.00000000000E+00 0.  1.
</event>
<event>
 5    1  0.1751020E-003  0.9118800E+02  0.7818608E-02  0.1130116E+00
         25   -1    0    0    0    0  0.00000000000E+00  0.00000000000E+00  0.99999998245E-14  0.12500000000E+03  0.12500000000E+03 0.  0.
        -13    1    3    3    0    0 -0.34324976057E+02 -0.62517730269E+01 -0.11995737936E+02  0.36894410688E+02  0.10566000000E+00 0. -1.
         23    2    1    0    0    0  0.19810913238E+02  0.19055432110E+02 -0.25718049549E+01  0.97392103359E+02  0.93397140426E+02 0.  0.
         13    1    3    3    0    0  0.54135889296E+02  0.25307205137E+02  0.94239329814E+01  0.60497692671E+02  0.10566000000E+00 0.  1.
         22    1    1    0    0    0 -0.19810913238E+02 -0.19055432110E+02  0.25718049549E+01  0.27607896641E+02  0.00000000000E+00 0.  1.
</event>
<event>
 5    1  0.1751020E-003  0.9118800E+02  0.7818608E-02  0.1130116E+00
         25   -1    0    0    0    0  0.00000000000E+00  0.00000000000E+00  0.99999998245E-14  0.12500000000E+03  0.12500000000E+03 0.  0.
        -13    1    3    3    0    0 -0.45893363202E+02  0.57573737366E+01  0.30324984579E+02  0.55307901714E+02  0.10566000000E+00 0. -1.
         23    2    1    0    0    0 -0.21524798094E+02 -0.16609841345E+02  0.41337992162E+01  0.97499235311E+02  0.93540412805E+02 0.  0.
         13    1    3    3    0    0  0.24368565107E+02 -0.22367215082E+02 -0.26191185362E+02  0.42191333596E+02  0.10566000000E+00 0.  1.
         22    1    1    0    0    0  0.21524798094E+02  0.16609841345E+02 -0.41337992162E+01  0.27500764689E+02  0.00000000000E+00 0. -1.
</event>
<event>
 5    1  0.1751020E-003  0.9118800E+02  0.7818608E-02  0.1130116E+00
         25   -1    0    0    0    0  0.00000000000E+00  0.00000000000E+00  0.99999998245E-14  0.12500000000E+03  0.12500000000E+03 0.  0.
        -13    1    3    3    0    0 -0.45915823177E+02 -0.34687091704E+01 -0.40929410758E+02  0.61607812738E+02  0.10566000000E+00 0.  1.
         23    2    1    0    0    0 -0.24048043034E+02  0.52349979652E+01 -0.17633808830E+02  0.94723527429E+02  0.89754564549E+02 0.  0.
         13    1    3    3    0    0  0.21867780142E+02  0.87037071356E+01  0.23295601929E+02  0.33115714691E+02  0.10566000000E+00 0. -1.
         22    1    1    0    0    0  0.24048043034E+02 -0.52349979652E+01  0.17633808830E+02  0.30276472571E+02  0.00000000000E+00 0.  1.
</event>
<event>
 5    1  0.1751020E-003  0.9118800E+02  0.7818608E-02  0.1130116E+00
         25   -1    0    0    0    0  0.00000000000E+00  0.00000000000E+00  0.99999998245E-14  0.12500000000E+03  0.12500000000E+03 0.  0.
        -13    1    3    3    0    0  0.38643867162E+02  0.31764864646E+02 -0.10996672546E+02  0.51218093154E+02  0.10566000000E+00 0.  1.
         23    2    1    0    0    0  0.18251383799E+02  0.22474458597E+01  0.19421119603E+02  0.98254086104E+02  0.94543754559E+02 0.  0.
         13    1    3    3    0    0 -0.20392483363E+02 -0.29517418786E+02  0.30417792150E+02  0.47035992950E+02  0.10566000000E+00 0. -1.
         22    1    1    0    0    0 -0.18251383799E+02 -0.22474458597E+01 -0.19421119603E+02  0.26745913896E+02  0.00000000000E+00 0.  1.
</event>
<event>
 5    1  0.1751020E-003  0.9118800E+02  0.7818608E-02  0.1130116E+00
         25   -1    0    0    0    0  0.00000000000E+00  0.00000000000E+00  0.99999998245E-14  0.12500000000E+03  0.12500000000E+03 0.  0.
        -13    1    3    3    0    0  0.21379396203E+02  0.35532850970E+02 -0.51245941827E+01  0.41784383562E+02  0.10566000000E+00 0.  1.
         23    2    1    0    0    0 -0.24852906340E+02  0.18131981530E+02  0.86040778204E+01  0.93055268621E+02  0.87400326974E+02 0.  0.
         13    1    3    3    0    0 -0.46232302543E+02 -0.17400869440E+02  0.13728672003E+02  0.51270885059E+02  0.10566000000E+00 0. -1.
         22    1    1    0    0    0  0.24852906340E+02 -0.18131981530E+02 -0.86040778204E+01  0.31944731379E+02  0.00000000000E+00 0. -1.
</event>
<event>
 5    1  0.1751020E-003  0.9118800E+02  0.7818608E-02  0.1130116E+00
         25   -1    0    0    0    0  0.00000000000E+00  0.00000000000E+00  0.99999998245E-14  0.12500000000E+03  0.12500000000E+03 0.  0.
        -13    1    3    3    0    0  0.24800085807E+02  0.47990503332E+02  0.67440668029E+01  0.54439197892E+02  0.10566000000E+00 0.  1.
         23    2    1    0    0    0  0.76422080173E+01  0.18703129095E+02 -0.19173631928E+02  0.97146121587E+02  0.93067343342E+02 0.  0.
         13    1    3    3    0    0 -0.17157877790E+02 -0.29287374237E+02 -0.25917698731E+02  0.42706923695E+02  0.10566000000E+00 0. -1.
         22    1    1    0    0    0 -0.76422080173E+01 -0.18703129095E+02  0.19173631928E+02  0.27853878413E+02  0.00000000000E+00 0.  1.
</event>
<event>
 5    1  0.1751020E-003  0.9118800E+02  0.7818608E-02  0.1130116E+00
         25   -1    0    0    0    0  0.00000000000E+00  0.00000000000E+00  0.99999998245E-14  0.12500000000E+03  0.12500000000E+03 0.  0.
        -13    1    3    3    0    0 -0.20462025810E+02  0.43449740380E+02  0.19498500560E+02  0.51834130913E+02  0.10566000000E+00 0.  1.
         23    2    1    0    0    0  0.12124007914E+02  0.25021641391E+02 -0.52409884985E+01  0.96706147907E+02  0.92474520690E+02 0.  0.
         13    1    3    3    0    0  0.32586033724E+02 -0.18428098989E+02 -0.24739489059E+02  0.44872016994E+02  0.10566000000E+00 0. -1.
         22    1    1    0    0    0 -0.12124007914E+02 -0.25021641391E+02  0.52409884985E+01  0.28293852093E+02  0.00000000000E+00 0.  1.
</event>
<event>
 5    1  0.1751020E-003  0.9118800E+02  0.7818608E-02  0.1130116E+00
         25   -1    0    0    0    0  0.00000000000E+00  0.00000000000E+00  0.99999998245E-14  0.12500000000E+03  0.12500000000E+03 0.  0.
        -13    1    3    3    0    0  0.41166795892E+02  0.30492059817E+02 -0.34631496630E+02  0.61837064280E+02  0.10566000000E+00 0.  1.
         23    2    1    0    0    0  0.17480278577E+02  0.19506783497E+02 -0.12924981698E+02  0.95791612618E+02  0.91229946589E+02 0.  0.
         13    1    3    3    0    0 -0.23686517315E+02 -0.10985276320E+02  0.21706514932E+02  0.33954548338E+02  0.10566000000E+00 0. -1.
         22    1    1    0    0    0 -0.17480278577E+02 -0.19506783497E+02  0.12924981698E+02  0.29208387382E+02  0.00000000000E+00 0.  1.
</event>
<event>
 5    1  0.1751020E-003  0.9118800E+02  0.7818608E-02  0.1130116E+00
         25   -1    0    0    0    0  0.00000000000E+00  0.00000000000E+00  0.99999998245E-14  0.12500000000E+03  0.12500000000E+03 0.  0.
        -13    1    3    3    0    0  0.80631631462E+01 -0.26045033191E+02 -0.23292694199E+02  0.35859714457E+02  0.10566000000E+00 0.  1.
         23    2    1    0    0    0 -0.17506007743E+02  0.30458831218E+01  0.22818769337E+02  0.96078832231E+02  0.91622639438E+02 0.  0.
         13    1    3    3    0    0 -0.25569170889E+02  0.29090916313E+02  0.46111463536E+02  0.60219117773E+02  0.10566000000E+00 0. -1.
         22    1    1    0    0    0  0.17506007743E+02 -0.30458831218E+01 -0.22818769337E+02  0.28921167769E+02  0.00000000000E+00 0. -1.
</event>
<event>
 5    1  0.1751020E-003  0.9118800E+02  0.7818608E-02  0.1130116E+00
         25   -1    0    0    0    0  0.00000000000E+00  0.00000000000E+00  0.99999998245E-14  0.12500000000E+03  0.12500000000E+03 0.  0.
        -13    1    3    3    0    0  0.22820683384E+02  0.41590829760E+02  0.11243020321E+02  0.48754460106E+02  0.10566000000E+00 0. -1.
         23    2    1    0    0    0 -0.38560630014E+01  0.10612887480E+02  0.29414556836E+02  0.93492560301E+02  0.88023520011E+02 0.  0.
         13    1    3    3    0    0 -0.26676746386E+02 -0.30977942281E+02  0.18171536515E+02  0.44738100195E+02  0.10566000000E+00 0.  1.
         22    1    1    0    0    0  0.38560630014E+01 -0.10612887480E+02 -0.29414556836E+02  0.31507439699E+02  0.00000000000E+00 0. -1.
</event>
<event>
 5    1  0.1751020E-003  0.9118800E+02  0.7818608E-02  0.1130116E+00
         25   -1    0    0    0    0  0.00000000000E+00  0.00000000000E+00  0.99999998245E-14  0.12500000000E+03  0.12500000000E+03 0.  0.
        -13    1    3    3    0    0 -0.39738082183E+02  0.10850145334E+02  0.18369627606E+02  0.45103161882E+02  0.10566000000E+00 0. -1.
         23    2    1    0    0    0 -0.14700961875E+02  0.86487918247E+00 -0.24893714989E+02  0.96076595256E+02  0.91619587502E+02 0.  0.
         13    1    3    3    0    0  0.25037120308E+02 -0.99852661511E+01 -0.43263342594E+02  0.50973433374E+02  0.10566000000E+00 0.  1.
         22    1    1    0    0    0  0.14700961875E+02 -0.86487918247E+00  0.24893714989E+02  0.28923404744E+02  0.00000000000E+00 0.  1.
</event>
<event>
 5    1  0.1751020E-003  0.9118800E+02  0.7818608E-02  0.1130116E+00
         25   -1    0    0    0    0  0.00000000000E+00  0.00000000000E+00  0.99999998245E-14  0.12500000000E+03  0.12500000000E+03 0.  0.
        -13    1    3    3    0    0 -0.36131546841E+02 -0.47812579817E+02  0.86293792534E+01  0.60547574817E+02  0.10566000000E+00 0.  1.
         23    2    1    0    0    0 -0.16861099948E+02 -0.20781811497E+02  0.14957515473E+02  0.94342086671E+02  0.89221755575E+02 0.  0.
         13    1    3    3    0    0  0.19270446893E+02  0.27030768320E+02  0.63281362196E+01  0.33794511854E+02  0.10566000000E+00 0. -1.
         22    1    1    0    0    0  0.16861099948E+02  0.20781811497E+02 -0.14957515473E+02  0.30657913329E+02  0.00000000000E+00 0.  1.
</event>
<event>
 5    1  0.1751020E-003  0.9118800E+02  0.7818608E-02  0.1130116E+00
         25   -1    0    0    0    0  0.00000000000E+00  0.00000000000E+00  0.99999998245E-14  0.12500000000E+03  0.12500000000E+03 0.  0.
        -13    1    3    3    0    0  0.17706072693E+02  0.34742312882E+00  0.41699694384E+02  0.45304540487E+02  0.10566000000E+00 0.  1.
         23    2    1    0    0    0 -0.17365653153E+02  0.20941894256E+02  0.18034923188E+02  0.92359728879E+02  0.86399839234E+02 0.  0.
         13    1    3    3    0    0 -0.35071725846E+02  0.20594471127E+02 -0.23664771196E+02  0.47055188392E+02  0.10566000000E+00 0. -1.
         22    1    1    0    0    0  0.17365653153E+02 -0.20941894256E+02 -0.18034923188E+02  0.32640271121E+02  0.00000000000E+00 0.  1.
</event>
<event>
 5    1  0.1751020E-003  0.9118800E+02  0.7818608E-02  0.1130116E+00
         25   -1    0    0    0    0  0.00000000000E+00  0.00000000000E+00  0.99999998245E-14  0.12500000000E+03  0.12500000000E+03 0.  0.
        -13    1    3    3    0    0 -0.23470748848E+02 -0.50842901019E+02 -0.23855690852E+01  0.56049788041E+02  0.10566000000E+00 0. -1.
         23    2    1    0    0    0 -0.23213718804E+02 -0.36583101587E+02  0.15552181699E+02  0.78966637989E+02  0.64161199313E+02 0.  0.
         13    1    3    3    0    0  0.25703004321E+00  0.14259799433E+02  0.17937750784E+02  0.22916849948E+02  0.10566000000E+00 0.  1.
         22    1    1    0    0    0  0.23213718804E+02  0.36583101587E+02 -0.15552181699E+02  0.46033362011E+02  0.00000000000E+00 0. -1.
</event>
<event>
 5    1  0.1751020E-003  0.9118800E+02  0.7818608E-02  0.1130116E+00
         25   -1    0    0    0    0  0.00000000000E+00  0.00000000000E+00  0.99999998245E-14  0.12500000000E+03  0.12500000000E+03 0.  0.
        -13    1    3    3    0    0  0.38552671406E+02  0.36216317467E+02 -0.95915477338E+01  0.53758153572E+02  0.10566000000E+00 0.  1.
         23    2    1    0    0    0  0.27422387440E+02  0.47805592379E+01  0.13242433439E+02  0.94174635072E+02  0.88986846039E+02 0.  0.
         13    1    3    3    0    0 -0.11130283966E+02 -0.31435758230E+02  0.22833981173E+02  0.40416481500E+02  0.10566000000E+00 0. -1.
         22    1    1    0    0    0 -0.27422387440E+02 -0.47805592379E+01 -0.13242433439E+02  0.30825364928E+02  0.00000000000E+00 0. -1.
</event>
<event>
 5    1  0.1751020E-003  0.9118800E+02  0.7818608E-02  0.1130116E+00
         25   -1    0    0    0    0  0.00000000000E+00  0.00000000000E+00  0.99999998245E-14  0.12500000000E+03  0.12500000000E+03 0.  0.
        -13    1    3    3    0    0 -0.51612476279E+02 -0.68903759044E+01  0.17849481827E+01  0.52101076686E+02  0.10566000000E+00 0. -1.
         23    2    1    0    0    0 -0.16298718032E+02  0.12772623238E+02  0.19797018429E+02  0.96351962501E+02  0.91994514104E+02 0.  0.
         13    1    3    3    0    0  0.35313758247E+02  0.19662999142E+02  0.18012070247E+02  0.44250885815E+02  0.10566000000E+00 0.  1.
         22    1    1    0    0    0  0.16298718032E+02 -0.12772623238E+02 -0.19797018429E+02  0.28648037499E+02  0.00000000000E+00 0. -1.
</event>
<event>
 5    1  0.1751020E-003  0.9118800E+02  0.7818608E-02  0.1130116E+00
         25   -1    0    0    0    0  0.00000000000E+00  0.00000000000E+00  0.99999998245E-14  0.12500000000E+03  0.12500000000E+03 0.  0.
        -13    1    3    3    0    0  0.14882249632E+02  0.47591108426E+02 -0.34705310913E+02  0.60752487398E+02  0.10566000000E+00 0.  1.
         23    2    1    0    0    0  0.17143248202E+02  0.20231864947E+02 -0.15136065379E+02  0.94466087815E+02  0.89395312817E+02 0.  0.
         13    1    3    3    0    0  0.22609985699E+01 -0.27359243479E+02  0.19569245534E+02  0.33713600417E+02  0.10566000000E+00 0. -1.
         22    1    1    0    0    0 -0.17143248202E+02 -0.20231864947E+02  0.15136065379E+02  0.30533912185E+02  0.00000000000E+00 0.  1.
</event>
<event>
 5    1  0.1751020E-003  0.9118800E+02  0.7818608E-02  0.1130116E+00
         25   -1    0    0    0    0  0.00000000000E+00  0.00000000000E+00  0.99999998245E-14  0.12500000000E+03  0.12500000000E+03 0.  0.
        -13    1    3    3    0    0  0.34024031240E+02 -0.96668743420E+01 -0.17034684675E+01  0.35411807779E+02  0.10566000000E+00 0.  1.
         23    2    1    0    0    0 -0.27113735299E+02 -0.73013756509E+01 -0.39911220806E+01  0.96638163252E+02  0.92382578515E+02 0.  0.
         13    1    3    3    0    0 -0.61137766539E+02  0.23654986911E+01 -0.22876536131E+01  0.61226355473E+02  0.10566000000E+00 0. -1.
         22    1    1    0    0    0  0.27113735299E+02  0.73013756509E+01  0.39911220806E+01  0.28361836748E+02  0.00000000000E+00 0. -1.
</event>
<event>
 5    1  0.1751020E-003  0.9118800E+02  0.7818608E-02  0.1130116E+00
         25   -1    0    0    0    0  0.00000000000E+00  0.00000000000E+00  0.99999998245E-14  0.12500000000E+03  0.12500000000E+03 0.  0.
        -13    1    3    3    0    0 -0.19516880952E+02  0.65446363188E+01  0.58248088344E+02  0.61778571256E+02  0.10566000000E+00 0. -1.
         23    2    1    0    0    0 -0.69321406739E+01  0.93938676254E+01  0.27802474963E+02  0.94845780770E+02  0.89924663984E+02 0.  0.
         13    1    3    3    0    0  0.12584740279E+02  0.28492313067E+01 -0.30445613381E+02  0.33067209515E+02  0.10566000000E+00 0.  1.
         22    1    1    0    0    0  0.69321406739E+01 -0.93938676254E+01 -0.27802474963E+02  0.30154219230E+02  0.00000000000E+00 0. -1.
</event>
<event>
 5    1  0.1751020E-003  0.9118800E+02  0.7818608E-02  0.1130116E+00
         25   -1    0    0    0    0  0.00000000000E+00  0.00000000000E+00  0.99999998245E-14  0.12500000000E+03  0.12500000000E+03 0.  0.
        -13    1    3    3    0    0 -0.33281164085E+02 -0.28510657684E+02  0.27638042718E+02  0.51810868105E+02  0.10566000000E+00 0. -1.
         23    2    1    0    0    0 -0.33350503292E+01 -0.34081912634E+02  0.36915247551E+01  0.90556906578E+02  0.83750979961E+02 0.  0.
         13    1    3    3    0    0  0.29946113756E+02 -0.55712549493E+01 -0.23946517963E+02  0.38746038473E+02  0.10566000000E+00 0.  1.
         22    1    1    0    0    0  0.33350503292E+01  0.34081912634E+02 -0.36915247551E+01  0.34443093422E+02  0.00000000000E+00 0. -1.
</event>
<event>
 5    1  0.1751020E-003  0.9118800E+02  0.7818608E-02  0.1130116E+00
         25   -1    0    0    0    0  0.00000000000E+00  0.00000000000E+00  0.99999998245E-14  0.12500000000E+03  0.12500000000E+03 0.  0.
        -13    1    3    3    0    0  0.21535223490E+02  0.51688991809E+02  0.13760835554E+00  0.55995962579E+02  0.10566000000E+00 0. -1.
         23    2    1    0    0    0  0.20220770390E+02  0.16247050051E+02  0.15648711903E+02  0.94705968001E+02  0.89730106432E+02 0.  0.
         13    1    3    3    0    0 -0.13144531004E+01 -0.35441941758E+02  0.15511103547E+02  0.38710005423E+02  0.10566000000E+00 0.  1.
         22    1    1    0    0    0 -0.20220770390E+02 -0.16247050051E+02 -0.15648711903E+02  0.30294031999E+02  0.00000000000E+00 0. -1.
</event>
<event>
 5    1  0.1751020E-003  0.9118800E+02  0.7818608E-02  0.1130116E+00
         25   -1    0    0    0    0  0.00000000000E+00  0.00000000000E+00  0.99999998245E-14  0.12500000000E+03  0.12500000000E+03 0.  0.
        -13    1    3    3    0    0 -0.35266664466E+02 -0.12191189348E+02  0.46320407200E+02  0.59480702816E+02  0.10566000000E+00 0.  1.
         23    2    1    0    0    0 -0.22263556685E+02  0.65986108215E+01  0.19836211622E+02  0.94460142231E+02  0.89386998818E+02 0.  0.
         13    1    3    3    0    0  0.13003107780E+02  0.18789800169E+02 -0.26484195578E+02  0.34979439415E+02  0.10566000000E+00 0. -1.
         22    1    1    0    0    0  0.22263556685E+02 -0.65986108215E+01 -0.19836211622E+02  0.30539857769E+02  0.00000000000E+00 0.  1.
</event>
<event>
 5    1  0.1751020E-003  0.9118800E+02  0.7818608E-02  0.1130116E+00
         25   -1    0    0    0    0  0.00000000000E+00  0.00000000000E+00  0.99999998245E-14  0.12500000000E+03  0.12500000000E+03 0.  0.
        -13    1    3    3    0    0 -0.42613648479E+02  0.69613763177E+01  0.11770504734E+02  0.44754214803E+02  0.10566000000E+00 0.  1.
         23    2    1    0    0    0 -0.20061210621E+02 -0.27376255781E+02 -0.76713713001E+01  0.90204001813E+02  0.83222595810E+02 0.  0.
         13    1    3    3    0    0  0.22552437858E+02 -0.34337632099E+02 -0.19441876034E+02  0.45449787010E+02  0.10566000000E+00 0. -1.
         22    1    1    0    0    0  0.20061210621E+02  0.27376255781E+02  0.76713713001E+01  0.34795998187E+02  0.00000000000E+00 0. -1.
</event>
<event>
 5    1  0.1751020E-003  0.9118800E+02  0.7818608E-02  0.1130116E+00
         25   -1    0    0    0    0  0.00000000000E+00  0.00000000000E+00  0.99999998245E-14  0.12500000000E+03  0.12500000000E+03 0.  0.
        -13    1    3    3    0    0  0.53959388484E+02 -0.16789576948E+02 -0.11529855468E+01  0.56522969130E+02  0.10566000000E+00 0.  1.
         23    2    1    0    0    0  0.23425473514E+02 -0.10245513970E+02 -0.19592590929E+02  0.92788309806E+02  0.87017684706E+02 0.  0.
         13    1    3    3    0    0 -0.30533914970E+02  0.65440629775E+01 -0.18439605382E+02  0.36265340676E+02  0.10566000000E+00 0. -1.
         22    1    1    0    0    0 -0.23425473514E+02  0.10245513970E+02  0.19592590929E+02  0.32211690194E+02  0.00000000000E+00 0.  1.
</event>
<event>
 5    1  0.1751020E-003  0.9118800E+02  0.7818608E-02  0.1130116E+00
         25   -1    0    0    0    0  0.00000000000E+00  0.00000000000E+00  0.99999998245E-14  0.12500000000E+03  0.12500000000E+03 0.  0.
        -13    1    3    3    0    0 -0.19233035334E+02  0.28216181735E+02 -0.91636750953E+01  0.35355998998E+02  0.10566000000E+00 0.  1.
         23    2    1    0    0    0  0.27267967062E+02 -0.90861951691E+01 -0.86944082675E+01  0.94971784843E+02  0.90099646009E+02 0.  0.
         13    1    3    3    0    0  0.46501002396E+02 -0.37302376904E+02  0.46926682770E+00  0.59615785845E+02  0.10566000000E+00 0. -1.
         22    1    1    0    0    0 -0.27267967062E+02  0.90861951691E+01  0.86944082675E+01  0.30028215157E+02  0.00000000000E+00 0. -1.
</event>
<event>
 5    1  0.1751020E-003  0.9118800E+02  0.7818608E-02  0.1130116E+00
         25   -1    0    0    0    0  0.00000000000E+00  0.00000000000E+00  0.99999998245E-14  0.12500000000E+03  0.12500000000E+03 0.  0.
        -13    1    3    3    0    0  0.21345365972E+02 -0.39506713984E+02  0.50870640010E+01  0.45191752372E+02  0.10566000000E+00 0.  1.
         23    2    1    0    0    0  0.12718936733E+02  0.47130657291E+00 -0.25658814445E+02  0.96357928842E+02  0.92002620672E+02 0.  0.
         13    1    3    3    0    0 -0.86264292390E+01  0.39978020557E+02 -0.30745878446E+02  0.51166176470E+02  0.10566000000E+00 0. -1.
         22    1    1    0    0    0 -0.12718936733E+02 -0.47130657291E+00  0.25658814445E+02  0.28642071158E+02  0.00000000000E+00 0. -1.
</event>
<event>
 5    1  0.1751020E-003  0.9118800E+02  0.7818608E-02  0.1130116E+00
         25   -1    0    0    0    0  0.00000000000E+00  0.00000000000E+00  0.99999998245E-14  0.12500000000E+03  0.12500000000E+03 0.  0.
        -13    1    3    3    0    0  0.18268505545E+02 -0.52546582956E+01  0.34952948139E+02  0.39787805623E+02  0.10566000000E+00 0.  1.
         23    2    1    0    0    0  0.20085091980E+02 -0.94564337528E+01 -0.20113062045E+02  0.95043859995E+02  0.90199584250E+02 0.  0.
         13    1    3    3    0    0  0.18165864346E+01 -0.42017754572E+01 -0.55066010183E+02  0.55256054373E+02  0.10566000000E+00 0. -1.
         22    1    1    0    0    0 -0.20085091980E+02  0.94564337528E+01  0.20113062045E+02  0.29956140005E+02  0.00000000000E+00 0. -1.
</event>
<event>
 5    1  0.1751020E-003  0.9118800E+02  0.7818608E-02  0.1130116E+00
         25   -1    0    0    0    0  0.00000000000E+00  0.00000000000E+00  0.99999998245E-14  0.12500000000E+03  0.12500000000E+03 0.  0.
        -13    1    3    3    0    0  0.28293027846E+02  0.85757806580E+00 -0.21625571746E+02  0.35621726267E+02  0.10566000000E+00 0.  1.
         23    2    1    0    0    0 -0.13542394031E+02  0.94654037394E-01  0.23946417124E+02  0.97489342274E+02  0.93527191599E+02 0.  0.
         13    1    3    3    0    0 -0.41835421877E+02 -0.76292402841E+00  0.45571988870E+02  0.61867616007E+02  0.10566000000E+00 0. -1.
         22    1    1    0    0    0  0.13542394031E+02 -0.94654037394E-01 -0.23946417124E+02  0.27510657726E+02  0.00000000000E+00 0. -1.
</event>
<event>
 4    1  0.1751020E-003  0.9118800E+02  0.7818608E-02  0.1130116E+00
         25   -1    0    0    0    0  0.00000000000E+00  0.00000000000E+00  0.99999998245E-14  0.12500000000E+03  0.12500000000E+03 0.  0.
        -13    1    1    0    0    0 -0.13953102158E+02 -0.43537342156E+02  0.78587763665E+01  0.46389230990E+02  0.10566000000E+00 0. -1.
         13    1    1    0    0    0 -0.10450625806E+02  0.96057353115E+00 -0.24611158399E+02  0.26755533316E+02  0.10566000000E+00 0.  1.
         22    1    1    0    0    0  0.24403727963E+02  0.42576768625E+02  0.16752382033E+02  0.51855235694E+02  0.00000000000E+00 0. -1.
</event>
<event>
 5    1  0.1751020E-003  0.9118800E+02  0.7818608E-02  0.1130116E+00
         25   -1    0    0    0    0  0.00000000000E+00  0.00000000000E+00  0.99999998245E-14  0.12500000000E+03  0.12500000000E+03 0.  0.
        -13    1    3    3    0    0 -0.40741979791E+02  0.18145881379E+02 -0.22397986295E+01  0.44656576114E+02  0.10566000000E+00 0.  1.
         23    2    1    0    0    0 -0.12513328814E+02 -0.18918515263E+02  0.18572525332E+02  0.95683923950E+02  0.91082275924E+02 0.  0.
         13    1    3    3    0    0  0.28228650977E+02 -0.37064396642E+02  0.20812323961E+02  0.51027347836E+02  0.10566000000E+00 0. -1.
         22    1    1    0    0    0  0.12513328814E+02  0.18918515263E+02 -0.18572525332E+02  0.29316076050E+02  0.00000000000E+00 0.  1.
</event>
<event>
 5    1  0.1751020E-003  0.9118800E+02  0.7818608E-02  0.1130116E+00
         25   -1    0    0    0    0  0.00000000000E+00  0.00000000000E+00  0.99999998245E-14  0.12500000000E+03  0.12500000000E+03 0.  0.
        -13    1    3    3    0    0  0.43850443257E+02  0.37635605018E+02  0.22456205578E+02  0.61996713396E+02  0.10566000000E+00 0.  1.
         23    2    1    0    0    0  0.12576827964E+02  0.15298100562E+02  0.12070430884E+02  0.10180724716E+03  0.99130276862E+02 0.  0.
         13    1    3    3    0    0 -0.31273615293E+02 -0.22337504455E+02 -0.10385774694E+02  0.39810533767E+02  0.10566000000E+00 0. -1.
         22    1    1    0    0    0 -0.12576827964E+02 -0.15298100562E+02 -0.12070430884E+02  0.23192752837E+02  0.00000000000E+00 0.  1.
</event>
<event>
 5    1  0.1751020E-003  0.9118800E+02  0.7818608E-02  0.1130116E+00
         25   -1    0    0    0    0  0.00000000000E+00  0.00000000000E+00  0.99999998245E-14  0.12500000000E+03  0.12500000000E+03 0.  0.
        -13    1    3    3    0    0 -0.21944016435E+02  0.25867771461E+02 -0.46230611381E+02  0.57340753835E+02  0.10566000000E+00 0.  1.
         23    2    1    0    0    0 -0.14517796295E+02 -0.51526416802E+01 -0.24923663162E+02  0.95699742135E+02  0.91103981986E+02 0.  0.
         13    1    3    3    0    0  0.74262201407E+01 -0.31020413141E+02  0.21306948218E+02  0.38358988300E+02  0.10566000000E+00 0. -1.
         22    1    1    0    0    0  0.14517796295E+02  0.51526416802E+01  0.24923663162E+02  0.29300257865E+02  0.00000000000E+00 0. -1.
</event>
<event>
 5    1  0.1751020E-003  0.9118800E+02  0.7818608E-02  0.1130116E+00
         25   -1    0    0    0    0  0.00000000000E+00  0.00000000000E+00  0.99999998245E-14  0.12500000000E+03  0.12500000000E+03 0.  0.
        -13    1    3    3    0    0  0.54200822843E+02  0.16850213018E+02  0.30040490128E+01  0.56839197303E+02  0.10566000000E+00 0.  1.
         23    2    1    0    0    0  0.26679927799E+02 -0.92591270197E+01  0.92442208286E+01  0.95284589869E+02  0.90532576828E+02 0.  0.
         13    1    3    3    0    0 -0.27520895043E+02 -0.26109340037E+02  0.62401718158E+01  0.38445392565E+02  0.10566000000E+00 0. -1.
         22    1    1    0    0    0 -0.26679927799E+02  0.92591270197E+01 -0.92442208286E+01  0.29715410131E+02  0.00000000000E+00 0.  1.
</event>
<event>
 5    1  0.1751020E-003  0.9118800E+02  0.7818608E-02  0.1130116E+00
         25   -1    0    0    0    0  0.00000000000E+00  0.00000000000E+00  0.99999998245E-14  0.12500000000E+03  0.12500000000E+03 0.  0.
        -13    1    3    3    0    0  0.30545719645E+00  0.41459938455E+02  0.22744606676E+02  0.47290042268E+02  0.10566000000E+00 0.  1.
         23    2    1    0    0    0  0.26040088076E+02  0.26500361339E+01  0.15945634998E+02  0.94350821316E+02  0.89233992004E+02 0.  0.
         13    1    3    3    0    0  0.25734630880E+02 -0.38809902321E+02 -0.67989716774E+01  0.47060779048E+02  0.10566000000E+00 0. -1.
         22    1    1    0    0    0 -0.26040088076E+02 -0.26500361339E+01 -0.15945634998E+02  0.30649178684E+02  0.00000000000E+00 0.  1.
</event>
<event>
 5    1  0.1751020E-003  0.9118800E+02  0.7818608E-02  0.1130116E+00
         25   -1    0    0    0    0  0.00000000000E+00  0.00000000000E+00  0.99999998245E-14  0.12500000000E+03  0.12500000000E+03 0.  0.
        -13    1    3    3    0    0 -0.12874792903E+01  0.41259373534E+02 -0.43116181050E+02  0.59690951909E+02  0.10566000000E+00 0.  1.
         23    2    1    0    0    0 -0.34266019179E+01  0.27592920012E+02 -0.10221660600E+02  0.95375800755E+02  0.90658425912E+02 0.  0.
         13    1    3    3    0    0 -0.21391226276E+01 -0.13666453523E+02  0.32894520450E+02  0.35684848847E+02  0.10566000000E+00 0. -1.
         22    1    1    0    0    0  0.34266019179E+01 -0.27592920012E+02  0.10221660600E+02  0.29624199245E+02  0.00000000000E+00 0.  1.
</event>
<event>
 5    1  0.1751020E-003  0.9118800E+02  0.7818608E-02  0.1130116E+00
         25   -1    0    0    0    0  0.00000000000E+00  0.00000000000E+00  0.99999998245E-14  0.12500000000E+03  0.12500000000E+03 0.  0.
        -13    1    3    3    0    0 -0.49000553040E+01  0.30523376483E+02 -0.25276411688E+02  0.39932382921E+02  0.10566000000E+00 0.  1.
         23    2    1    0    0    0 -0.73802440922E+01 -0.24634928357E+02 -0.11438634496E+02  0.96854128950E+02  0.92674334298E+02 0.  0.
         13    1    3    3    0    0 -0.24801887882E+01 -0.55158304841E+02  0.13837777191E+02  0.56921746029E+02  0.10566000000E+00 0. -1.
         22    1    1    0    0    0  0.73802440922E+01  0.24634928357E+02  0.11438634496E+02  0.28145871050E+02  0.00000000000E+00 0. -1.
</event>
<event>
 5    1  0.1751020E-003  0.9118800E+02  0.7818608E-02  0.1130116E+00
         25   -1    0    0    0    0  0.00000000000E+00  0.00000000000E+00  0.99999998245E-14  0.12500000000E+03  0.12500000000E+03 0.  0.
        -13    1    3    3    0    0 -0.53721554408E+01 -0.25163738440E+02 -0.38887278507E+02  0.46629447564E+02  0.10566000000E+00 0. -1.
         23    2    1    0    0    0 -0.29316866296E+02 -0.16715287264E+02 -0.22867536392E+01  0.91175323802E+02  0.84668949152E+02 0.  0.
         13    1    3    3    0    0 -0.23944710855E+02  0.84484511758E+01  0.36600524868E+02  0.44545876238E+02  0.10566000000E+00 0.  1.
         22    1    1    0    0    0  0.29316866296E+02  0.16715287264E+02  0.22867536392E+01  0.33824676198E+02  0.00000000000E+00 0. -1.
</event>
<event>
 5    1  0.1751020E-003  0.9118800E+02  0.7818608E-02  0.1130116E+00
         25   -1    0    0    0    0  0.00000000000E+00  0.00000000000E+00  0.99999998245E-14  0.12500000000E+03  0.12500000000E+03 0.  0.
        -13    1    3    3    0    0  0.23017267656E+02 -0.25306725524E+02 -0.52016006526E+02  0.62256735105E+02  0.10566000000E+00 0.  1.
         23    2    1    0    0    0  0.75856249969E+01 -0.14109642725E+02 -0.23561084437E+02  0.96508800933E+02  0.92207376241E+02 0.  0.
         13    1    3    3    0    0 -0.15431642659E+02  0.11197082799E+02  0.28454922088E+02  0.34252065827E+02  0.10566000000E+00 0. -1.
         22    1    1    0    0    0 -0.75856249969E+01  0.14109642725E+02  0.23561084437E+02  0.28491199067E+02  0.00000000000E+00 0.  1.
</event>
<event>
 5    1  0.1751020E-003  0.9118800E+02  0.7818608E-02  0.1130116E+00
         25   -1    0    0    0    0  0.00000000000E+00  0.00000000000E+00  0.99999998245E-14  0.12500000000E+03  0.12500000000E+03 0.  0.
        -13    1    3    3    0    0 -0.24958030598E+02  0.85371340920E+01  0.22325441815E+02  0.34557524016E+02  0.10566000000E+00 0.  1.
         23    2    1    0    0    0  0.21637303033E+02 -0.18055394651E+02 -0.73616872879E+01  0.95873300938E+02  0.91341804418E+02 0.  0.
         13    1    3    3    0    0  0.46595333631E+02 -0.26592528743E+02 -0.29687129103E+02  0.61315776922E+02  0.10566000000E+00 0. -1.
         22    1    1    0    0    0 -0.21637303033E+02  0.18055394651E+02  0.73616872879E+01  0.29126699062E+02  0.00000000000E+00 0. -1.
</event>
<event>
 5    1  0.1751020E-003  0.9118800E+02  0.7818608E-02  0.1130116E+00
         25   -1    0    0    0    0  0.00000000000E+00  0.00000000000E+00  0.99999998245E-14  0.12500000000E+03  0.12500000000E+03 0.  0.
        -13    1    3    3    0    0  0.23795578178E+02  0.27437664790E+02  0.27826332040E+02  0.45753370464E+02  0.10566000000E+00 0.  1.
         23    2    1    0    0    0 -0.15630109003E+02 -0.47192588947E+01  0.22910219354E+02  0.96867281276E+02  0.92692072579E+02 0.  0.
         13    1    3    3    0    0 -0.39425687181E+02 -0.32156923685E+02 -0.49161126855E+01  0.51113910812E+02  0.10566000000E+00 0. -1.
         22    1    1    0    0    0  0.15630109003E+02  0.47192588947E+01 -0.22910219354E+02  0.28132718724E+02  0.00000000000E+00 0. -1.
</event>
<event>
 5    1  0.1751020E-003  0.9118800E+02  0.7818608E-02  0.1130116E+00
         25   -1    0    0    0    0  0.00000000000E+00  0.00000000000E+00  0.99999998245E-14  0.12500000000E+03  0.12500000000E+03 0.  0.
        -13    1    3    3    0    0 -0.24596016862E+02 -0.22847344478E+02 -0.26596364323E+02  0.42829230140E+02  0.10566000000E+00 0.  1.
         23    2    1    0    0    0  0.15944411315E+02 -0.91046414241E+01  0.14066333775E+02  0.10187035466E+03  0.99209821415E+02 0.  0.
         13    1    3    3    0    0  0.40540428177E+02  0.13742703054E+02  0.40662698098E+02  0.59041124521E+02  0.10566000000E+00 0. -1.
         22    1    1    0    0    0 -0.15944411315E+02  0.91046414241E+01 -0.14066333775E+02  0.23129645339E+02  0.00000000000E+00 0. -1.
</event>
<event>
 5    1  0.1751020E-003  0.9118800E+02  0.7818608E-02  0.1130116E+00
         25   -1    0    0    0    0  0.00000000000E+00  0.00000000000E+00  0.99999998245E-14  0.12500000000E+03  0.12500000000E+03 0.  0.
        -13    1    3    3    0    0 -0.19536955706E+02  0.21339893543E+02 -0.24478627780E+02  0.37898523410E+02  0.10566000000E+00 0. -1.
         23    2    1    0    0    0  0.16762779696E+02  0.77534202466E+01  0.20589324088E+02  0.97340886221E+02  0.93328567733E+02 0.  0.
         13    1    3    3    0    0  0.36299735401E+02 -0.13586473296E+02  0.45067951868E+02  0.59442362810E+02  0.10566000000E+00 0.  1.
         22    1    1    0    0    0 -0.16762779696E+02 -0.77534202466E+01 -0.20589324088E+02  0.27659113779E+02  0.00000000000E+00 0.  1.
</event>
<event>
 5    1  0.1751020E-003  0.9118800E+02  0.7818608E-02  0.1130116E+00
         25   -1    0    0    0    0  0.00000000000E+00  0.00000000000E+00  0.99999998245E-14  0.12500000000E+03  0.12500000000E+03 0.  0.
        -13    1    3    3    0    0 -0.37359787518E+02  0.27699071149E+02  0.28558428331E+02  0.54576435013E+02  0.10566000000E+00 0.  1.
         23    2    1    0    0    0  0.89052759294E+00  0.24831112839E+02  0.17865624347E+02  0.94396769165E+02  0.89298333083E+02 0.  0.
         13    1    3    3    0    0  0.38250315111E+02 -0.28679583106E+01 -0.10692803983E+02  0.39820334153E+02  0.10566000000E+00 0. -1.
         22    1    1    0    0    0 -0.89052759294E+00 -0.24831112839E+02 -0.17865624347E+02  0.30603230835E+02  0.00000000000E+00 0. -1.
</event>
<event>
 5    1  0.1751020E-003  0.9118800E+02  0.7818608E-02  0.1130116E+00
         25   -1    0    0    0    0  0.00000000000E+00  0.00000000000E+00  0.99999998245E-14  0.12500000000E+03  0.12500000000E+03 0.  0.
        -13    1    3    3    0    0 -0.19920150243E+02  0.54312196898E+01 -0.16112661104E+02  0.26190447589E+02  0.10566000000E+00 0.  1.
         23    2    1    0    0    0  0.14694128802E+02  0.60424451272E+01  0.34215221738E+02  0.87275870283E+02  0.78701763453E+02 0.  0.
         13    1    3    3    0    0  0.34614279044E+02  0.61122543736E+00  0.50327882842E+02  0.61085422694E+02  0.10566000000E+00 0. -1.
         22    1    1    0    0    0 -0.14694128802E+02 -0.60424451272E+01 -0.34215221738E+02  0.37724129717E+02  0.00000000000E+00 0. -1.
</event>
<event>
 5    1  0.1751020E-003  0.9118800E+02  0.7818608E-02  0.1130116E+00
         25   -1    0    0    0    0  0.00000000000E+00  0.00000000000E+00  0.99999998245E-14  0.12500000000E+03  0.12500000000E+03 0.  0.
        -13    1    3    3    0    0 -0.52670803129E+01 -0.48801071294E+02 -0.14075454240E+01  0.49104776170E+02  0.10566000000E+00 0. -1.
         23    2    1    0    0    0 -0.17839859563E+02 -0.14305985514E+02  0.22501319639E+02  0.92918366683E+02  0.87204309933E+02 0.  0.
         13    1    3    3    0    0 -0.12572779250E+02  0.34495085780E+02  0.23908865063E+02  0.43813590514E+02  0.10566000000E+00 0.  1.
         22    1    1    0    0    0  0.17839859563E+02  0.14305985514E+02 -0.22501319639E+02  0.32081633317E+02  0.00000000000E+00 0.  1.
</event>
<event>
 5    1  0.1751020E-003  0.9118800E+02  0.7818608E-02  0.1130116E+00
         25   -1    0    0    0    0  0.00000000000E+00  0.00000000000E+00  0.99999998245E-14  0.12500000000E+03  0.12500000000E+03 0.  0.
        -13    1    3    3    0    0 -0.23781317881E+02 -0.17165915105E+02  0.22498350701E+02  0.36964938386E+02  0.10566000000E+00 0. -1.
         23    2    1    0    0    0  0.13057789968E+02  0.25425746369E+02  0.46326361722E+01  0.96044244525E+02  0.91575439563E+02 0.  0.
         13    1    3    3    0    0  0.36839107849E+02  0.42591661474E+02 -0.17865714529E+02  0.59079306139E+02  0.10566000000E+00 0.  1.
         22    1    1    0    0    0 -0.13057789968E+02 -0.25425746369E+02 -0.46326361722E+01  0.28955755475E+02  0.00000000000E+00 0.  1.
</event>
<event>
 5    1  0.1751020E-003  0.9118800E+02  0.7818608E-02  0.1130116E+00
         25   -1    0    0    0    0  0.00000000000E+00  0.00000000000E+00  0.99999998245E-14  0.12500000000E+03  0.12500000000E+03 0.  0.
        -13    1    3    3    0    0  0.24457825612E+02  0.40905722462E+02 -0.39728644921E+02  0.62047076926E+02  0.10566000000E+00 0.  1.
         23    2    1    0    0    0  0.14832443646E+02  0.19938628343E+02 -0.14524698670E+02  0.96216026054E+02  0.91809621029E+02 0.  0.
         13    1    3    3    0    0 -0.96253819668E+01 -0.20967094119E+02  0.25203946251E+02  0.34168949128E+02  0.10566000000E+00 0. -1.
         22    1    1    0    0    0 -0.14832443646E+02 -0.19938628343E+02  0.14524698670E+02  0.28783973946E+02  0.00000000000E+00 0.  1.
</event>
<event>
 5    1  0.1751020E-003  0.9118800E+02  0.7818608E-02  0.1130116E+00
         25   -1    0    0    0    0  0.00000000000E+00  0.00000000000E+00  0.99999998245E-14  0.12500000000E+03  0.12500000000E+03 0.  0.
        -13    1    3    3    0    0  0.26016793740E+02  0.10515750644E+02  0.21879998877E+02  0.35583705302E+02  0.10566000000E+00 0.  1.
         23    2    1    0    0    0 -0.17657782957E+02 -0.24738856557E+02  0.10415471019E+02  0.92870724265E+02  0.87135991795E+02 0.  0.
         13    1    3    3    0    0 -0.43674576697E+02 -0.35254607201E+02 -0.11464527858E+02  0.57287018963E+02  0.10566000000E+00 0. -1.
         22    1    1    0    0    0  0.17657782957E+02  0.24738856557E+02 -0.10415471019E+02  0.32129275735E+02  0.00000000000E+00 0. -1.
</event>
<event>
 5    1  0.1751020E-003  0.9118800E+02  0.7818608E-02  0.1130116E+00
         25   -1    0    0    0    0  0.00000000000E+00  0.00000000000E+00  0.99999998245E-14  0.12500000000E+03  0.12500000000E+03 0.  0.
        -13    1    3    3    0    0  0.28024894341E+01 -0.43325197781E+02 -0.29639588762E+02  0.52568461037E+02  0.10566000000E+00 0. -1.
         23    2    1    0    0    0  0.24959351659E+02 -0.12590251841E+02 -0.95172809962E+01  0.95469298785E+02  0.90787249635E+02 0.  0.
         13    1    3    3    0    0  0.22156862225E+02  0.30734945940E+02  0.20122307766E+02  0.42900837748E+02  0.10566000000E+00 0.  1.
         22    1    1    0    0    0 -0.24959351659E+02  0.12590251841E+02  0.95172809962E+01  0.29530701215E+02  0.00000000000E+00 0. -1.
</event>
<event>
 5    1  0.1751020E-003  0.9118800E+02  0.7818608E-02  0.1130116E+00
         25   -1    0    0    0    0  0.00000000000E+00  0.00000000000E+00  0.99999998245E-14  0.12500000000E+03  0.12500000000E+03 0.  0.
        -13    1    3    3    0    0 -0.21060232294E+02 -0.34105671101E+01  0.47081845937E+02  0.51690199585E+02  0.10566000000E+00 0. -1.
         23    2    1    0    0    0 -0.20618721037E+02 -0.21316912300E+02  0.86245681914E+01  0.94114314259E+02  0.88902072893E+02 0.  0.
         13    1    3    3    0    0  0.44151125677E+00 -0.17906345190E+02 -0.38457277745E+02  0.42424114674E+02  0.10566000000E+00 0.  1.
         22    1    1    0    0    0  0.20618721037E+02  0.21316912300E+02 -0.86245681914E+01  0.30885685741E+02  0.00000000000E+00 0. -1.
</event>
<event>
 5    1  0.1751020E-003  0.9118800E+02  0.7818608E-02  0.1130116E+00
         25   -1    0    0    0    0  0.00000000000E+00  0.00000000000E+00  0.99999998245E-14  0.12500000000E+03  0.12500000000E+03 0.  0.
        -13    1    3    3    0    0 -0.71240565034E+01  0.10555382938E+02 -0.47560446586E+02  0.49235917109E+02  0.10566000000E+00 0. -1.
         23    2    1    0    0    0 -0.25832507719E+02  0.11139759822E+02 -0.40806810304E+01  0.96573521822E+02  0.92295072759E+02 0.  0.
         13    1    3    3    0    0 -0.18708451215E+02  0.58437688318E+00  0.43479765556E+02  0.47337604714E+02  0.10566000000E+00 0.  1.
         22    1    1    0    0    0  0.25832507719E+02 -0.11139759822E+02  0.40806810304E+01  0.28426478178E+02  0.00000000000E+00 0.  1.
</event>
<event>
 5    1  0.1751020E-003  0.9118800E+02  0.7818608E-02  0.1130116E+00
         25   -1    0    0    0    0  0.00000000000E+00  0.00000000000E+00  0.99999998245E-14  0.12500000000E+03  0.12500000000E+03 0.  0.
        -13    1    3    3    0    0 -0.29652697765E+02  0.43962125926E+02 -0.30548167492E+02  0.61197652748E+02  0.10566000000E+00 0. -1.
         23    2    1    0    0    0 -0.66401014257E+01  0.24262760776E+02 -0.18391839194E+02  0.93838609525E+02  0.88513571734E+02 0.  0.
         13    1    3    3    0    0  0.23012596340E+02 -0.19699365150E+02  0.12156328298E+02  0.32640956777E+02  0.10566000000E+00 0.  1.
         22    1    1    0    0    0  0.66401014257E+01 -0.24262760776E+02  0.18391839194E+02  0.31161390475E+02  0.00000000000E+00 0. -1.
</event>
<event>
 5    1  0.1751020E-003  0.9118800E+02  0.7818608E-02  0.1130116E+00
         25   -1    0    0    0    0  0.00000000000E+00  0.00000000000E+00  0.99999998245E-14  0.12500000000E+03  0.12500000000E+03 0.  0.
        -13    1    3    3    0    0  0.84749128272E+01  0.64067936323E+01 -0.35482144190E+02  0.37038694259E+02  0.10566000000E+00 0. -1.
         23    2    1    0    0    0 -0.13360631106E+02 -0.28153041983E+02  0.36439067100E+01  0.93625196534E+02  0.88211672320E+02 0.  0.
         13    1    3    3    0    0 -0.21835543933E+02 -0.34559835615E+02  0.39126050900E+02  0.56586502275E+02  0.10566000000E+00 0.  1.
         22    1    1    0    0    0  0.13360631106E+02  0.28153041983E+02 -0.36439067100E+01  0.31374803466E+02  0.00000000000E+00 0.  1.
</event>
<event>
 5    1  0.1751020E-003  0.9118800E+02  0.7818608E-02  0.1130116E+00
         25   -1    0    0    0    0  0.00000000000E+00  0.00000000000E+00  0.99999998245E-14  0.12500000000E+03  0.12500000000E+03 0.  0.
        -13    1    3    3    0    0 -0.27679772702E+01 -0.13107720151E+02 -0.59410116993E+02  0.60901947349E+02  0.10566000000E+00 0.  1.
         23    2    1    0    0    0  0.66321644329E+01 -0.25755074172E+00 -0.29247123816E+02  0.95009231604E+02  0.90151582909E+02 0.  0.
         13    1    3    3    0    0  0.94001417032E+01  0.12850169409E+02  0.30162993177E+02  0.34107284256E+02  0.10566000000E+00 0. -1.
         22    1    1    0    0    0 -0.66321644329E+01  0.25755074172E+00  0.29247123816E+02  0.29990768396E+02  0.00000000000E+00 0.  1.
</event>
<event>
 5    1  0.1751020E-003  0.9118800E+02  0.7818608E-02  0.1130116E+00
         25   -1    0    0    0    0  0.00000000000E+00  0.00000000000E+00  0.99999998245E-14  0.12500000000E+03  0.12500000000E+03 0.  0.
        -13    1    3    3    0    0 -0.27824928421E+02 -0.18455619213E+02 -0.21893210445E+01  0.33461034247E+02  0.10566000000E+00 0.  1.
         23    2    1    0    0    0  0.16269395405E+02  0.20060378357E+02  0.15814990894E+02  0.94714261712E+02  0.89741659378E+02 0.  0.
         13    1    3    3    0    0  0.44094323827E+02  0.38515997570E+02  0.18004311938E+02  0.61253227465E+02  0.10566000000E+00 0. -1.
         22    1    1    0    0    0 -0.16269395405E+02 -0.20060378357E+02 -0.15814990894E+02  0.30285738288E+02  0.00000000000E+00 0. -1.
</event>
<event>
 5    1  0.1751020E-003  0.9118800E+02  0.7818608E-02  0.1130116E+00
         25   -1    0    0    0    0  0.00000000000E+00  0.00000000000E+00  0.99999998245E-14  0.12500000000E+03  0.12500000000E+03 0.  0.
        -13    1    3    3    0    0  0.33888380486E+02  0.30264473919E+02 -0.16357274712E+02  0.48290085045E+02  0.10566000000E+00 0. -1.
         23    2    1    0    0    0  0.25215814927E+02 -0.72844595031E+01  0.12003425356E+02  0.96138556984E+02  0.91704085219E+02 0.  0.
         13    1    3    3    0    0 -0.86725655592E+01 -0.37548933422E+02  0.28360700068E+02  0.47848471939E+02  0.10566000000E+00 0.  1.
         22    1    1    0    0    0 -0.25215814927E+02  0.72844595031E+01 -0.12003425356E+02  0.28861443016E+02  0.00000000000E+00 0.  1.
</event>
<event>
 5    1  0.1751020E-003  0.9118800E+02  0.7818608E-02  0.1130116E+00
         25   -1    0    0    0    0  0.00000000000E+00  0.00000000000E+00  0.99999998245E-14  0.12500000000E+03  0.12500000000E+03 0.  0.
        -13    1    3    3    0    0  0.50545048909E+01 -0.30745091840E+02  0.30757325273E+02  0.43781650425E+02  0.10566000000E+00 0. -1.
         23    2    1    0    0    0 -0.26771623663E+02  0.46114702185E+01  0.15413724047E+02  0.93765909968E+02  0.88410844877E+02 0.  0.
         13    1    3    3    0    0 -0.31826128554E+02  0.35356562059E+02 -0.15343601226E+02  0.49984259542E+02  0.10566000000E+00 0.  1.
         22    1    1    0    0    0  0.26771623663E+02 -0.46114702185E+01 -0.15413724047E+02  0.31234090032E+02  0.00000000000E+00 0.  1.
</event>
<event>
 5    1  0.1751020E-003  0.9118800E+02  0.7818608E-02  0.1130116E+00
         25   -1    0    0    0    0  0.00000000000E+00  0.00000000000E+00  0.99999998245E-14  0.12500000000E+03  0.12500000000E+03 0.  0.
        -13    1    3    3    0    0  0.36183150627E+02 -0.21583046605E+02 -0.83225536851E+01  0.42945597608E+02  0.10566000000E+00 0.  1.
         23    2    1    0    0    0  0.22218623376E+02  0.24424934708E+02 -0.79932020409E+01  0.91027423720E+02  0.84450316341E+02 0.  0.
         13    1    3    3    0    0 -0.13964527251E+02  0.46007981312E+02  0.32935164415E+00  0.48081826112E+02  0.10566000000E+00 0. -1.
         22    1    1    0    0    0 -0.22218623376E+02 -0.24424934708E+02  0.79932020409E+01  0.33972576280E+02  0.00000000000E+00 0. -1.
</event>
<event>
 5    1  0.1751020E-003  0.9118800E+02  0.7818608E-02  0.1130116E+00
         25   -1    0    0    0    0  0.00000000000E+00  0.00000000000E+00  0.99999998245E-14  0.12500000000E+03  0.12500000000E+03 0.  0.
        -13    1    3    3    0    0  0.36858411140E+02 -0.43439688019E+01 -0.33025165609E+02  0.49679827538E+02  0.10566000000E+00 0.  1.
         23    2    1    0    0    0 -0.85280083026E+01 -0.28796673165E+01 -0.28262164641E+02  0.95339093749E+02  0.90607800090E+02 0.  0.
         13    1    3    3    0    0 -0.45386419442E+02  0.14643014854E+01  0.47630009678E+01  0.45659266211E+02  0.10566000000E+00 0. -1.
         22    1    1    0    0    0  0.85280083026E+01  0.28796673165E+01  0.28262164641E+02  0.29660906251E+02  0.00000000000E+00 0.  1.
</event>
<event>
 5    1  0.1751020E-003  0.9118800E+02  0.7818608E-02  0.1130116E+00
         25   -1    0    0    0    0  0.00000000000E+00  0.00000000000E+00  0.99999998245E-14  0.12500000000E+03  0.12500000000E+03 0.  0.
        -13    1    3    3    0    0 -0.12989089200E+02 -0.26737936174E+02 -0.17652291636E+02  0.34572362273E+02  0.10566000000E+00 0. -1.
         23    2    1    0    0    0 -0.45506976804E+02 -0.74736409884E+00 -0.80780853976E+00  0.79479718306E+02  0.65153124073E+02 0.  0.
         13    1    3    3    0    0 -0.32517887603E+02  0.25990572075E+02  0.16844483097E+02  0.44907356032E+02  0.10566000000E+00 0.  1.
         22    1    1    0    0    0  0.45506976804E+02  0.74736409884E+00  0.80780853976E+00  0.45520281694E+02  0.00000000000E+00 0.  1.
</event>
<event>
 5    1  0.1751020E-003  0.9118800E+02  0.7818608E-02  0.1130116E+00
         25   -1    0    0    0    0  0.00000000000E+00  0.00000000000E+00  0.99999998245E-14  0.12500000000E+03  0.12500000000E+03 0.  0.
        -13    1    3    3    0    0 -0.63106692314E+01 -0.49718520044E+02  0.31644692854E+02  0.59271861210E+02  0.10566000000E+00 0. -1.
         23    2    1    0    0    0  0.38735155600E+01 -0.15021688345E+02  0.24299147515E+02  0.96171128820E+02  0.91748472494E+02 0.  0.
         13    1    3    3    0    0  0.10184184791E+02  0.34696831698E+02 -0.73455453391E+01  0.36899267610E+02  0.10566000000E+00 0.  1.
         22    1    1    0    0    0 -0.38735155600E+01  0.15021688345E+02 -0.24299147515E+02  0.28828871180E+02  0.00000000000E+00 0. -1.
</event>
<event>
 5    1  0.1751020E-003  0.9118800E+02  0.7818608E-02  0.1130116E+00
         25   -1    0    0    0    0  0.00000000000E+00  0.00000000000E+00  0.99999998245E-14  0.12500000000E+03  0.12500000000E+03 0.  0.
        -13    1    3    3    0    0  0.29127267665E+02 -0.33728652446E+02  0.32693222784E+01  0.44684665711E+02  0.10566000000E+00 0.  1.
         23    2    1    0    0    0  0.21862295132E+02  0.16875859749E+02  0.85717580480E+01  0.96082364780E+02  0.91627458739E+02 0.  0.
         13    1    3    3    0    0 -0.72649725336E+01  0.50604512196E+02  0.53024357696E+01  0.51397699069E+02  0.10566000000E+00 0. -1.
         22    1    1    0    0    0 -0.21862295132E+02 -0.16875859749E+02 -0.85717580480E+01  0.28917635220E+02  0.00000000000E+00 0. -1.
</event>
<event>
 5    1  0.1751020E-003  0.9118800E+02  0.7818608E-02  0.1130116E+00
         25   -1    0    0    0    0  0.00000000000E+00  0.00000000000E+00  0.99999998245E-14  0.12500000000E+03  0.12500000000E+03 0.  0.
        -13    1    3    3    0    0  0.49053887300E+01  0.49004118415E+02 -0.21252836890E+02  0.53639171322E+02  0.10566000000E+00 0.  1.
         23    2    1    0    0    0 -0.69736658825E+01  0.25881369482E+02  0.11819473446E+02  0.95705337437E+02  0.91111658745E+02 0.  0.
         13    1    3    3    0    0 -0.11879054612E+02 -0.23122748932E+02  0.33072310336E+02  0.42066166116E+02  0.10566000000E+00 0. -1.
         22    1    1    0    0    0  0.69736658825E+01 -0.25881369482E+02 -0.11819473446E+02  0.29294662563E+02  0.00000000000E+00 0.  1.
</event>
<event>
 5    1  0.1751020E-003  0.9118800E+02  0.7818608E-02  0.1130116E+00
         25   -1    0    0    0    0  0.00000000000E+00  0.00000000000E+00  0.99999998245E-14  0.12500000000E+03  0.12500000000E+03 0.  0.
        -13    1    3    3    0    0 -0.12780233803E+02 -0.36104638726E+02  0.46114213467E+02  0.59945067865E+02  0.10566000000E+00 0.  1.
         23    2    1    0    0    0 -0.61570820193E+01 -0.54057301796E+01  0.27169245211E+02  0.96622201229E+02  0.92360978271E+02 0.  0.
         13    1    3    3    0    0  0.66231517838E+01  0.30698908547E+02 -0.18944968257E+02  0.36677133364E+02  0.10566000000E+00 0. -1.
         22    1    1    0    0    0  0.61570820193E+01  0.54057301796E+01 -0.27169245211E+02  0.28377798771E+02  0.00000000000E+00 0.  1.
</event>
<event>
 5    1  0.1751020E-003  0.9118800E+02  0.7818608E-02  0.1130116E+00
         25   -1    0    0    0    0  0.00000000000E+00  0.00000000000E+00  0.99999998245E-14  0.12500000000E+03  0.12500000000E+03 0.  0.
        -13    1    3    3    0    0  0.58779920660E+01  0.41440628596E+02  0.10464557089E+02  0.43143882629E+02  0.10566000000E+00 0.  1.
         23    2    1    0    0    0 -0.23753075788E+02  0.90032240722E+01 -0.16515663638E+02  0.94700927432E+02  0.89723084310E+02 0.  0.
         13    1    3    3    0    0 -0.29631067854E+02 -0.32437404524E+02 -0.26980220727E+02  0.51557044804E+02  0.10566000000E+00 0. -1.
         22    1    1    0    0    0  0.23753075788E+02 -0.90032240722E+01  0.16515663638E+02  0.30299072568E+02  0.00000000000E+00 0. -1.
</event>
<event>
 5    1  0.1751020E-003  0.9118800E+02  0.7818608E-02  0.1130116E+00
         25   -1    0    0    0    0  0.00000000000E+00  0.00000000000E+00  0.99999998245E-14  0.12500000000E+03  0.12500000000E+03 0.  0.
        -13    1    3    3    0    0 -0.17728197147E+02 -0.14583203171E+02 -0.52213210769E+02  0.57036736685E+02  0.10566000000E+00 0. -1.
         23    2    1    0    0    0 -0.12682081662E+02 -0.21542361408E+02 -0.13707805698E+02  0.96490133859E+02  0.92182066937E+02 0.  0.
         13    1    3    3    0    0  0.50461154851E+01 -0.69591582365E+01  0.38505405071E+02  0.39453397174E+02  0.10566000000E+00 0.  1.
         22    1    1    0    0    0  0.12682081662E+02  0.21542361408E+02  0.13707805698E+02  0.28509866141E+02  0.00000000000E+00 0. -1.
</event>
<event>
 5    1  0.1751020E-003  0.9118800E+02  0.7818608E-02  0.1130116E+00
         25   -1    0    0    0    0  0.00000000000E+00  0.00000000000E+00  0.99999998245E-14  0.12500000000E+03  0.12500000000E+03 0.  0.
        -13    1    3    3    0    0  0.27679517553E+02 -0.29012132144E+02  0.22067790552E+02  0.45769619262E+02  0.10566000000E+00 0.  1.
         23    2    1    0    0    0 -0.76450703603E+01 -0.59687703361E+01 -0.18387259493E+02  0.10421143026E+03  0.10211688188E+03 0.  0.
         13    1    3    3    0    0 -0.35324587914E+02  0.23043361808E+02 -0.40455050045E+02  0.58441810999E+02  0.10566000000E+00 0. -1.
         22    1    1    0    0    0  0.76450703603E+01  0.59687703361E+01  0.18387259493E+02  0.20788569739E+02  0.00000000000E+00 0. -1.
</event>
<event>
 5    1  0.1751020E-003  0.9118800E+02  0.7818608E-02  0.1130116E+00
         25   -1    0    0    0    0  0.00000000000E+00  0.00000000000E+00  0.99999998245E-14  0.12500000000E+03  0.12500000000E+03 0.  0.
        -13    1    3    3    0    0  0.56497069045E+02  0.16865261795E+02 -0.49005495155E+01  0.59164029746E+02  0.10566000000E+00 0. -1.
         23    2    1    0    0    0  0.21522496635E+02  0.20953936915E+02 -0.58857934350E+01  0.94390722028E+02  0.89289867885E+02 0.  0.
         13    1    3    3    0    0 -0.34974572410E+02  0.40886751194E+01 -0.98524391946E+00  0.35226692282E+02  0.10566000000E+00 0.  1.
         22    1    1    0    0    0 -0.21522496635E+02 -0.20953936915E+02  0.58857934350E+01  0.30609277972E+02  0.00000000000E+00 0. -1.
</event>
<event>
 5    1  0.1751020E-003  0.9118800E+02  0.7818608E-02  0.1130116E+00
         25   -1    0    0    0    0  0.00000000000E+00  0.00000000000E+00  0.99999998245E-14  0.12500000000E+03  0.12500000000E+03 0.  0.
        -13    1    3    3    0    0  0.55595020282E+01  0.37319614240E+02  0.18051128594E+02  0.41827216945E+02  0.10566000000E+00 0. -1.
         23    2    1    0    0    0  0.26543556940E+02 -0.46350247008E+01  0.23749988327E+02  0.89081956978E+02  0.81519870243E+02 0.  0.
         13    1    3    3    0    0  0.20984054912E+02 -0.41954638941E+02  0.56988597334E+01  0.47254740032E+02  0.10566000000E+00 0.  1.
         22    1    1    0    0    0 -0.26543556940E+02  0.46350247008E+01 -0.23749988327E+02  0.35918043022E+02  0.00000000000E+00 0.  1.
</event>
<event>
 5    1  0.1751020E-003  0.9118800E+02  0.7818608E-02  0.1130116E+00
         25   -1    0    0    0    0  0.00000000000E+00  0.00000000000E+00  0.99999998245E-14  0.12500000000E+03  0.12500000000E+03 0.  0.
        -13    1    3    3    0    0 -0.30836254635E+01  0.12661990745E+02  0.39795116763E+02  0.41874780452E+02  0.10566000000E+00 0.  1.
         23    2    1    0    0    0  0.18685579336E+02  0.18276212911E+02 -0.10395952692E+02  0.96870892907E+02  0.92696942920E+02 0.  0.
         13    1    3    3    0    0  0.21769204799E+02  0.56142221663E+01 -0.50191069455E+02  0.54996112455E+02  0.10566000000E+00 0. -1.
         22    1    1    0    0    0 -0.18685579336E+02 -0.18276212911E+02  0.10395952692E+02  0.28129107093E+02  0.00000000000E+00 0. -1.
</event>
<event>
 5    1  0.1751020E-003  0.9118800E+02  0.7818608E-02  0.1130116E+00
         25   -1    0    0    0    0  0.00000000000E+00  0.00000000000E+00  0.99999998245E-14  0.12500000000E+03  0.12500000000E+03 0.  0.
        -13    1    3    3    0    0  0.48396544603E+02 -0.65445440825E+01 -0.13831717092E+02  0.50758094414E+02  0.10566000000E+00 0. -1.
         23    2    1    0    0    0  0.25425008479E+02  0.49694738941E+01  0.19306129182E+02  0.92691280574E+02  0.86878191415E+02 0.  0.
         13    1    3    3    0    0 -0.22971536124E+02  0.11514017977E+02  0.33137846274E+02  0.41933186160E+02  0.10566000000E+00 0.  1.
         22    1    1    0    0    0 -0.25425008479E+02 -0.49694738941E+01 -0.19306129182E+02  0.32308719426E+02  0.00000000000E+00 0. -1.
</event>
<event>
 5    1  0.1751020E-003  0.9118800E+02  0.7818608E-02  0.1130116E+00
         25   -1    0    0    0    0  0.00000000000E+00  0.00000000000E+00  0.99999998245E-14  0.12500000000E+03  0.12500000000E+03 0.  0.
        -13    1    3    3    0    0 -0.13939589686E+02 -0.30801384173E+02 -0.24050582474E+02  0.41490711116E+02  0.10566000000E+00 0.  1.
         23    2    1    0    0    0  0.22400338723E+02 -0.12398426867E+02  0.12760501983E+02  0.96393592072E+02  0.92051062015E+02 0.  0.
         13    1    3    3    0    0  0.36339928409E+02  0.18402957306E+02  0.36811084457E+02  0.54902880956E+02  0.10566000000E+00 0. -1.
         22    1    1    0    0    0 -0.22400338723E+02  0.12398426867E+02 -0.12760501983E+02  0.28606407928E+02  0.00000000000E+00 0. -1.
</event>
<event>
 5    1  0.1751020E-003  0.9118800E+02  0.7818608E-02  0.1130116E+00
         25   -1    0    0    0    0  0.00000000000E+00  0.00000000000E+00  0.99999998245E-14  0.12500000000E+03  0.12500000000E+03 0.  0.
        -13    1    3    3    0    0  0.22855596325E+02 -0.29775539350E+02 -0.31850218663E+01  0.37671163445E+02  0.10566000000E+00 0. -1.
         23    2    1    0    0    0 -0.27283989861E+02 -0.40343486359E+01  0.10188944543E+02  0.95597505845E+02  0.90963599650E+02 0.  0.
         13    1    3    3    0    0 -0.50139586186E+02  0.25741190714E+02  0.13373966409E+02  0.57926342400E+02  0.10566000000E+00 0.  1.
         22    1    1    0    0    0  0.27283989861E+02  0.40343486359E+01 -0.10188944543E+02  0.29402494155E+02  0.00000000000E+00 0.  1.
</event>
<event>
 5    1  0.1751020E-003  0.9118800E+02  0.7818608E-02  0.1130116E+00
         25   -1    0    0    0    0  0.00000000000E+00  0.00000000000E+00  0.99999998245E-14  0.12500000000E+03  0.12500000000E+03 0.  0.
        -13    1    3    3    0    0 -0.26366455137E+02  0.39229983452E+02 -0.33031842931E+02  0.57665374096E+02  0.10566000000E+00 0. -1.
         23    2    1    0    0    0 -0.23565364467E+02  0.19243372469E+02 -0.22249572796E+01  0.94494521454E+02  0.89435062271E+02 0.  0.
         13    1    3    3    0    0  0.28010906699E+01 -0.19986610983E+02  0.30806885652E+02  0.36829147358E+02  0.10566000000E+00 0.  1.
         22    1    1    0    0    0  0.23565364467E+02 -0.19243372469E+02  0.22249572796E+01  0.30505478546E+02  0.00000000000E+00 0. -1.
</event>
<event>
 5    1  0.1751020E-003  0.9118800E+02  0.7818608E-02  0.1130116E+00
         25   -1    0    0    0    0  0.00000000000E+00  0.00000000000E+00  0.99999998245E-14  0.12500000000E+03  0.12500000000E+03 0.  0.
        -13    1    3    3    0    0  0.20593075923E+02 -0.16274163021E+02  0.30556208753E+02  0.40281710681E+02  0.10566000000E+00 0.  1.
         23    2    1    0    0    0 -0.22259594567E+02 -0.17442326879E+02 -0.53715357239E+01  0.96214974149E+02  0.91808188836E+02 0.  0.
         13    1    3    3    0    0 -0.42852670490E+02 -0.11681638574E+01 -0.35927744477E+02  0.55933263468E+02  0.10566000000E+00 0. -1.
         22    1    1    0    0    0  0.22259594567E+02  0.17442326879E+02  0.53715357239E+01  0.28785025851E+02  0.00000000000E+00 0. -1.
</event>
<event>
 5    1  0.1751020E-003  0.9118800E+02  0.7818608E-02  0.1130116E+00
         25   -1    0    0    0    0  0.00000000000E+00  0.00000000000E+00  0.99999998245E-14  0.12500000000E+03  0.12500000000E+03 0.  0.
        -13    1    3    3    0    0  0.35196820653E+02  0.48660989295E+02 -0.71377922654E+01  0.60478651652E+02  0.10566000000E+00 0. -1.
         23    2    1    0    0    0  0.23871331086E+02  0.14965834616E+02 -0.67475640511E+01  0.96028526544E+02  0.91553982088E+02 0.  0.
         13    1    3    3    0    0 -0.11325489567E+02 -0.33695154679E+02  0.39022821426E+00  0.35549874892E+02  0.10566000000E+00 0.  1.
         22    1    1    0    0    0 -0.23871331086E+02 -0.14965834616E+02  0.67475640511E+01  0.28971473456E+02  0.00000000000E+00 0. -1.
</event>
<event>
 5    1  0.1751020E-003  0.9118800E+02  0.7818608E-02  0.1130116E+00
         25   -1    0    0    0    0  0.00000000000E+00  0.00000000000E+00  0.99999998245E-14  0.12500000000E+03  0.12500000000E+03 0.  0.
        -13    1    3    3    0    0 -0.88991574265E+01  0.39032807863E+02  0.44737107270E+02  0.60034781781E+02  0.10566000000E+00 0. -1.
         23    2    1    0    0    0 -0.12897256394E+02  0.11299354161E+02  0.26394185693E+02  0.93525126445E+02  0.88069754236E+02 0.  0.
         13    1    3    3    0    0 -0.39980989671E+01 -0.27733453703E+02 -0.18342921577E+02  0.33490344663E+02  0.10566000000E+00 0.  1.
         22    1    1    0    0    0  0.12897256394E+02 -0.11299354161E+02 -0.26394185693E+02  0.31474873555E+02  0.00000000000E+00 0. -1.
</event>
<event>
 5    1  0.1751020E-003  0.9118800E+02  0.7818608E-02  0.1130116E+00
         25   -1    0    0    0    0  0.00000000000E+00  0.00000000000E+00  0.99999998245E-14  0.12500000000E+03  0.12500000000E+03 0.  0.
        -13    1    3    3    0    0  0.13708649099E+02 -0.16476483005E+02 -0.27137631392E+02  0.34581263048E+02  0.10566000000E+00 0.  1.
         23    2    1    0    0    0  0.20345121481E+01  0.23243007430E+02  0.17778609938E+02  0.95666476424E+02  0.91058328043E+02 0.  0.
         13    1    3    3    0    0 -0.11674136951E+02  0.39719490435E+02  0.44916241330E+02  0.61085213376E+02  0.10566000000E+00 0. -1.
         22    1    1    0    0    0 -0.20345121481E+01 -0.23243007430E+02 -0.17778609938E+02  0.29333523576E+02  0.00000000000E+00 0. -1.
</event>
<event>
 5    1  0.1751020E-003  0.9118800E+02  0.7818608E-02  0.1130116E+00
         25   -1    0    0    0    0  0.00000000000E+00  0.00000000000E+00  0.99999998245E-14  0.12500000000E+03  0.12500000000E+03 0.  0.
        -13    1    3    3    0    0  0.13730228834E+02 -0.10138281052E+02  0.34232669968E+02  0.38251676874E+02  0.10566000000E+00 0.  1.
         23    2    1    0    0    0 -0.21065479542E+02 -0.15906981872E+00 -0.14840588121E+02  0.99231360390E+02  0.95827136541E+02 0.  0.
         13    1    3    3    0    0 -0.34795708376E+02  0.99792112328E+01 -0.49073258089E+02  0.60979683516E+02  0.10566000000E+00 0. -1.
         22    1    1    0    0    0  0.21065479542E+02  0.15906981872E+00  0.14840588121E+02  0.25768639610E+02  0.00000000000E+00 0. -1.
</event>
<event>
 5    1  0.1751020E-003  0.9118800E+02  0.7818608E-02  0.1130116E+00
         25   -1    0    0    0    0  0.00000000000E+00  0.00000000000E+00  0.99999998245E-14  0.12500000000E+03  0.12500000000E+03 0.  0.
        -13    1    3    3    0    0  0.57715812231E+02 -0.25139439821E+01 -0.95009904102E+00  0.57778445358E+02  0.10566000000E+00 0.  1.
         23    2    1    0    0    0  0.20544803632E+02  0.12925793097E+02  0.87801105323E+01  0.99188075926E+02  0.95770658249E+02 0.  0.
         13    1    3    3    0    0 -0.37171008599E+02  0.15439737079E+02  0.97302095733E+01  0.41409630568E+02  0.10566000000E+00 0. -1.
         22    1    1    0    0    0 -0.20544803632E+02 -0.12925793097E+02 -0.87801105323E+01  0.25811924074E+02  0.00000000000E+00 0.  1.
</event>
<event>
 5    1  0.1751020E-003  0.9118800E+02  0.7818608E-02  0.1130116E+00
         25   -1    0    0    0    0  0.00000000000E+00  0.00000000000E+00  0.99999998245E-14  0.12500000000E+03  0.12500000000E+03 0.  0.
        -13    1    3    3    0    0 -0.15656757380E+02  0.40550265889E+02  0.40461293483E+02  0.59385061670E+02  0.10566000000E+00 0.  1.
         23    2    1    0    0    0 -0.18352163168E+02  0.10065380312E+02  0.18641843454E+02  0.96970870489E+02  0.92831662821E+02 0.  0.
         13    1    3    3    0    0 -0.26954057882E+01 -0.30484885576E+02 -0.21819450028E+02  0.37585808818E+02  0.10566000000E+00 0. -1.
         22    1    1    0    0    0  0.18352163168E+02 -0.10065380312E+02 -0.18641843454E+02  0.28029129511E+02  0.00000000000E+00 0.  1.
</event>
<event>
 5    1  0.1751020E-003  0.9118800E+02  0.7818608E-02  0.1130116E+00
         25   -1    0    0    0    0  0.00000000000E+00  0.00000000000E+00  0.99999998245E-14  0.12500000000E+03  0.12500000000E+03 0.  0.
        -13    1    3    3    0    0 -0.34005487210E+02 -0.22265227040E+02 -0.17135049508E+02  0.44110481534E+02  0.10566000000E+00 0.  1.
         23    2    1    0    0    0 -0.96431186024E+01  0.44755266875E+00  0.25221335814E+02  0.97994337260E+02  0.94199704431E+02 0.  0.
         13    1    3    3    0    0  0.24362368607E+02  0.22712779709E+02  0.42356385322E+02  0.53883855726E+02  0.10566000000E+00 0. -1.
         22    1    1    0    0    0  0.96431186024E+01 -0.44755266875E+00 -0.25221335814E+02  0.27005662740E+02  0.00000000000E+00 0. -1.
</event>
<event>
 5    1  0.1751020E-003  0.9118800E+02  0.7818608E-02  0.1130116E+00
         25   -1    0    0    0    0  0.00000000000E+00  0.00000000000E+00  0.99999998245E-14  0.12500000000E+03  0.12500000000E+03 0.  0.
        -13    1    3    3    0    0  0.44333534538E+02  0.34160620054E+02 -0.22027776943E+02  0.60146856678E+02  0.10566000000E+00 0. -1.
         23    2    1    0    0    0  0.24302933807E+02  0.10943398185E+02  0.73595992012E+00  0.98336688269E+02  0.94652903110E+02 0.  0.
         13    1    3    3    0    0 -0.20030600731E+02 -0.23217221869E+02  0.22763736863E+02  0.38189831591E+02  0.10566000000E+00 0.  1.
         22    1    1    0    0    0 -0.24302933807E+02 -0.10943398185E+02 -0.73595992012E+00  0.26663311731E+02  0.00000000000E+00 0. -1.
</event>
<event>
 5    1  0.1751020E-003  0.9118800E+02  0.7818608E-02  0.1130116E+00
         25   -1    0    0    0    0  0.00000000000E+00  0.00000000000E+00  0.99999998245E-14  0.12500000000E+03  0.12500000000E+03 0.  0.
        -13    1    3    3    0    0  0.25129851058E+02  0.36855671550E+02 -0.13204519799E+02  0.46521182775E+02  0.10566000000E+00 0. -1.
         23    2    1    0    0    0  0.23088939158E+01 -0.49250321466E+01 -0.28079877847E+02  0.96398138650E+02  0.92057235797E+02 0.  0.
         13    1    3    3    0    0 -0.22820957142E+02 -0.41780703697E+02 -0.14875358048E+02  0.49876955875E+02  0.10566000000E+00 0.  1.
         22    1    1    0    0    0 -0.23088939158E+01  0.49250321466E+01  0.28079877847E+02  0.28601861350E+02  0.00000000000E+00 0. -1.
</event>
<event>
 5    1  0.1751020E-003  0.9118800E+02  0.7818608E-02  0.1130116E+00
         25   -1    0    0    0    0  0.00000000000E+00  0.00000000000E+00  0.99999998245E-14  0.12500000000E+03  0.12500000000E+03 0.  0.
        -13    1    3    3    0    0 -0.25701219761E+02 -0.12700841987E+02 -0.26456490237E+02  0.39010525811E+02  0.10566000000E+00 0. -1.
         23    2    1    0    0    0 -0.13251632148E+02  0.22396247038E+02  0.15181583045E+02  0.94872303445E+02  0.89961524338E+02 0.  0.
         13    1    3    3    0    0  0.12449587613E+02  0.35097089025E+02  0.41638073282E+02  0.55861777634E+02  0.10566000000E+00 0.  1.
         22    1    1    0    0    0  0.13251632148E+02 -0.22396247038E+02 -0.15181583045E+02  0.30127696555E+02  0.00000000000E+00 0.  1.
</event>
<event>
 5    1  0.1751020E-003  0.9118800E+02  0.7818608E-02  0.1130116E+00
         25   -1    0    0    0    0  0.00000000000E+00  0.00000000000E+00  0.99999998245E-14  0.12500000000E+03  0.12500000000E+03 0.  0.
        -13    1    3    3    0    0  0.34223048707E+02 -0.17828848368E+02 -0.16773696781E+02  0.42076750881E+02  0.10566000000E+00 0. -1.
         23    2    1    0    0    0  0.16267608924E+02  0.56291985408E+01  0.25853645795E+02  0.93939832949E+02  0.88656405506E+02 0.  0.
         13    1    3    3    0    0 -0.17955439783E+02  0.23458046909E+02  0.42627342576E+02  0.51863082069E+02  0.10566000000E+00 0.  1.
         22    1    1    0    0    0 -0.16267608924E+02 -0.56291985408E+01 -0.25853645795E+02  0.31060167051E+02  0.00000000000E+00 0.  1.
</event>
<event>
 5    1  0.1751020E-003  0.9118800E+02  0.7818608E-02  0.1130116E+00
         25   -1    0    0    0    0  0.00000000000E+00  0.00000000000E+00  0.99999998245E-14  0.12500000000E+03  0.12500000000E+03 0.  0.
        -13    1    3    3    0    0  0.17446308327E+02  0.30571179638E+02  0.51527542822E+02  0.62402480175E+02  0.10566000000E+00 0. -1.
         23    2    1    0    0    0  0.70936856832E+01  0.15998973027E+02  0.22462134982E+02  0.96524834989E+02  0.92229110085E+02 0.  0.
         13    1    3    3    0    0 -0.10352622644E+02 -0.14572206611E+02 -0.29065407840E+02  0.34122354814E+02  0.10566000000E+00 0.  1.
         22    1    1    0    0    0 -0.70936856832E+01 -0.15998973027E+02 -0.22462134982E+02  0.28475165011E+02  0.00000000000E+00 0. -1.
</event>
<event>
 5    1  0.1751020E-003  0.9118800E+02  0.7818608E-02  0.1130116E+00
         25   -1    0    0    0    0  0.00000000000E+00  0.00000000000E+00  0.99999998245E-14  0.12500000000E+03  0.12500000000E+03 0.  0.
        -13    1    3    3    0    0 -0.86426090815E+01 -0.45662504874E+02  0.99779368939E+01  0.47532404019E+02  0.10566000000E+00 0.  1.
         23    2    1    0    0    0 -0.29641480293E+02 -0.51444212365E+01 -0.24064672546E+01  0.94819318953E+02  0.89887873143E+02 0.  0.
         13    1    3    3    0    0 -0.20998871211E+02  0.40518083638E+02 -0.12384404149E+02  0.47286914934E+02  0.10566000000E+00 0. -1.
         22    1    1    0    0    0  0.29641480293E+02  0.51444212365E+01  0.24064672546E+01  0.30180681047E+02  0.00000000000E+00 0. -1.
</event>
<event>
 5    1  0.1751020E-003  0.9118800E+02  0.7818608E-02  0.1130116E+00
         25   -1    0    0    0    0  0.00000000000E+00  0.00000000000E+00  0.99999998245E-14  0.12500000000E+03  0.12500000000E+03 0.  0.
        -13    1    3    3    0    0 -0.98807738931E+01 -0.37157178808E+02 -0.35998125467E+02  0.52670312615E+02  0.10566000000E+00 0.  1.
         23    2    1    0    0    0 -0.12395513199E+02 -0.27121447299E+02  0.48322252077E+01  0.94791192484E+02  0.89848751360E+02 0.  0.
         13    1    3    3    0    0 -0.25147393063E+01  0.10035731509E+02  0.40830350675E+02  0.42120879869E+02  0.10566000000E+00 0. -1.
         22    1    1    0    0    0  0.12395513199E+02  0.27121447299E+02 -0.48322252077E+01  0.30208807516E+02  0.00000000000E+00 0.  1.
</event>
<event>
 5    1  0.1751020E-003  0.9118800E+02  0.7818608E-02  0.1130116E+00
         25   -1    0    0    0    0  0.00000000000E+00  0.00000000000E+00  0.99999998245E-14  0.12500000000E+03  0.12500000000E+03 0.  0.
        -13    1    3    3    0    0 -0.12819453991E+02  0.27786926115E+02 -0.25052474149E+02  0.39548568730E+02  0.10566000000E+00 0.  1.
         23    2    1    0    0    0  0.13017106900E+02  0.11934724223E+02  0.22779526630E+02  0.96176579873E+02  0.91755898820E+02 0.  0.
         13    1    3    3    0    0  0.25836560890E+02 -0.15852201891E+02  0.47832000779E+02  0.56628011143E+02  0.10566000000E+00 0. -1.
         22    1    1    0    0    0 -0.13017106900E+02 -0.11934724223E+02 -0.22779526630E+02  0.28823420127E+02  0.00000000000E+00 0. -1.
</event>
<event>
 5    1  0.1751020E-003  0.9118800E+02  0.7818608E-02  0.1130116E+00
         25   -1    0    0    0    0  0.00000000000E+00  0.00000000000E+00  0.99999998245E-14  0.12500000000E+03  0.12500000000E+03 0.  0.
        -13    1    3    3    0    0  0.11695522151E+02 -0.22352199899E+02  0.26794751000E+02  0.36801846746E+02  0.10566000000E+00 0. -1.
         23    2    1    0    0    0 -0.34732142828E+01  0.29558959690E+02  0.67281418295E+01  0.94486671636E+02  0.89424090204E+02 0.  0.
         13    1    3    3    0    0 -0.15168736434E+02  0.51911159589E+02 -0.20066609171E+02  0.57684824889E+02  0.10566000000E+00 0.  1.
         22    1    1    0    0    0  0.34732142828E+01 -0.29558959690E+02 -0.67281418295E+01  0.30513328364E+02  0.00000000000E+00 0.  1.
</event>
<event>
 5    1  0.1751020E-003  0.9118800E+02  0.7818608E-02  0.1130116E+00
         25   -1    0    0    0    0  0.00000000000E+00  0.00000000000E+00  0.99999998245E-14  0.12500000000E+03  0.12500000000E+03 0.  0.
        -13    1    3    3    0    0  0.30046466350E+01  0.45466017347E+02 -0.21052556803E+02  0.50193704254E+02  0.10566000000E+00 0. -1.
         23    2    1    0    0    0 -0.10068354990E+02  0.25134593900E+02  0.15338445493E+02  0.93881075005E+02  0.88573521727E+02 0.  0.
         13    1    3    3    0    0 -0.13073001625E+02 -0.20331423447E+02  0.36391002296E+02  0.43687370750E+02  0.10566000000E+00 0.  1.
         22    1    1    0    0    0  0.10068354990E+02 -0.25134593900E+02 -0.15338445493E+02  0.31118924995E+02  0.00000000000E+00 0. -1.
</event>
<event>
 5    1  0.1751020E-003  0.9118800E+02  0.7818608E-02  0.1130116E+00
         25   -1    0    0    0    0  0.00000000000E+00  0.00000000000E+00  0.99999998245E-14  0.12500000000E+03  0.12500000000E+03 0.  0.
        -13    1    3    3    0    0 -0.15835882146E+02 -0.14527943014E+02  0.55304355339E+02  0.59333120388E+02  0.10566000000E+00 0. -1.
         23    2    1    0    0    0 -0.20313851744E+02 -0.65890090827E+01  0.20190568616E+02  0.95610772817E+02  0.90981828979E+02 0.  0.
         13    1    3    3    0    0 -0.44779695982E+01  0.79389339318E+01 -0.35113786723E+02  0.36277652429E+02  0.10566000000E+00 0.  1.
         22    1    1    0    0    0  0.20313851744E+02  0.65890090827E+01 -0.20190568616E+02  0.29389227183E+02  0.00000000000E+00 0. -1.
</event>
<event>
 5    1  0.1751020E-003  0.9118800E+02  0.7818608E-02  0.1130116E+00
         25   -1    0    0    0    0  0.00000000000E+00  0.00000000000E+00  0.99999998245E-14  0.12500000000E+03  0.12500000000E+03 0.  0.
        -13    1    3    3    0    0 -0.13920830103E+02  0.15224292056E+02 -0.41802497758E+02  0.46615754442E+02  0.10566000000E+00 0.  1.
         23    2    1    0    0    0 -0.15715451505E+01 -0.24290490931E+02 -0.10631212438E+02  0.98438366358E+02  0.94787085563E+02 0.  0.
         13    1    3    3    0    0  0.12349284952E+02 -0.39514782986E+02  0.31171285320E+02  0.51822611916E+02  0.10566000000E+00 0. -1.
         22    1    1    0    0    0  0.15715451505E+01  0.24290490931E+02  0.10631212438E+02  0.26561633642E+02  0.00000000000E+00 0.  1.
</event>
<event>
 5    1  0.1751020E-003  0.9118800E+02  0.7818608E-02  0.1130116E+00
         25   -1    0    0    0    0  0.00000000000E+00  0.00000000000E+00  0.99999998245E-14  0.12500000000E+03  0.12500000000E+03 0.  0.
        -13    1    3    3    0    0  0.10484681307E+02 -0.35525429174E+02 -0.29751004037E+02  0.47509136651E+02  0.10566000000E+00 0.  1.
         23    2    1    0    0    0  0.26651036349E+02 -0.44895885240E+01  0.57614933293E+01  0.97366162971E+02  0.93362416114E+02 0.  0.
         13    1    3    3    0    0  0.16166355042E+02  0.31035840650E+02  0.35512497366E+02  0.49857026320E+02  0.10566000000E+00 0. -1.
         22    1    1    0    0    0 -0.26651036349E+02  0.44895885240E+01 -0.57614933293E+01  0.27633837029E+02  0.00000000000E+00 0.  1.
</event>
<event>
 5    1  0.1751020E-003  0.9118800E+02  0.7818608E-02  0.1130116E+00
         25   -1    0    0    0    0  0.00000000000E+00  0.00000000000E+00  0.99999998245E-14  0.12500000000E+03  0.12500000000E+03 0.  0.
        -13    1    3    3    0    0 -0.27507710804E+02  0.49143472994E+02  0.26260743597E+02  0.62140107096E+02  0.10566000000E+00 0.  1.
         23    2    1    0    0    0 -0.90434340851E+01  0.22165169550E+02  0.15155481079E+02  0.96666856017E+02  0.92421393650E+02 0.  0.
         13    1    3    3    0    0  0.18464276718E+02 -0.26978303444E+02 -0.11105262518E+02  0.34526748921E+02  0.10566000000E+00 0. -1.
         22    1    1    0    0    0  0.90434340851E+01 -0.22165169550E+02 -0.15155481079E+02  0.28333143983E+02  0.00000000000E+00 0.  1.
</event>
<event>
 5    1  0.1751020E-003  0.9118800E+02  0.7818608E-02  0.1130116E+00
         25   -1    0    0    0    0  0.00000000000E+00  0.00000000000E+00  0.99999998245E-14  0.12500000000E+03  0.12500000000E+03 0.  0.
        -13    1    3    3    0    0  0.36805493676E+02  0.26093352813E+02  0.40263626704E+02  0.60470473994E+02  0.10566000000E+00 0.  1.
         23    2    1    0    0    0  0.79435713805E+01  0.17027800248E+02  0.22995279560E+02  0.95304391072E+02  0.90559912588E+02 0.  0.
         13    1    3    3    0    0 -0.28861922295E+02 -0.90655525646E+01 -0.17268347144E+02  0.34833917078E+02  0.10566000000E+00 0. -1.
         22    1    1    0    0    0 -0.79435713805E+01 -0.17027800248E+02 -0.22995279560E+02  0.29695608928E+02  0.00000000000E+00 0.  1.
</event>
<event>
 5    1  0.1751020E-003  0.9118800E+02  0.7818608E-02  0.1130116E+00
         25   -1    0    0    0    0  0.00000000000E+00  0.00000000000E+00  0.99999998245E-14  0.12500000000E+03  0.12500000000E+03 0.  0.
        -13    1    3    3    0    0  0.44415657277E+01  0.29228259219E+02 -0.38264575537E+02  0.48355015750E+02  0.10566000000E+00 0.  1.
         23    2    1    0    0    0 -0.84126638669E+01 -0.13615655531E+02 -0.25538266743E+02  0.94860954608E+02  0.89945753941E+02 0.  0.
         13    1    3    3    0    0 -0.12854229595E+02 -0.42843914750E+02  0.12726308794E+02  0.46505938859E+02  0.10566000000E+00 0. -1.
         22    1    1    0    0    0  0.84126638669E+01  0.13615655531E+02  0.25538266743E+02  0.30139045392E+02  0.00000000000E+00 0.  1.
</event>
<event>
 5    1  0.1751020E-003  0.9118800E+02  0.7818608E-02  0.1130116E+00
         25   -1    0    0    0    0  0.00000000000E+00  0.00000000000E+00  0.99999998245E-14  0.12500000000E+03  0.12500000000E+03 0.  0.
        -13    1    3    3    0    0 -0.36381851006E+02  0.12676463546E+02  0.33804160592E+02  0.51254894869E+02  0.10566000000E+00 0.  1.
         23    2    1    0    0    0 -0.23285520456E+02  0.22529013637E+02 -0.38990199293E+01  0.92366056402E+02  0.86408993169E+02 0.  0.
         13    1    3    3    0    0  0.13096330549E+02  0.98525500910E+01 -0.37703180521E+02  0.41111161533E+02  0.10566000000E+00 0. -1.
         22    1    1    0    0    0  0.23285520456E+02 -0.22529013637E+02  0.38990199293E+01  0.32633943598E+02  0.00000000000E+00 0.  1.
</event>
<event>
 5    1  0.1751020E-003  0.9118800E+02  0.7818608E-02  0.1130116E+00
         25   -1    0    0    0    0  0.00000000000E+00  0.00000000000E+00  0.99999998245E-14  0.12500000000E+03  0.12500000000E+03 0.  0.
        -13    1    3    3    0    0  0.24934023481E+02 -0.10680390368E+02 -0.25950261229E+02  0.37539359175E+02  0.10566000000E+00 0. -1.
         23    2    1    0    0    0 -0.73042947525E+01  0.29000657841E+02  0.47243461845E+00  0.95089900175E+02  0.90263364904E+02 0.  0.
         13    1    3    3    0    0 -0.32238318234E+02  0.39681048209E+02  0.26422695848E+02  0.57550541000E+02  0.10566000000E+00 0.  1.
         22    1    1    0    0    0  0.73042947525E+01 -0.29000657841E+02 -0.47243461845E+00  0.29910099825E+02  0.00000000000E+00 0.  1.
</event>
<event>
 5    1  0.1751020E-003  0.9118800E+02  0.7818608E-02  0.1130116E+00
         25   -1    0    0    0    0  0.00000000000E+00  0.00000000000E+00  0.99999998245E-14  0.12500000000E+03  0.12500000000E+03 0.  0.
        -13    1    3    3    0    0 -0.59171842365E+01 -0.16077178381E+02 -0.29087171964E+02  0.33757420975E+02  0.10566000000E+00 0.  1.
         23    2    1    0    0    0  0.16355295896E+02  0.25800215179E+02  0.73636024315E+01  0.93577564577E+02  0.88144149802E+02 0.  0.
         13    1    3    3    0    0  0.22272480133E+02  0.41877393559E+02  0.36450774395E+02  0.59820143603E+02  0.10566000000E+00 0. -1.
         22    1    1    0    0    0 -0.16355295896E+02 -0.25800215179E+02 -0.73636024315E+01  0.31422435423E+02  0.00000000000E+00 0. -1.
</event>
<event>
 5    1  0.1751020E-003  0.9118800E+02  0.7818608E-02  0.1130116E+00
         25   -1    0    0    0    0  0.00000000000E+00  0.00000000000E+00  0.99999998245E-14  0.12500000000E+03  0.12500000000E+03 0.  0.
        -13    1    3    3    0    0  0.12787655557E+02  0.11251400000E+02 -0.41143217177E+02  0.44529693692E+02  0.10566000000E+00 0.  1.
         23    2    1    0    0    0 -0.27194900888E+02  0.56639662793E+01 -0.10152104970E+02  0.95424530712E+02  0.90725589984E+02 0.  0.
         13    1    3    3    0    0 -0.39982556444E+02 -0.55874337204E+01  0.30991112207E+02  0.50894837020E+02  0.10566000000E+00 0. -1.
         22    1    1    0    0    0  0.27194900888E+02 -0.56639662793E+01  0.10152104970E+02  0.29575469288E+02  0.00000000000E+00 0. -1.
</event>
<event>
 5    1  0.1751020E-003  0.9118800E+02  0.7818608E-02  0.1130116E+00
         25   -1    0    0    0    0  0.00000000000E+00  0.00000000000E+00  0.99999998245E-14  0.12500000000E+03  0.12500000000E+03 0.  0.
        -13    1    3    3    0    0  0.86892234553E+01  0.69367092363E+01 -0.48919194466E+02  0.50166914301E+02  0.10566000000E+00 0. -1.
         23    2    1    0    0    0 -0.36566636237E+01  0.27010004565E+02 -0.94207344232E+01  0.96161453356E+02  0.91735289497E+02 0.  0.
         13    1    3    3    0    0 -0.12345887079E+02  0.20073295328E+02  0.39498460043E+02  0.45994539055E+02  0.10566000000E+00 0.  1.
         22    1    1    0    0    0  0.36566636237E+01 -0.27010004565E+02  0.94207344232E+01  0.28838546644E+02  0.00000000000E+00 0.  1.
</event>
<event>
 5    1  0.1751020E-003  0.9118800E+02  0.7818608E-02  0.1130116E+00
         25   -1    0    0    0    0  0.00000000000E+00  0.00000000000E+00  0.99999998245E-14  0.12500000000E+03  0.12500000000E+03 0.  0.
        -13    1    3    3    0    0 -0.25770058293E+02 -0.19872674542E+02  0.27931649887E+02  0.42885980545E+02  0.10566000000E+00 0.  1.
         23    2    1    0    0    0  0.21322286098E+02  0.52889840122E+01  0.16592113925E+02  0.97469807832E+02  0.93501079983E+02 0.  0.
         13    1    3    3    0    0  0.47092344390E+02  0.25161658554E+02 -0.11339535962E+02  0.54583827287E+02  0.10566000000E+00 0. -1.
         22    1    1    0    0    0 -0.21322286098E+02 -0.52889840122E+01 -0.16592113925E+02  0.27530192168E+02  0.00000000000E+00 0.  1.
</event>
<event>
 5    1  0.1751020E-003  0.9118800E+02  0.7818608E-02  0.1130116E+00
         25   -1    0    0    0    0  0.00000000000E+00  0.00000000000E+00  0.99999998245E-14  0.12500000000E+03  0.12500000000E+03 0.  0.
        -13    1    3    3    0    0  0.13042308072E+02 -0.12771834801E+02 -0.32625354694E+02  0.37385110632E+02  0.10566000000E+00 0. -1.
         23    2    1    0    0    0  0.92520932169E+01  0.78303623795E+01  0.24192104094E+02  0.97941291525E+02  0.94129288116E+02 0.  0.
         13    1    3    3    0    0 -0.37902148550E+01  0.20602197180E+02  0.56817458787E+02  0.60556180893E+02  0.10566000000E+00 0.  1.
         22    1    1    0    0    0 -0.92520932169E+01 -0.78303623795E+01 -0.24192104094E+02  0.27058708475E+02  0.00000000000E+00 0.  1.
</event>
<event>
 5    1  0.1751020E-003  0.9118800E+02  0.7818608E-02  0.1130116E+00
         25   -1    0    0    0    0  0.00000000000E+00  0.00000000000E+00  0.99999998245E-14  0.12500000000E+03  0.12500000000E+03 0.  0.
        -13    1    3    3    0    0 -0.13808561175E+02  0.21854159413E+02 -0.51886199670E+02  0.57969556886E+02  0.10566000000E+00 0.  1.
         23    2    1    0    0    0 -0.14346964631E+02  0.21105410987E+02 -0.13952045456E+02  0.95915066796E+02  0.91398942549E+02 0.  0.
         13    1    3    3    0    0 -0.53840345588E+00 -0.74874842573E+00  0.37934154213E+02  0.37945509911E+02  0.10566000000E+00 0. -1.
         22    1    1    0    0    0  0.14346964631E+02 -0.21105410987E+02  0.13952045456E+02  0.29084933204E+02  0.00000000000E+00 0.  1.
</event>
<event>
 5    1  0.1751020E-003  0.9118800E+02  0.7818608E-02  0.1130116E+00
         25   -1    0    0    0    0  0.00000000000E+00  0.00000000000E+00  0.99999998245E-14  0.12500000000E+03  0.12500000000E+03 0.  0.
        -13    1    3    3    0    0  0.23647571138E+02 -0.11577581947E+02  0.45484549380E+02  0.52555717298E+02  0.10566000000E+00 0.  1.
         23    2    1    0    0    0 -0.62894844212E+01  0.14917188774E+02  0.16076478611E+02  0.10218480112E+03  0.99605222158E+02 0.  0.
         13    1    3    3    0    0 -0.29937055559E+02  0.26494770720E+02 -0.29408070769E+02  0.49629083826E+02  0.10566000000E+00 0. -1.
         22    1    1    0    0    0  0.62894844212E+01 -0.14917188774E+02 -0.16076478611E+02  0.22815198875E+02  0.00000000000E+00 0. -1.
</event>
<event>
 5    1  0.1751020E-003  0.9118800E+02  0.7818608E-02  0.1130116E+00
         25   -1    0    0    0    0  0.00000000000E+00  0.00000000000E+00  0.99999998245E-14  0.12500000000E+03  0.12500000000E+03 0.  0.
        -13    1    3    3    0    0 -0.81143423861E+01 -0.35899363768E+02 -0.16418754733E+02  0.40301284624E+02  0.10566000000E+00 0.  1.
         23    2    1    0    0    0  0.28590321899E+02 -0.64396042952E+01  0.97023949479E+01  0.94129116023E+02  0.88922882352E+02 0.  0.
         13    1    3    3    0    0  0.36704664285E+02  0.29459759473E+02  0.26121149681E+02  0.53827831400E+02  0.10566000000E+00 0. -1.
         22    1    1    0    0    0 -0.28590321899E+02  0.64396042952E+01 -0.97023949479E+01  0.30870883977E+02  0.00000000000E+00 0. -1.
</event>
<event>
 5    1  0.1751020E-003  0.9118800E+02  0.7818608E-02  0.1130116E+00
         25   -1    0    0    0    0  0.00000000000E+00  0.00000000000E+00  0.99999998245E-14  0.12500000000E+03  0.12500000000E+03 0.  0.
        -13    1    3    3    0    0  0.23108275737E+02 -0.66530460620E+01 -0.22398475591E+02  0.32862719034E+02  0.10566000000E+00 0. -1.
         23    2    1    0    0    0 -0.21509189736E+02  0.12499377067E+02  0.16560264586E+02  0.95114852630E+02  0.90297913361E+02 0.  0.
         13    1    3    3    0    0 -0.44617465474E+02  0.19152423129E+02  0.38958740177E+02  0.62252133596E+02  0.10566000000E+00 0.  1.
         22    1    1    0    0    0  0.21509189736E+02 -0.12499377067E+02 -0.16560264586E+02  0.29885147370E+02  0.00000000000E+00 0.  1.
</event>
<event>
 5    1  0.1751020E-003  0.9118800E+02  0.7818608E-02  0.1130116E+00
         25   -1    0    0    0    0  0.00000000000E+00  0.00000000000E+00  0.99999998245E-14  0.12500000000E+03  0.12500000000E+03 0.  0.
        -13    1    3    3    0    0 -0.26438982487E+02 -0.39121542417E+00  0.29381012723E+02  0.39527558957E+02  0.10566000000E+00 0. -1.
         23    2    1    0    0    0  0.84256607689E+01 -0.17998838103E+02 -0.16060384021E+02  0.99448368597E+02  0.96109792161E+02 0.  0.
         13    1    3    3    0    0  0.34864643255E+02 -0.17607622679E+02 -0.45441396744E+02  0.59920809640E+02  0.10566000000E+00 0.  1.
         22    1    1    0    0    0 -0.84256607689E+01  0.17998838103E+02  0.16060384021E+02  0.25551631403E+02  0.00000000000E+00 0.  1.
</event>
<event>
 5    1  0.1751020E-003  0.9118800E+02  0.7818608E-02  0.1130116E+00
         25   -1    0    0    0    0  0.00000000000E+00  0.00000000000E+00  0.99999998245E-14  0.12500000000E+03  0.12500000000E+03 0.  0.
        -13    1    3    3    0    0  0.10802317098E+02 -0.87017038157E+01 -0.44623717587E+02  0.46730044290E+02  0.10566000000E+00 0.  1.
         23    2    1    0    0    0 -0.95448613219E+01 -0.30704329244E+02 -0.12944846589E+02  0.90338360322E+02  0.83424157655E+02 0.  0.
         13    1    3    3    0    0 -0.20347178420E+02 -0.22002625428E+02  0.31678870998E+02  0.43608316032E+02  0.10566000000E+00 0. -1.
         22    1    1    0    0    0  0.95448613219E+01  0.30704329244E+02  0.12944846589E+02  0.34661639678E+02  0.00000000000E+00 0. -1.
</event>
<event>
 5    1  0.1751020E-003  0.9118800E+02  0.7818608E-02  0.1130116E+00
         25   -1    0    0    0    0  0.00000000000E+00  0.00000000000E+00  0.99999998245E-14  0.12500000000E+03  0.12500000000E+03 0.  0.
        -13    1    3    3    0    0 -0.39658422629E+02  0.30686948726E+02 -0.26717686818E+01  0.50215822401E+02  0.10566000000E+00 0.  1.
         23    2    1    0    0    0 -0.26710458234E+02 -0.10731326124E+02 -0.10591530584E+02  0.94327692302E+02  0.89201586731E+02 0.  0.
         13    1    3    3    0    0  0.12947964395E+02 -0.41418274850E+02 -0.79197619020E+01  0.44111869901E+02  0.10566000000E+00 0. -1.
         22    1    1    0    0    0  0.26710458234E+02  0.10731326124E+02  0.10591530584E+02  0.30672307698E+02  0.00000000000E+00 0. -1.
</event>
<event>
 5    1  0.1751020E-003  0.9118800E+02  0.7818608E-02  0.1130116E+00
         25   -1    0    0    0    0  0.00000000000E+00  0.00000000000E+00  0.99999998245E-14  0.12500000000E+03  0.12500000000E+03 0.  0.
        -13    1    3    3    0    0  0.33133961202E+02  0.21860381550E+02  0.12578380191E+02  0.41640875095E+02  0.10566000000E+00 0.  1.
         23    2    1    0    0    0 -0.13957924278E+02  0.19089658481E+02 -0.15675402054E+02  0.96628236913E+02  0.92369146517E+02 0.  0.
         13    1    3    3    0    0 -0.47091885481E+02 -0.27707230682E+01 -0.28253782245E+02  0.54987361818E+02  0.10566000000E+00 0. -1.
         22    1    1    0    0    0  0.13957924278E+02 -0.19089658481E+02  0.15675402054E+02  0.28371763087E+02  0.00000000000E+00 0. -1.
</event>
<event>
 5    1  0.1751020E-003  0.9118800E+02  0.7818608E-02  0.1130116E+00
         25   -1    0    0    0    0  0.00000000000E+00  0.00000000000E+00  0.99999998245E-14  0.12500000000E+03  0.12500000000E+03 0.  0.
        -13    1    3    3    0    0  0.37836568994E+02  0.33877757119E+02  0.10327097720E+02  0.51826330104E+02  0.10566000000E+00 0. -1.
         23    2    1    0    0    0 -0.80222693261E+01  0.23763524307E+02  0.72686051633E+01  0.98886890005E+02  0.95376739833E+02 0.  0.
         13    1    3    3    0    0 -0.45858838320E+02 -0.10114232812E+02 -0.30584925569E+01  0.47060559901E+02  0.10566000000E+00 0.  1.
         22    1    1    0    0    0  0.80222693261E+01 -0.23763524307E+02 -0.72686051633E+01  0.26113109995E+02  0.00000000000E+00 0.  1.
</event>
<event>
 4    1  0.1751020E-003  0.9118800E+02  0.7818608E-02  0.1130116E+00
         25   -1    0    0    0    0  0.00000000000E+00  0.00000000000E+00  0.99999998245E-14  0.12500000000E+03  0.12500000000E+03 0.  0.
        -13    1    1    0    0    0  0.18941546737E+01  0.13349103567E+02  0.12693340173E+02  0.18518057045E+02  0.10566000000E+00 0. -1.
         13    1    1    0    0    0  0.34656104199E+02  0.12596779921E+02 -0.39674602373E+02  0.54164653236E+02  0.10566000000E+00 0.  1.
         22    1    1    0    0    0 -0.36550258873E+02 -0.25945883488E+02  0.26981262200E+02  0.52317289719E+02  0.00000000000E+00 0.  1.
</event>
<event>
 5    1  0.1751020E-003  0.9118800E+02  0.7818608E-02  0.1130116E+00
         25   -1    0    0    0    0  0.00000000000E+00  0.00000000000E+00  0.99999998245E-14  0.12500000000E+03  0.12500000000E+03 0.  0.
        -13    1    3    3    0    0 -0.43812363947E+02 -0.38230890543E+02 -0.21900896865E+02  0.62135212834E+02  0.10566000000E+00 0.  1.
         23    2    1    0    0    0 -0.17747414972E+02 -0.19747784501E+02 -0.13694277386E+02  0.95125613579E+02  0.90312808587E+02 0.  0.
         13    1    3    3    0    0  0.26064948975E+02  0.18483106042E+02  0.82066194796E+01  0.32990400746E+02  0.10566000000E+00 0. -1.
         22    1    1    0    0    0  0.17747414972E+02  0.19747784501E+02  0.13694277386E+02  0.29874386421E+02  0.00000000000E+00 0.  1.
</event>
<event>
 5    1  0.1751020E-003  0.9118800E+02  0.7818608E-02  0.1130116E+00
         25   -1    0    0    0    0  0.00000000000E+00  0.00000000000E+00  0.99999998245E-14  0.12500000000E+03  0.12500000000E+03 0.  0.
        -13    1    3    3    0    0  0.28716667141E+02 -0.46811381573E+02 -0.15104334864E+02  0.56957040936E+02  0.10566000000E+00 0.  1.
         23    2    1    0    0    0  0.29718388915E+02 -0.13895984814E+02 -0.29435712298E+01  0.92061486900E+02  0.85967271243E+02 0.  0.
         13    1    3    3    0    0  0.10017217740E+01  0.32915396759E+02  0.12160763634E+02  0.35104445964E+02  0.10566000000E+00 0. -1.
         22    1    1    0    0    0 -0.29718388915E+02  0.13895984814E+02  0.29435712298E+01  0.32938513100E+02  0.00000000000E+00 0.  1.
</event>
<event>
 5    1  0.1751020E-003  0.9118800E+02  0.7818608E-02  0.1130116E+00
         25   -1    0    0    0    0  0.00000000000E+00  0.00000000000E+00  0.99999998245E-14  0.12500000000E+03  0.12500000000E+03 0.  0.
        -13    1    3    3    0    0 -0.18440701607E+02  0.41788476799E+02  0.38148579542E+02  0.59511860617E+02  0.10566000000E+00 0. -1.
         23    2    1    0    0    0 -0.41000230329E+01  0.24942579427E+02  0.52087735222E+01  0.99191594801E+02  0.95775250980E+02 0.  0.
         13    1    3    3    0    0  0.14340678575E+02 -0.16845897372E+02 -0.32939806020E+02  0.39679734184E+02  0.10566000000E+00 0.  1.
         22    1    1    0    0    0  0.41000230329E+01 -0.24942579427E+02 -0.52087735222E+01  0.25808405199E+02  0.00000000000E+00 0. -1.
</event>
<event>
 5    1  0.1751020E-003  0.9118800E+02  0.7818608E-02  0.1130116E+00
         25   -1    0    0    0    0  0.00000000000E+00  0.00000000000E+00  0.99999998245E-14  0.12500000000E+03  0.12500000000E+03 0.  0.
        -13    1    3    3    0    0 -0.17023699676E+02  0.56240510128E+02  0.17164289181E+02  0.61216217764E+02  0.10566000000E+00 0. -1.
         23    2    1    0    0    0 -0.18548053334E+01  0.34368411236E+02  0.13246145729E+02  0.88120624051E+02  0.80032218592E+02 0.  0.
         13    1    3    3    0    0  0.15168894343E+02 -0.21872098892E+02 -0.39181434522E+01  0.26904406287E+02  0.10566000000E+00 0.  1.
         22    1    1    0    0    0  0.18548053334E+01 -0.34368411236E+02 -0.13246145729E+02  0.36879375949E+02  0.00000000000E+00 0. -1.
</event>
<event>
 5    1  0.1751020E-003  0.9118800E+02  0.7818608E-02  0.1130116E+00
         25   -1    0    0    0    0  0.00000000000E+00  0.00000000000E+00  0.99999998245E-14  0.12500000000E+03  0.12500000000E+03 0.  0.
        -13    1    3    3    0    0  0.23243007965E+02 -0.26185910966E+02 -0.11038836303E+01  0.35030973088E+02  0.10566000000E+00 0.  1.
         23    2    1    0    0    0 -0.18629139098E+02  0.18905778438E+02 -0.87816894901E+01  0.97043044654E+02  0.92928796202E+02 0.  0.
         13    1    3    3    0    0 -0.41872147063E+02  0.45091689405E+02 -0.76778058599E+01  0.62012071566E+02  0.10566000000E+00 0. -1.
         22    1    1    0    0    0  0.18629139098E+02 -0.18905778438E+02  0.87816894901E+01  0.27956955346E+02  0.00000000000E+00 0. -1.
</event>
<event>
 5    1  0.1751020E-003  0.9118800E+02  0.7818608E-02  0.1130116E+00
         25   -1    0    0    0    0  0.00000000000E+00  0.00000000000E+00  0.99999998245E-14  0.12500000000E+03  0.12500000000E+03 0.  0.
        -13    1    3    3    0    0  0.26029839351E+02  0.30180184600E+02 -0.17645645697E+02  0.43586420537E+02  0.10566000000E+00 0. -1.
         23    2    1    0    0    0 -0.18958907272E+02  0.39297987644E+01 -0.21804893018E+02  0.95839464291E+02  0.91295487692E+02 0.  0.
         13    1    3    3    0    0 -0.44988746624E+02 -0.26250385835E+02 -0.41592473206E+01  0.52253043754E+02  0.10566000000E+00 0.  1.
         22    1    1    0    0    0  0.18958907272E+02 -0.39297987644E+01  0.21804893018E+02  0.29160535709E+02  0.00000000000E+00 0.  1.
</event>
<event>
 5    1  0.1751020E-003  0.9118800E+02  0.7818608E-02  0.1130116E+00
         25   -1    0    0    0    0  0.00000000000E+00  0.00000000000E+00  0.99999998245E-14  0.12500000000E+03  0.12500000000E+03 0.  0.
        -13    1    3    3    0    0  0.44609212823E+02  0.15379267763E+02  0.13949101616E+02  0.49204596793E+02  0.10566000000E+00 0. -1.
         23    2    1    0    0    0  0.13695555881E+02 -0.19767271896E+02  0.16097489839E+02  0.96061401758E+02  0.91598856103E+02 0.  0.
         13    1    3    3    0    0 -0.30913656942E+02 -0.35146539658E+02  0.21483882236E+01  0.46856804965E+02  0.10566000000E+00 0.  1.
         22    1    1    0    0    0 -0.13695555881E+02  0.19767271896E+02 -0.16097489839E+02  0.28938598242E+02  0.00000000000E+00 0.  1.
</event>
<event>
 5    1  0.1751020E-003  0.9118800E+02  0.7818608E-02  0.1130116E+00
         25   -1    0    0    0    0  0.00000000000E+00  0.00000000000E+00  0.99999998245E-14  0.12500000000E+03  0.12500000000E+03 0.  0.
        -13    1    3    3    0    0  0.45201203006E+02  0.42442355902E+01 -0.41288334599E+02  0.61366929424E+02  0.10566000000E+00 0. -1.
         23    2    1    0    0    0  0.24811672964E+02 -0.53950109426E+01 -0.17406539116E+02  0.94215054616E+02  0.89043605351E+02 0.  0.
         13    1    3    3    0    0 -0.20389530042E+02 -0.96392465328E+01  0.23881795483E+02  0.32848125192E+02  0.10566000000E+00 0.  1.
         22    1    1    0    0    0 -0.24811672964E+02  0.53950109426E+01  0.17406539116E+02  0.30784945384E+02  0.00000000000E+00 0. -1.
</event>
<event>
 5    1  0.1751020E-003  0.9118800E+02  0.7818608E-02  0.1130116E+00
         25   -1    0    0    0    0  0.00000000000E+00  0.00000000000E+00  0.99999998245E-14  0.12500000000E+03  0.12500000000E+03 0.  0.
        -13    1    3    3    0    0  0.22259299272E+02  0.17886033259E+02  0.35434524726E+02  0.45508277230E+02  0.10566000000E+00 0.  1.
         23    2    1    0    0    0 -0.14766502451E+01  0.28986620073E+02 -0.67801537904E+01  0.95194377634E+02  0.90407933328E+02 0.  0.
         13    1    3    3    0    0 -0.23735949518E+02  0.11100586814E+02 -0.42214678517E+02  0.49686100404E+02  0.10566000000E+00 0. -1.
         22    1    1    0    0    0  0.14766502451E+01 -0.28986620073E+02  0.67801537904E+01  0.29805622366E+02  0.00000000000E+00 0. -1.
</event>
<event>
 5    1  0.1751020E-003  0.9118800E+02  0.7818608E-02  0.1130116E+00
         25   -1    0    0    0    0  0.00000000000E+00  0.00000000000E+00  0.99999998245E-14  0.12500000000E+03  0.12500000000E+03 0.  0.
        -13    1    3    3    0    0  0.24707114434E+02  0.35838833028E+02  0.39233541033E+02  0.58601581570E+02  0.10566000000E+00 0.  1.
         23    2    1    0    0    0  0.91910734686E+01  0.27804235096E+02  0.75907708748E+01  0.94748204627E+02  0.89788925580E+02 0.  0.
         13    1    3    3    0    0 -0.15516040965E+02 -0.80345979316E+01 -0.31642770158E+02  0.36146623058E+02  0.10566000000E+00 0. -1.
         22    1    1    0    0    0 -0.91910734686E+01 -0.27804235096E+02 -0.75907708748E+01  0.30251795373E+02  0.00000000000E+00 0.  1.
</event>
<event>
 5    1  0.1751020E-003  0.9118800E+02  0.7818608E-02  0.1130116E+00
         25   -1    0    0    0    0  0.00000000000E+00  0.00000000000E+00  0.99999998245E-14  0.12500000000E+03  0.12500000000E+03 0.  0.
        -13    1    3    3    0    0  0.79585879679E+01 -0.55634405306E+02 -0.14708129183E+02  0.58093600373E+02  0.10566000000E+00 0. -1.
         23    2    1    0    0    0 -0.16762780615E+01 -0.27530605696E+02  0.88752159409E+01  0.96025638642E+02  0.91550039107E+02 0.  0.
         13    1    3    3    0    0 -0.96348660294E+01  0.28103799610E+02  0.23583345124E+02  0.37932038269E+02  0.10566000000E+00 0.  1.
         22    1    1    0    0    0  0.16762780615E+01  0.27530605696E+02 -0.88752159409E+01  0.28974361358E+02  0.00000000000E+00 0. -1.
</event>
<event>
 5    1  0.1751020E-003  0.9118800E+02  0.7818608E-02  0.1130116E+00
         25   -1    0    0    0    0  0.00000000000E+00  0.00000000000E+00  0.99999998245E-14  0.12500000000E+03  0.12500000000E+03 0.  0.
        -13    1    3    3    0    0 -0.31859832540E+02 -0.40848051939E+02 -0.22049683318E+02  0.56301083250E+02  0.10566000000E+00 0.  1.
         23    2    1    0    0    0 -0.34310818605E+02 -0.12788709578E+02 -0.15613172868E+02  0.85193536542E+02  0.75321870234E+02 0.  0.
         13    1    3    3    0    0 -0.24509860653E+01  0.28059342361E+02  0.64365104505E+01  0.28892453292E+02  0.10566000000E+00 0. -1.
         22    1    1    0    0    0  0.34310818605E+02  0.12788709578E+02  0.15613172868E+02  0.39806463458E+02  0.00000000000E+00 0.  1.
</event>
<event>
 5    1  0.1751020E-003  0.9118800E+02  0.7818608E-02  0.1130116E+00
         25   -1    0    0    0    0  0.00000000000E+00  0.00000000000E+00  0.99999998245E-14  0.12500000000E+03  0.12500000000E+03 0.  0.
        -13    1    3    3    0    0 -0.20888930171E+02  0.33212953906E+02 -0.58057920619E+01  0.39663157922E+02  0.10566000000E+00 0. -1.
         23    2    1    0    0    0  0.12489079843E+02 -0.68845802317E+01 -0.25788452586E+02  0.95531052835E+02  0.90872235631E+02 0.  0.
         13    1    3    3    0    0  0.33378010014E+02 -0.40097534137E+02 -0.19982660524E+02  0.55867894913E+02  0.10566000000E+00 0.  1.
         22    1    1    0    0    0 -0.12489079843E+02  0.68845802317E+01  0.25788452586E+02  0.29468947165E+02  0.00000000000E+00 0.  1.
</event>
<event>
 5    1  0.1751020E-003  0.9118800E+02  0.7818608E-02  0.1130116E+00
         25   -1    0    0    0    0  0.00000000000E+00  0.00000000000E+00  0.99999998245E-14  0.12500000000E+03  0.12500000000E+03 0.  0.
        -13    1    3    3    0    0 -0.41852419099E+02 -0.43227718562E+02  0.15735043146E+00  0.60168900270E+02  0.10566000000E+00 0. -1.
         23    2    1    0    0    0 -0.21862164686E+02 -0.17932098332E+02 -0.11531235563E+02  0.94463402466E+02  0.89391557859E+02 0.  0.
         13    1    3    3    0    0  0.19990254412E+02  0.25295620230E+02 -0.11688585995E+02  0.34294502196E+02  0.10566000000E+00 0.  1.
         22    1    1    0    0    0  0.21862164686E+02  0.17932098332E+02  0.11531235563E+02  0.30536597534E+02  0.00000000000E+00 0. -1.
</event>
<event>
 5    1  0.1751020E-003  0.9118800E+02  0.7818608E-02  0.1130116E+00
         25   -1    0    0    0    0  0.00000000000E+00  0.00000000000E+00  0.99999998245E-14  0.12500000000E+03  0.12500000000E+03 0.  0.
        -13    1    3    3    0    0  0.27083425331E+02 -0.60653882093E-01  0.38593662496E+02  0.47148675013E+02  0.10566000000E+00 0. -1.
         23    2    1    0    0    0  0.28174199832E+02  0.20923162296E+02  0.13867279372E+01  0.89878962558E+02  0.82732947727E+02 0.  0.
         13    1    3    3    0    0  0.10907745004E+01  0.20983816178E+02 -0.37206934559E+02  0.42730287546E+02  0.10566000000E+00 0.  1.
         22    1    1    0    0    0 -0.28174199832E+02 -0.20923162296E+02 -0.13867279372E+01  0.35121037442E+02  0.00000000000E+00 0. -1.
</event>
<event>
 5    1  0.1751020E-003  0.9118800E+02  0.7818608E-02  0.1130116E+00
         25   -1    0    0    0    0  0.00000000000E+00  0.00000000000E+00  0.99999998245E-14  0.12500000000E+03  0.12500000000E+03 0.  0.
        -13    1    3    3    0    0 -0.22226165378E+02 -0.21095318921E+02 -0.30414697891E+02  0.43174991831E+02  0.10566000000E+00 0. -1.
         23    2    1    0    0    0  0.16778288945E+02 -0.22146304444E+02  0.60323461462E+01  0.96568345450E+02  0.92288061863E+02 0.  0.
         13    1    3    3    0    0  0.39004454322E+02 -0.10509855233E+01  0.36447044037E+02  0.53393353619E+02  0.10566000000E+00 0.  1.
         22    1    1    0    0    0 -0.16778288945E+02  0.22146304444E+02 -0.60323461462E+01  0.28431654550E+02  0.00000000000E+00 0.  1.
</event>
<event>
 5    1  0.1751020E-003  0.9118800E+02  0.7818608E-02  0.1130116E+00
         25   -1    0    0    0    0  0.00000000000E+00  0.00000000000E+00  0.99999998245E-14  0.12500000000E+03  0.12500000000E+03 0.  0.
        -13    1    3    3    0    0  0.28011002326E+02 -0.33317071836E+01 -0.36946979071E+02  0.46484480750E+02  0.10566000000E+00 0. -1.
         23    2    1    0    0    0  0.21151903647E+02  0.18111026860E+02  0.73725402134E+01  0.96194329187E+02  0.91780075706E+02 0.  0.
         13    1    3    3    0    0 -0.68590986789E+01  0.21442734043E+02  0.44319519285E+02  0.49709848437E+02  0.10566000000E+00 0.  1.
         22    1    1    0    0    0 -0.21151903647E+02 -0.18111026860E+02 -0.73725402134E+01  0.28805670813E+02  0.00000000000E+00 0.  1.
</event>
<event>
 5    1  0.1751020E-003  0.9118800E+02  0.7818608E-02  0.1130116E+00
         25   -1    0    0    0    0  0.00000000000E+00  0.00000000000E+00  0.99999998245E-14  0.12500000000E+03  0.12500000000E+03 0.  0.
        -13    1    3    3    0    0 -0.31948042480E+02  0.29780918278E+02 -0.56565602543E+01  0.44040757824E+02  0.10566000000E+00 0.  1.
         23    2    1    0    0    0  0.34899979279E+01  0.25523869444E+02  0.23501244520E+02  0.90129432311E+02  0.83110517252E+02 0.  0.
         13    1    3    3    0    0  0.35438040408E+02 -0.42570488333E+01  0.29157804774E+02  0.46088674487E+02  0.10566000000E+00 0. -1.
         22    1    1    0    0    0 -0.34899979279E+01 -0.25523869444E+02 -0.23501244520E+02  0.34870567689E+02  0.00000000000E+00 0. -1.
</event>
<event>
 5    1  0.1751020E-003  0.9118800E+02  0.7818608E-02  0.1130116E+00
         25   -1    0    0    0    0  0.00000000000E+00  0.00000000000E+00  0.99999998245E-14  0.12500000000E+03  0.12500000000E+03 0.  0.
        -13    1    3    3    0    0  0.27961037851E+02  0.33780073282E+02 -0.34761960079E+02  0.55958181004E+02  0.10566000000E+00 0.  1.
         23    2    1    0    0    0  0.23573199758E+02 -0.91529371054E+00 -0.76790863506E+01  0.10019068972E+03  0.97070450859E+02 0.  0.
         13    1    3    3    0    0 -0.43878380933E+01 -0.34695366993E+02  0.27082873728E+02  0.44232508716E+02  0.10566000000E+00 0. -1.
         22    1    1    0    0    0 -0.23573199758E+02  0.91529371054E+00  0.76790863506E+01  0.24809310280E+02  0.00000000000E+00 0.  1.
</event>
<event>
 5    1  0.1751020E-003  0.9118800E+02  0.7818608E-02  0.1130116E+00
         25   -1    0    0    0    0  0.00000000000E+00  0.00000000000E+00  0.99999998245E-14  0.12500000000E+03  0.12500000000E+03 0.  0.
        -13    1    3    3    0    0 -0.14402847223E+02 -0.46478683927E+02 -0.86001209369E+01  0.49413392029E+02  0.10566000000E+00 0. -1.
         23    2    1    0    0    0  0.50965997028E+01 -0.97788896644E+01 -0.27725839629E+02  0.95161699198E+02  0.90362740106E+02 0.  0.
         13    1    3    3    0    0  0.19499446925E+02  0.36699794262E+02 -0.19125718692E+02  0.45748307169E+02  0.10566000000E+00 0.  1.
         22    1    1    0    0    0 -0.50965997028E+01  0.97788896644E+01  0.27725839629E+02  0.29838300802E+02  0.00000000000E+00 0. -1.
</event>
<event>
 5    1  0.1751020E-003  0.9118800E+02  0.7818608E-02  0.1130116E+00
         25   -1    0    0    0    0  0.00000000000E+00  0.00000000000E+00  0.99999998245E-14  0.12500000000E+03  0.12500000000E+03 0.  0.
        -13    1    3    3    0    0 -0.24518131745E+02  0.55174503381E+02  0.15506699087E+02  0.62336453927E+02  0.10566000000E+00 0. -1.
         23    2    1    0    0    0 -0.12030334165E+02  0.24168404455E+02  0.99828992786E+01  0.96216341581E+02  0.91810050622E+02 0.  0.
         13    1    3    3    0    0  0.12487797580E+02 -0.31006098926E+02 -0.55237998083E+01  0.33879887653E+02  0.10566000000E+00 0.  1.
         22    1    1    0    0    0  0.12030334165E+02 -0.24168404455E+02 -0.99828992786E+01  0.28783658419E+02  0.00000000000E+00 0. -1.
</event>
<event>
 5    1  0.1751020E-003  0.9118800E+02  0.7818608E-02  0.1130116E+00
         25   -1    0    0    0    0  0.00000000000E+00  0.00000000000E+00  0.99999998245E-14  0.12500000000E+03  0.12500000000E+03 0.  0.
        -13    1    3    3    0    0 -0.17965973335E+02  0.23489714825E+02 -0.22194827412E+01  0.29656030890E+02  0.10566000000E+00 0.  1.
         23    2    1    0    0    0  0.27457913564E+02 -0.18561991639E+02 -0.42203849808E+01  0.91588980855E+02  0.85277460174E+02 0.  0.
         13    1    3    3    0    0  0.45423886899E+02 -0.42051706465E+02 -0.20009022396E+01  0.61932949966E+02  0.10566000000E+00 0. -1.
         22    1    1    0    0    0 -0.27457913564E+02  0.18561991639E+02  0.42203849808E+01  0.33411019145E+02  0.00000000000E+00 0. -1.
</event>
<event>
 5    1  0.1751020E-003  0.9118800E+02  0.7818608E-02  0.1130116E+00
         25   -1    0    0    0    0  0.00000000000E+00  0.00000000000E+00  0.99999998245E-14  0.12500000000E+03  0.12500000000E+03 0.  0.
        -13    1    3    3    0    0 -0.14816563259E+02  0.58579043233E+02 -0.60683753310E+01  0.60727845310E+02  0.10566000000E+00 0.  1.
         23    2    1    0    0    0  0.28725204336E+01  0.31347198977E+02 -0.19456476435E+01  0.93461391881E+02  0.87979247383E+02 0.  0.
         13    1    3    3    0    0  0.17689083693E+02 -0.27231844255E+02  0.41227276876E+01  0.32733546570E+02  0.10566000000E+00 0. -1.
         22    1    1    0    0    0 -0.28725204336E+01 -0.31347198977E+02  0.19456476435E+01  0.31538608119E+02  0.00000000000E+00 0.  1.
</event>
<event>
 5    1  0.1751020E-003  0.9118800E+02  0.7818608E-02  0.1130116E+00
         25   -1    0    0    0    0  0.00000000000E+00  0.00000000000E+00  0.99999998245E-14  0.12500000000E+03  0.12500000000E+03 0.  0.
        -13    1    3    3    0    0 -0.39896988232E+01  0.37173471622E+02 -0.31495633654E+01  0.37519536279E+02  0.10566000000E+00 0. -1.
         23    2    1    0    0    0 -0.24828442052E+01 -0.12209461607E+02  0.26905881498E+02  0.95349335129E+02  0.90621927713E+02 0.  0.
         13    1    3    3    0    0  0.15068546180E+01 -0.49382933229E+02  0.30055444864E+02  0.57829798851E+02  0.10566000000E+00 0.  1.
         22    1    1    0    0    0  0.24828442052E+01  0.12209461607E+02 -0.26905881498E+02  0.29650664871E+02  0.00000000000E+00 0.  1.
</event>
<event>
 5    1  0.1751020E-003  0.9118800E+02  0.7818608E-02  0.1130116E+00
         25   -1    0    0    0    0  0.00000000000E+00  0.00000000000E+00  0.99999998245E-14  0.12500000000E+03  0.12500000000E+03 0.  0.
        -13    1    3    3    0    0  0.92761545362E+01  0.19293674206E+02 -0.50402035975E+02  0.54760106846E+02  0.10566000000E+00 0. -1.
         23    2    1    0    0    0 -0.16656989298E+02  0.13967399014E+02 -0.28723357134E+02  0.88978134797E+02  0.81360516833E+02 0.  0.
         13    1    3    3    0    0 -0.25933143834E+02 -0.53262751927E+01  0.21678678841E+02  0.34218027951E+02  0.10566000000E+00 0.  1.
         22    1    1    0    0    0  0.16656989298E+02 -0.13967399014E+02  0.28723357134E+02  0.36021865203E+02  0.00000000000E+00 0.  1.
</event>
<event>
 5    1  0.1751020E-003  0.9118800E+02  0.7818608E-02  0.1130116E+00
         25   -1    0    0    0    0  0.00000000000E+00  0.00000000000E+00  0.99999998245E-14  0.12500000000E+03  0.12500000000E+03 0.  0.
        -13    1    3    3    0    0 -0.14305928544E+02  0.52750374145E+02  0.35537712583E+01  0.54771361295E+02  0.10566000000E+00 0.  1.
         23    2    1    0    0    0 -0.14733032824E+02  0.15214319371E+02 -0.17246331756E+02  0.97687480359E+02  0.93791631235E+02 0.  0.
         13    1    3    3    0    0 -0.42710428023E+00 -0.37536054774E+02 -0.20800103014E+02  0.42916119064E+02  0.10566000000E+00 0. -1.
         22    1    1    0    0    0  0.14733032824E+02 -0.15214319371E+02  0.17246331756E+02  0.27312519641E+02  0.00000000000E+00 0. -1.
</event>
<event>
 5    1  0.1751020E-003  0.9118800E+02  0.7818608E-02  0.1130116E+00
         25   -1    0    0    0    0  0.00000000000E+00  0.00000000000E+00  0.99999998245E-14  0.12500000000E+03  0.12500000000E+03 0.  0.
        -13    1    3    3    0    0  0.27917783311E+02  0.35601457683E+02  0.23188397996E+01  0.45301816699E+02  0.10566000000E+00 0.  1.
         23    2    1    0    0    0  0.15512890878E+02 -0.55820759805E+01 -0.24115939813E+02  0.95787196151E+02  0.91223895103E+02 0.  0.
         13    1    3    3    0    0 -0.12404892433E+02 -0.41183533663E+02 -0.26434779612E+02  0.50485379452E+02  0.10566000000E+00 0. -1.
         22    1    1    0    0    0 -0.15512890878E+02  0.55820759805E+01  0.24115939813E+02  0.29212803849E+02  0.00000000000E+00 0. -1.
</event>
<event>
 5    1  0.1751020E-003  0.9118800E+02  0.7818608E-02  0.1130116E+00
         25   -1    0    0    0    0  0.00000000000E+00  0.00000000000E+00  0.99999998245E-14  0.12500000000E+03  0.12500000000E+03 0.  0.
        -13    1    3    3    0    0 -0.26493824695E+01 -0.19739105321E+02 -0.31843901214E+02  0.37559242736E+02  0.10566000000E+00 0. -1.
         23    2    1    0    0    0  0.20569754701E+02 -0.39985682063E+00  0.19188183993E+02  0.96867081579E+02  0.92691803277E+02 0.  0.
         13    1    3    3    0    0  0.23219137171E+02  0.19339248501E+02  0.51032085207E+02  0.59307838842E+02  0.10566000000E+00 0.  1.
         22    1    1    0    0    0 -0.20569754701E+02  0.39985682063E+00 -0.19188183993E+02  0.28132918421E+02  0.00000000000E+00 0.  1.
</event>
<event>
 5    1  0.1751020E-003  0.9118800E+02  0.7818608E-02  0.1130116E+00
         25   -1    0    0    0    0  0.00000000000E+00  0.00000000000E+00  0.99999998245E-14  0.12500000000E+03  0.12500000000E+03 0.  0.
        -13    1    3    3    0    0  0.34846471967E+02  0.19414254108E+01 -0.29958986470E+02  0.45995627787E+02  0.10566000000E+00 0. -1.
         23    2    1    0    0    0 -0.13440902119E+02 -0.10970454150E+02 -0.22584583118E+02  0.96520672258E+02  0.92223468079E+02 0.  0.
         13    1    3    3    0    0 -0.48287374086E+02 -0.12911879561E+02  0.73744033525E+01  0.50525044471E+02  0.10566000000E+00 0.  1.
         22    1    1    0    0    0  0.13440902119E+02  0.10970454150E+02  0.22584583118E+02  0.28479327742E+02  0.00000000000E+00 0. -1.
</event>
<event>
 5    1  0.1751020E-003  0.9118800E+02  0.7818608E-02  0.1130116E+00
         25   -1    0    0    0    0  0.00000000000E+00  0.00000000000E+00  0.99999998245E-14  0.12500000000E+03  0.12500000000E+03 0.  0.
        -13    1    3    3    0    0  0.25537039122E+02 -0.20935371473E+02 -0.43214742859E+02  0.54387087716E+02  0.10566000000E+00 0.  1.
         23    2    1    0    0    0 -0.91154603170E+01 -0.19024163432E+02 -0.14979629362E+02  0.99127240060E+02  0.95691222246E+02 0.  0.
         13    1    3    3    0    0 -0.34652499439E+02  0.19112080409E+01  0.28235113497E+02  0.44740152344E+02  0.10566000000E+00 0. -1.
         22    1    1    0    0    0  0.91154603170E+01  0.19024163432E+02  0.14979629362E+02  0.25872759940E+02  0.00000000000E+00 0.  1.
</event>
<event>
 5    1  0.1751020E-003  0.9118800E+02  0.7818608E-02  0.1130116E+00
         25   -1    0    0    0    0  0.00000000000E+00  0.00000000000E+00  0.99999998245E-14  0.12500000000E+03  0.12500000000E+03 0.  0.
        -13    1    3    3    0    0 -0.58948299038E+02  0.42415886021E+01  0.18248441845E+02  0.61853939463E+02  0.10566000000E+00 0.  1.
         23    2    1    0    0    0 -0.28904207021E+02 -0.38357826957E+01  0.63763831240E+01  0.95153313850E+02  0.90351139796E+02 0.  0.
         13    1    3    3    0    0  0.30044092017E+02 -0.80773712978E+01 -0.11872058721E+02  0.33299374386E+02  0.10566000000E+00 0. -1.
         22    1    1    0    0    0  0.28904207021E+02  0.38357826957E+01 -0.63763831240E+01  0.29846686150E+02  0.00000000000E+00 0.  1.
</event>
<event>
 5    1  0.1751020E-003  0.9118800E+02  0.7818608E-02  0.1130116E+00
         25   -1    0    0    0    0  0.00000000000E+00  0.00000000000E+00  0.99999998245E-14  0.12500000000E+03  0.12500000000E+03 0.  0.
        -13    1    3    3    0    0  0.20259698885E+02  0.51191298839E+02 -0.24201880882E+01  0.55107830208E+02  0.10566000000E+00 0.  1.
         23    2    1    0    0    0  0.24723618633E+02  0.10743622011E+02 -0.95108342665E+01  0.96414361986E+02  0.92079262033E+02 0.  0.
         13    1    3    3    0    0  0.44639197478E+01 -0.40447676828E+02 -0.70906461783E+01  0.41306531778E+02  0.10566000000E+00 0. -1.
         22    1    1    0    0    0 -0.24723618633E+02 -0.10743622011E+02  0.95108342665E+01  0.28585638014E+02  0.00000000000E+00 0.  1.
</event>
<event>
 5    1  0.1751020E-003  0.9118800E+02  0.7818608E-02  0.1130116E+00
         25   -1    0    0    0    0  0.00000000000E+00  0.00000000000E+00  0.99999998245E-14  0.12500000000E+03  0.12500000000E+03 0.  0.
        -13    1    3    3    0    0 -0.43288426514E+01  0.18328207845E+02 -0.28280091019E+02  0.33977003894E+02  0.10566000000E+00 0. -1.
         23    2    1    0    0    0 -0.15722388012E+02 -0.15625768959E+02  0.20711145823E+02  0.94663393373E+02  0.89670777532E+02 0.  0.
         13    1    3    3    0    0 -0.11393545361E+02 -0.33953976804E+02  0.48991236842E+02  0.60686389479E+02  0.10566000000E+00 0.  1.
         22    1    1    0    0    0  0.15722388012E+02  0.15625768959E+02 -0.20711145823E+02  0.30336606627E+02  0.00000000000E+00 0.  1.
</event>
<event>
 5    1  0.1751020E-003  0.9118800E+02  0.7818608E-02  0.1130116E+00
         25   -1    0    0    0    0  0.00000000000E+00  0.00000000000E+00  0.99999998245E-14  0.12500000000E+03  0.12500000000E+03 0.  0.
        -13    1    3    3    0    0 -0.18617602911E+01 -0.49142902179E+02  0.36605325830E+02  0.61306215257E+02  0.10566000000E+00 0. -1.
         23    2    1    0    0    0 -0.79364228813E+01 -0.27186016368E+02  0.13970590372E+02  0.93420834567E+02  0.87921605091E+02 0.  0.
         13    1    3    3    0    0 -0.60746625902E+01  0.21956885811E+02 -0.22634735458E+02  0.32114619310E+02  0.10566000000E+00 0.  1.
         22    1    1    0    0    0  0.79364228813E+01  0.27186016368E+02 -0.13970590372E+02  0.31579165433E+02  0.00000000000E+00 0. -1.
</event>
<event>
 5    1  0.1751020E-003  0.9118800E+02  0.7818608E-02  0.1130116E+00
         25   -1    0    0    0    0  0.00000000000E+00  0.00000000000E+00  0.99999998245E-14  0.12500000000E+03  0.12500000000E+03 0.  0.
        -13    1    3    3    0    0  0.20423397195E+02 -0.32769913361E+02 -0.43542103798E+02  0.58197150633E+02  0.10566000000E+00 0.  1.
         23    2    1    0    0    0  0.52027884405E+01 -0.12098296800E+01 -0.27942342589E+02  0.96551674834E+02  0.92265479506E+02 0.  0.
         13    1    3    3    0    0 -0.15220608755E+02  0.31560083681E+02  0.15599761209E+02  0.38354524200E+02  0.10566000000E+00 0. -1.
         22    1    1    0    0    0 -0.52027884405E+01  0.12098296800E+01  0.27942342589E+02  0.28448325166E+02  0.00000000000E+00 0.  1.
</event>
<event>
 5    1  0.1751020E-003  0.9118800E+02  0.7818608E-02  0.1130116E+00
         25   -1    0    0    0    0  0.00000000000E+00  0.00000000000E+00  0.99999998245E-14  0.12500000000E+03  0.12500000000E+03 0.  0.
        -13    1    3    3    0    0 -0.15360955455E+02  0.37231689751E+01  0.32045545917E+02  0.35731626284E+02  0.10566000000E+00 0.  1.
         23    2    1    0    0    0  0.18190005160E+02 -0.17913136345E+02 -0.13354963941E+02  0.96188339108E+02  0.91771917148E+02 0.  0.
         13    1    3    3    0    0  0.33550960615E+02 -0.21636305320E+02 -0.45400509858E+02  0.60456712825E+02  0.10566000000E+00 0. -1.
         22    1    1    0    0    0 -0.18190005160E+02  0.17913136345E+02  0.13354963941E+02  0.28811660892E+02  0.00000000000E+00 0. -1.
</event>
<event>
 5    1  0.1751020E-003  0.9118800E+02  0.7818608E-02  0.1130116E+00
         25   -1    0    0    0    0  0.00000000000E+00  0.00000000000E+00  0.99999998245E-14  0.12500000000E+03  0.12500000000E+03 0.  0.
        -13    1    3    3    0    0  0.40939271869E+02 -0.52356696299E+01 -0.25241058015E+02  0.48379317806E+02  0.10566000000E+00 0.  1.
         23    2    1    0    0    0 -0.47465008778E+01 -0.22375423565E+02 -0.13015874733E+02  0.98682670246E+02  0.95108714436E+02 0.  0.
         13    1    3    3    0    0 -0.45685772747E+02 -0.17139753935E+02  0.12225183282E+02  0.50303352440E+02  0.10566000000E+00 0. -1.
         22    1    1    0    0    0  0.47465008778E+01  0.22375423565E+02  0.13015874733E+02  0.26317329754E+02  0.00000000000E+00 0.  1.
</event>
<event>
 5    1  0.1751020E-003  0.9118800E+02  0.7818608E-02  0.1130116E+00
         25   -1    0    0    0    0  0.00000000000E+00  0.00000000000E+00  0.99999998245E-14  0.12500000000E+03  0.12500000000E+03 0.  0.
        -13    1    3    3    0    0 -0.39393161260E+02  0.14976386176E+02 -0.54994665881E+01  0.42501395197E+02  0.10566000000E+00 0.  1.
         23    2    1    0    0    0 -0.41175190711E+01  0.27113184420E+01  0.30339340368E+02  0.94262713442E+02  0.89110484010E+02 0.  0.
         13    1    3    3    0    0  0.35275642189E+02 -0.12265067734E+02  0.35838806956E+02  0.51761318245E+02  0.10566000000E+00 0. -1.
         22    1    1    0    0    0  0.41175190711E+01 -0.27113184420E+01 -0.30339340368E+02  0.30737286558E+02  0.00000000000E+00 0. -1.
</event>
<event>
 5    1  0.1751020E-003  0.9118800E+02  0.7818608E-02  0.1130116E+00
         25   -1    0    0    0    0  0.00000000000E+00  0.00000000000E+00  0.99999998245E-14  0.12500000000E+03  0.12500000000E+03 0.  0.
        -13    1    3    3    0    0  0.49525598965E+02 -0.14078655305E+02  0.17867883142E+02  0.54500145872E+02  0.10566000000E+00 0.  1.
         23    2    1    0    0    0  0.20469373003E+02 -0.18140447451E+02 -0.10869425843E+02  0.95568461084E+02  0.90923678274E+02 0.  0.
         13    1    3    3    0    0 -0.29056225962E+02 -0.40617921453E+01 -0.28737308985E+02  0.41068315212E+02  0.10566000000E+00 0. -1.
         22    1    1    0    0    0 -0.20469373003E+02  0.18140447451E+02  0.10869425843E+02  0.29431538916E+02  0.00000000000E+00 0.  1.
</event>
<event>
 5    1  0.1751020E-003  0.9118800E+02  0.7818608E-02  0.1130116E+00
         25   -1    0    0    0    0  0.00000000000E+00  0.00000000000E+00  0.99999998245E-14  0.12500000000E+03  0.12500000000E+03 0.  0.
        -13    1    3    3    0    0  0.29059047270E+02  0.44741439353E+01  0.49228834311E+02  0.57340522180E+02  0.10566000000E+00 0. -1.
         23    2    1    0    0    0  0.13979366422E+02  0.19099400881E+02  0.16815485177E+02  0.95966048472E+02  0.91468640080E+02 0.  0.
         13    1    3    3    0    0 -0.15079680848E+02  0.14625256946E+02 -0.32413349134E+02  0.38625526292E+02  0.10566000000E+00 0.  1.
         22    1    1    0    0    0 -0.13979366422E+02 -0.19099400881E+02 -0.16815485177E+02  0.29033951528E+02  0.00000000000E+00 0.  1.
</event>
<event>
 5    1  0.1751020E-003  0.9118800E+02  0.7818608E-02  0.1130116E+00
         25   -1    0    0    0    0  0.00000000000E+00  0.00000000000E+00  0.99999998245E-14  0.12500000000E+03  0.12500000000E+03 0.  0.
        -13    1    3    3    0    0 -0.29209257951E+02 -0.35828358875E+02  0.39874941239E+02  0.61048129804E+02  0.10566000000E+00 0.  1.
         23    2    1    0    0    0 -0.39520615317E+01 -0.17432963486E+02  0.20443901060E+02  0.97843415222E+02  0.93999222366E+02 0.  0.
         13    1    3    3    0    0  0.25257196420E+02  0.18395395389E+02 -0.19431040179E+02  0.36795285418E+02  0.10566000000E+00 0. -1.
         22    1    1    0    0    0  0.39520615317E+01  0.17432963486E+02 -0.20443901060E+02  0.27156584778E+02  0.00000000000E+00 0.  1.
</event>
<event>
 5    1  0.1751020E-003  0.9118800E+02  0.7818608E-02  0.1130116E+00
         25   -1    0    0    0    0  0.00000000000E+00  0.00000000000E+00  0.99999998245E-14  0.12500000000E+03  0.12500000000E+03 0.  0.
        -13    1    3    3    0    0 -0.23150276729E+02  0.24144662331E+02  0.52134067511E+02  0.61942490998E+02  0.10566000000E+00 0.  1.
         23    2    1    0    0    0 -0.72772444232E+01  0.15867871321E+02  0.23219438392E+02  0.95950216079E+02  0.91447001152E+02 0.  0.
         13    1    3    3    0    0  0.15873032306E+02 -0.82767910097E+01 -0.28914629120E+02  0.34007725081E+02  0.10566000000E+00 0. -1.
         22    1    1    0    0    0  0.72772444232E+01 -0.15867871321E+02 -0.23219438392E+02  0.29049783921E+02  0.00000000000E+00 0.  1.
</event>
<event>
 5    1  0.1751020E-003  0.9118800E+02  0.7818608E-02  0.1130116E+00
         25   -1    0    0    0    0  0.00000000000E+00  0.00000000000E+00  0.99999998245E-14  0.12500000000E+03  0.12500000000E+03 0.  0.
        -13    1    3    3    0    0 -0.41278757095E+02 -0.22976695201E+02 -0.37022519179E+02  0.60021182928E+02  0.10566000000E+00 0.  1.
         23    2    1    0    0    0 -0.22054214974E+02  0.13232959513E+01 -0.18955420273E+02  0.95889049001E+02  0.91363352885E+02 0.  0.
         13    1    3    3    0    0  0.19224542121E+02  0.24299991152E+02  0.18067098906E+02  0.35867866074E+02  0.10566000000E+00 0. -1.
         22    1    1    0    0    0  0.22054214974E+02 -0.13232959513E+01  0.18955420273E+02  0.29110950999E+02  0.00000000000E+00 0.  1.
</event>
<event>
 5    1  0.1751020E-003  0.9118800E+02  0.7818608E-02  0.1130116E+00
         25   -1    0    0    0    0  0.00000000000E+00  0.00000000000E+00  0.99999998245E-14  0.12500000000E+03  0.12500000000E+03 0.  0.
        -13    1    3    3    0    0  0.22959916252E+02  0.14535917561E+02  0.26054038392E+02  0.37646709474E+02  0.10566000000E+00 0. -1.
         23    2    1    0    0    0 -0.28225972823E+02 -0.38282286750E+01  0.44102519086E+01  0.96176204301E+02  0.91755387173E+02 0.  0.
         13    1    3    3    0    0 -0.51185889075E+02 -0.18364146236E+02 -0.21643786483E+02  0.58529494827E+02  0.10566000000E+00 0.  1.
         22    1    1    0    0    0  0.28225972823E+02  0.38282286750E+01 -0.44102519086E+01  0.28823795699E+02  0.00000000000E+00 0.  1.
</event>
<event>
 5    1  0.1751020E-003  0.9118800E+02  0.7818608E-02  0.1130116E+00
         25   -1    0    0    0    0  0.00000000000E+00  0.00000000000E+00  0.99999998245E-14  0.12500000000E+03  0.12500000000E+03 0.  0.
        -13    1    3    3    0    0  0.12084109101E+02 -0.32050569047E+02 -0.23097500274E+02  0.41313077251E+02  0.10566000000E+00 0. -1.
         23    2    1    0    0    0  0.20157337458E+02  0.69011572533E+01  0.16960807774E+02  0.97767423457E+02  0.93898114274E+02 0.  0.
         13    1    3    3    0    0  0.80732283564E+01  0.38951726300E+02  0.40058308048E+02  0.56454346206E+02  0.10566000000E+00 0.  1.
         22    1    1    0    0    0 -0.20157337458E+02 -0.69011572533E+01 -0.16960807774E+02  0.27232576543E+02  0.00000000000E+00 0.  1.
</event>
<event>
 5    1  0.1751020E-003  0.9118800E+02  0.7818608E-02  0.1130116E+00
         25   -1    0    0    0    0  0.00000000000E+00  0.00000000000E+00  0.99999998245E-14  0.12500000000E+03  0.12500000000E+03 0.  0.
        -13    1    3    3    0    0  0.22669725773E+02 -0.25223285486E+02  0.50712328639E+02  0.61007229386E+02  0.10566000000E+00 0.  1.
         23    2    1    0    0    0  0.14514424705E+02 -0.30769209633E+01  0.25161421382E+02  0.95789846062E+02  0.91227526084E+02 0.  0.
         13    1    3    3    0    0 -0.81553010681E+01  0.22146364523E+02 -0.25550907257E+02  0.34782616676E+02  0.10566000000E+00 0. -1.
         22    1    1    0    0    0 -0.14514424705E+02  0.30769209633E+01 -0.25161421382E+02  0.29210153938E+02  0.00000000000E+00 0.  1.
</event>
<event>
 5    1  0.1751020E-003  0.9118800E+02  0.7818608E-02  0.1130116E+00
         25   -1    0    0    0    0  0.00000000000E+00  0.00000000000E+00  0.99999998245E-14  0.12500000000E+03  0.12500000000E+03 0.  0.
        -13    1    3    3    0    0 -0.14665028605E+02  0.32954725807E+02  0.11233054529E+02  0.37779223061E+02  0.10566000000E+00 0. -1.
         23    2    1    0    0    0  0.26376101976E+02  0.84032662714E+01 -0.16212783903E+02  0.92919351606E+02  0.87205721725E+02 0.  0.
         13    1    3    3    0    0  0.41041130581E+02 -0.24551459535E+02 -0.27445838432E+02  0.55140128545E+02  0.10566000000E+00 0.  1.
         22    1    1    0    0    0 -0.26376101976E+02 -0.84032662714E+01  0.16212783903E+02  0.32080648394E+02  0.00000000000E+00 0.  1.
</event>
<event>
 5    1  0.1751020E-003  0.9118800E+02  0.7818608E-02  0.1130116E+00
         25   -1    0    0    0    0  0.00000000000E+00  0.00000000000E+00  0.99999998245E-14  0.12500000000E+03  0.12500000000E+03 0.  0.
        -13    1    3    3    0    0 -0.17065943471E+02 -0.25588365572E+02  0.32243609128E+02  0.44560883887E+02  0.10566000000E+00 0.  1.
         23    2    1    0    0    0 -0.43757882826E+01  0.22328595113E+02  0.17558833592E+02  0.96259326384E+02  0.91868556078E+02 0.  0.
         13    1    3    3    0    0  0.12690155188E+02  0.47916960685E+02 -0.14684775536E+02  0.51698442496E+02  0.10566000000E+00 0. -1.
         22    1    1    0    0    0  0.43757882826E+01 -0.22328595113E+02 -0.17558833592E+02  0.28740673616E+02  0.00000000000E+00 0. -1.
</event>
<event>
 5    1  0.1751020E-003  0.9118800E+02  0.7818608E-02  0.1130116E+00
         25   -1    0    0    0    0  0.00000000000E+00  0.00000000000E+00  0.99999998245E-14  0.12500000000E+03  0.12500000000E+03 0.  0.
        -13    1    3    3    0    0 -0.47306535879E+02  0.40344925582E+00 -0.19515514340E+02  0.51175556394E+02  0.10566000000E+00 0. -1.
         23    2    1    0    0    0 -0.56765531228E+01  0.94442155185E+01 -0.28263092365E+02  0.94664890768E+02  0.89672864858E+02 0.  0.
         13    1    3    3    0    0  0.41629982757E+02  0.90407662627E+01 -0.87475780249E+01  0.43489334374E+02  0.10566000000E+00 0.  1.
         22    1    1    0    0    0  0.56765531228E+01 -0.94442155185E+01  0.28263092365E+02  0.30335109232E+02  0.00000000000E+00 0.  1.
</event>
<event>
 5    1  0.1751020E-003  0.9118800E+02  0.7818608E-02  0.1130116E+00
         25   -1    0    0    0    0  0.00000000000E+00  0.00000000000E+00  0.99999998245E-14  0.12500000000E+03  0.12500000000E+03 0.  0.
        -13    1    3    3    0    0 -0.59102673165E+01 -0.15204056118E+02  0.34469628641E+02  0.38134774746E+02  0.10566000000E+00 0.  1.
         23    2    1    0    0    0  0.23619448002E+02  0.12722060150E+02 -0.80852635093E+01  0.96980352886E+02  0.92844430212E+02 0.  0.
         13    1    3    3    0    0  0.29529715319E+02  0.27926116269E+02 -0.42554892151E+02  0.58845578140E+02  0.10566000000E+00 0. -1.
         22    1    1    0    0    0 -0.23619448002E+02 -0.12722060150E+02  0.80852635093E+01  0.28019647114E+02  0.00000000000E+00 0. -1.
</event>
<event>
 5    1  0.1751020E-003  0.9118800E+02  0.7818608E-02  0.1130116E+00
         25   -1    0    0    0    0  0.00000000000E+00  0.00000000000E+00  0.99999998245E-14  0.12500000000E+03  0.12500000000E+03 0.  0.
        -13    1    3    3    0    0  0.29632474565E+02 -0.35075257121E+02  0.26938127051E+02  0.53235618378E+02  0.10566000000E+00 0.  1.
         23    2    1    0    0    0  0.33571319805E+02 -0.24732590972E+01  0.12871277039E+02  0.88960850501E+02  0.81333957393E+02 0.  0.
         13    1    3    3    0    0  0.39388452396E+01  0.32601998024E+02 -0.14066850012E+02  0.35725232123E+02  0.10566000000E+00 0. -1.
         22    1    1    0    0    0 -0.33571319805E+02  0.24732590972E+01 -0.12871277039E+02  0.36039149499E+02  0.00000000000E+00 0.  1.
</event>
<event>
 5    1  0.1751020E-003  0.9118800E+02  0.7818608E-02  0.1130116E+00
         25   -1    0    0    0    0  0.00000000000E+00  0.00000000000E+00  0.99999998245E-14  0.12500000000E+03  0.12500000000E+03 0.  0.
        -13    1    3    3    0    0  0.22420020719E+02  0.20376664962E+01 -0.30608922415E+02  0.37996403899E+02  0.10566000000E+00 0.  1.
         23    2    1    0    0    0 -0.10594016646E+02 -0.22336111269E+01  0.22130340651E+02  0.10036315392E+03  0.97292283766E+02 0.  0.
         13    1    3    3    0    0 -0.33014037365E+02 -0.42712776230E+01  0.52739263066E+02  0.62366750023E+02  0.10566000000E+00 0. -1.
         22    1    1    0    0    0  0.10594016646E+02  0.22336111269E+01 -0.22130340651E+02  0.24636846078E+02  0.00000000000E+00 0. -1.
</event>
<event>
 5    1  0.1751020E-003  0.9118800E+02  0.7818608E-02  0.1130116E+00
         25   -1    0    0    0    0  0.00000000000E+00  0.00000000000E+00  0.99999998245E-14  0.12500000000E+03  0.12500000000E+03 0.  0.
        -13    1    3    3    0    0  0.13962661631E+02 -0.30665670718E+02 -0.30018022853E+02  0.45126845009E+02  0.10566000000E+00 0.  1.
         23    2    1    0    0    0 -0.74466483106E+01 -0.13397976788E+02  0.18546185712E+02  0.10093925692E+03  0.98029659951E+02 0.  0.
         13    1    3    3    0    0 -0.21409309942E+02  0.17267693930E+02  0.48564208565E+02  0.55812411912E+02  0.10566000000E+00 0. -1.
         22    1    1    0    0    0  0.74466483106E+01  0.13397976788E+02 -0.18546185712E+02  0.24060743079E+02  0.00000000000E+00 0. -1.
</event>
<event>
 5    1  0.1751020E-003  0.9118800E+02  0.7818608E-02  0.1130116E+00
         25   -1    0    0    0    0  0.00000000000E+00  0.00000000000E+00  0.99999998245E-14  0.12500000000E+03  0.12500000000E+03 0.  0.
        -13    1    3    3    0    0  0.25429518432E+02  0.21281090412E+02  0.58408607512E+01  0.33670046557E+02  0.10566000000E+00 0. -1.
         23    2    1    0    0    0 -0.21090841261E+02 -0.19905862381E+02  0.12693615612E+01  0.95971079576E+02  0.91475515270E+02 0.  0.
         13    1    3    3    0    0 -0.46520359693E+02 -0.41186952793E+02 -0.45714991900E+01  0.62301033019E+02  0.10566000000E+00 0.  1.
         22    1    1    0    0    0  0.21090841261E+02  0.19905862381E+02 -0.12693615612E+01  0.29028920424E+02  0.00000000000E+00 0.  1.
</event>
<event>
 5    1  0.1751020E-003  0.9118800E+02  0.7818608E-02  0.1130116E+00
         25   -1    0    0    0    0  0.00000000000E+00  0.00000000000E+00  0.99999998245E-14  0.12500000000E+03  0.12500000000E+03 0.  0.
        -13    1    3    3    0    0 -0.10576155524E+02 -0.36650929039E+02 -0.19925608717E+02  0.43037038837E+02  0.10566000000E+00 0. -1.
         23    2    1    0    0    0 -0.26601722318E+02  0.35716318664E+01  0.10736149265E+02  0.96091989251E+02  0.91640587692E+02 0.  0.
         13    1    3    3    0    0 -0.16025566794E+02  0.40222560905E+02  0.30661757982E+02  0.53054950414E+02  0.10566000000E+00 0.  1.
         22    1    1    0    0    0  0.26601722318E+02 -0.35716318664E+01 -0.10736149265E+02  0.28908010749E+02  0.00000000000E+00 0.  1.
</event>
<event>
 5    1  0.1751020E-003  0.9118800E+02  0.7818608E-02  0.1130116E+00
         25   -1    0    0    0    0  0.00000000000E+00  0.00000000000E+00  0.99999998245E-14  0.12500000000E+03  0.12500000000E+03 0.  0.
        -13    1    3    3    0    0  0.54142572475E+00  0.37921292677E+02 -0.41689450133E+01  0.38153752720E+02  0.10566000000E+00 0.  1.
         23    2    1    0    0    0 -0.99775098734E+01 -0.78757385756E+01  0.27421776527E+02  0.94775311593E+02  0.89826654720E+02 0.  0.
         13    1    3    3    0    0 -0.10518935598E+02 -0.45797031252E+02  0.31590721541E+02  0.56621558872E+02  0.10566000000E+00 0. -1.
         22    1    1    0    0    0  0.99775098734E+01  0.78757385756E+01 -0.27421776527E+02  0.30224688407E+02  0.00000000000E+00 0.  1.
</event>
<event>
 5    1  0.1751020E-003  0.9118800E+02  0.7818608E-02  0.1130116E+00
         25   -1    0    0    0    0  0.00000000000E+00  0.00000000000E+00  0.99999998245E-14  0.12500000000E+03  0.12500000000E+03 0.  0.
        -13    1    3    3    0    0 -0.28717354335E+02  0.10807809779E+02 -0.22215594523E+02  0.37881908562E+02  0.10566000000E+00 0. -1.
         23    2    1    0    0    0  0.27284137337E+02  0.97607338845E+00 -0.54561749232E+01  0.97158543245E+02  0.93084025542E+02 0.  0.
         13    1    3    3    0    0  0.56001491672E+02 -0.98317363910E+01  0.16759419600E+02  0.59276634683E+02  0.10566000000E+00 0.  1.
         22    1    1    0    0    0 -0.27284137337E+02 -0.97607338845E+00  0.54561749232E+01  0.27841456755E+02  0.00000000000E+00 0.  1.
</event>
<event>
 5    1  0.1751020E-003  0.9118800E+02  0.7818608E-02  0.1130116E+00
         25   -1    0    0    0    0  0.00000000000E+00  0.00000000000E+00  0.99999998245E-14  0.12500000000E+03  0.12500000000E+03 0.  0.
        -13    1    3    3    0    0 -0.30877430908E+02 -0.24990090715E+01  0.16653609423E+02  0.35171219152E+02  0.10566000000E+00 0. -1.
         23    2    1    0    0    0  0.20722804522E+02  0.17385058873E+02 -0.94839154021E+01  0.96336093242E+02  0.91972948797E+02 0.  0.
         13    1    3    3    0    0  0.51600235430E+02  0.19884067944E+02 -0.26137524825E+02  0.61164874090E+02  0.10566000000E+00 0.  1.
         22    1    1    0    0    0 -0.20722804522E+02 -0.17385058873E+02  0.94839154021E+01  0.28663906758E+02  0.00000000000E+00 0.  1.
</event>
<event>
 5    1  0.1751020E-003  0.9118800E+02  0.7818608E-02  0.1130116E+00
         25   -1    0    0    0    0  0.00000000000E+00  0.00000000000E+00  0.99999998245E-14  0.12500000000E+03  0.12500000000E+03 0.  0.
        -13    1    3    3    0    0 -0.29506846519E+02 -0.15325019889E+02 -0.42894765450E+02  0.54272297659E+02  0.10566000000E+00 0.  1.
         23    2    1    0    0    0 -0.27546698293E+02  0.38707296801E+01 -0.50842363924E+01  0.96721870733E+02  0.92495771165E+02 0.  0.
         13    1    3    3    0    0  0.19601482254E+01  0.19195749569E+02  0.37810529058E+02  0.42449573075E+02  0.10566000000E+00 0. -1.
         22    1    1    0    0    0  0.27546698293E+02 -0.38707296801E+01  0.50842363924E+01  0.28278129267E+02  0.00000000000E+00 0.  1.
</event>
<event>
 5    1  0.1751020E-003  0.9118800E+02  0.7818608E-02  0.1130116E+00
         25   -1    0    0    0    0  0.00000000000E+00  0.00000000000E+00  0.99999998245E-14  0.12500000000E+03  0.12500000000E+03 0.  0.
        -13    1    3    3    0    0  0.15894931357E+02 -0.63017122369E+01  0.29011318332E+02  0.33675334822E+02  0.10566000000E+00 0. -1.
         23    2    1    0    0    0 -0.20028550409E+02  0.20283359900E+02 -0.11754609835E+02  0.94166116484E+02  0.88974879156E+02 0.  0.
         13    1    3    3    0    0 -0.35923481766E+02  0.26585072137E+02 -0.40765928167E+02  0.60490781662E+02  0.10566000000E+00 0.  1.
         22    1    1    0    0    0  0.20028550409E+02 -0.20283359900E+02  0.11754609835E+02  0.30833883516E+02  0.00000000000E+00 0.  1.
</event>
<event>
 5    1  0.1751020E-003  0.9118800E+02  0.7818608E-02  0.1130116E+00
         25   -1    0    0    0    0  0.00000000000E+00  0.00000000000E+00  0.99999998245E-14  0.12500000000E+03  0.12500000000E+03 0.  0.
        -13    1    3    3    0    0 -0.55917715008E+00  0.22305024938E+02 -0.40115325136E+02  0.45902911579E+02  0.10566000000E+00 0.  1.
         23    2    1    0    0    0 -0.17709763260E+02 -0.17455140479E+02 -0.14329842065E+02  0.96300487504E+02  0.91924544470E+02 0.  0.
         13    1    3    3    0    0 -0.17150586110E+02 -0.39760165417E+02  0.25785483071E+02  0.50397575925E+02  0.10566000000E+00 0. -1.
         22    1    1    0    0    0  0.17709763260E+02  0.17455140479E+02  0.14329842065E+02  0.28699512496E+02  0.00000000000E+00 0.  1.
</event>
<event>
 5    1  0.1751020E-003  0.9118800E+02  0.7818608E-02  0.1130116E+00
         25   -1    0    0    0    0  0.00000000000E+00  0.00000000000E+00  0.99999998245E-14  0.12500000000E+03  0.12500000000E+03 0.  0.
        -13    1    3    3    0    0 -0.13721982477E+02  0.15158818516E+02 -0.27156051238E+02  0.33993306176E+02  0.10566000000E+00 0. -1.
         23    2    1    0    0    0  0.19211647390E+02 -0.16416761380E+02  0.14577400371E+02  0.95826415180E+02  0.91277619355E+02 0.  0.
         13    1    3    3    0    0  0.32933629867E+02 -0.31575579895E+02  0.41733451609E+02  0.61833109005E+02  0.10566000000E+00 0.  1.
         22    1    1    0    0    0 -0.19211647390E+02  0.16416761380E+02 -0.14577400371E+02  0.29173584820E+02  0.00000000000E+00 0.  1.
</event>
<event>
 4    1  0.1751020E-003  0.9118800E+02  0.7818608E-02  0.1130116E+00
         25   -1    0    0    0    0  0.00000000000E+00  0.00000000000E+00  0.99999998245E-14  0.12500000000E+03  0.12500000000E+03 0.  0.
        -13    1    1    0    0    0 -0.11809090121E+02 -0.17179934094E+02 -0.14753197777E+02  0.25539631040E+02  0.10566000000E+00 0.  1.
         13    1    1    0    0    0 -0.99878597749E+01  0.40303580138E+02 -0.25076345893E+02  0.48507424197E+02  0.10566000000E+00 0. -1.
         22    1    1    0    0    0  0.21796949895E+02 -0.23123646044E+02  0.39829543670E+02  0.50952944763E+02  0.00000000000E+00 0. -1.
</event>
<event>
 5    1  0.1751020E-003  0.9118800E+02  0.7818608E-02  0.1130116E+00
         25   -1    0    0    0    0  0.00000000000E+00  0.00000000000E+00  0.99999998245E-14  0.12500000000E+03  0.12500000000E+03 0.  0.
        -13    1    3    3    0    0  0.18699479951E+02  0.33746318666E+02  0.29506251827E+01  0.38693693633E+02  0.10566000000E+00 0. -1.
         23    2    1    0    0    0  0.15888739062E+02 -0.23792391889E+02  0.21932950289E+01  0.96306089778E+02  0.91932162187E+02 0.  0.
         13    1    3    3    0    0 -0.28107408887E+01 -0.57538710554E+02 -0.75733015375E+00  0.57612396145E+02  0.10566000000E+00 0.  1.
         22    1    1    0    0    0 -0.15888739062E+02  0.23792391889E+02 -0.21932950289E+01  0.28693910222E+02  0.00000000000E+00 0.  1.
</event>
<event>
 5    1  0.1751020E-003  0.9118800E+02  0.7818608E-02  0.1130116E+00
         25   -1    0    0    0    0  0.00000000000E+00  0.00000000000E+00  0.99999998245E-14  0.12500000000E+03  0.12500000000E+03 0.  0.
        -13    1    3    3    0    0  0.42526580700E+01 -0.20480607261E+02 -0.41116219152E+02  0.46131280232E+02  0.10566000000E+00 0.  1.
         23    2    1    0    0    0  0.40596441508E+01  0.21211318198E+02 -0.27589384002E+02  0.89963235881E+02  0.82860177228E+02 0.  0.
         13    1    3    3    0    0 -0.19301391926E+00  0.41691925458E+02  0.13526835151E+02  0.43831955649E+02  0.10566000000E+00 0. -1.
         22    1    1    0    0    0 -0.40596441508E+01 -0.21211318198E+02  0.27589384002E+02  0.35036764119E+02  0.00000000000E+00 0. -1.
</event>
<event>
 5    1  0.1751020E-003  0.9118800E+02  0.7818608E-02  0.1130116E+00
         25   -1    0    0    0    0  0.00000000000E+00  0.00000000000E+00  0.99999998245E-14  0.12500000000E+03  0.12500000000E+03 0.  0.
        -13    1    3    3    0    0 -0.62350656129E+00  0.25511324766E+02  0.30821710233E+02  0.40015065132E+02  0.10566000000E+00 0.  1.
         23    2    1    0    0    0 -0.27769352227E+02 -0.11222365110E+02  0.12310000425E+00  0.95048479916E+02  0.90205986381E+02 0.  0.
         13    1    3    3    0    0 -0.27145845665E+02 -0.36733689876E+02 -0.30698610229E+02  0.55033414784E+02  0.10566000000E+00 0. -1.
         22    1    1    0    0    0  0.27769352227E+02  0.11222365110E+02 -0.12310000425E+00  0.29951520084E+02  0.00000000000E+00 0. -1.
</event>
<event>
 5    1  0.1751020E-003  0.9118800E+02  0.7818608E-02  0.1130116E+00
         25   -1    0    0    0    0  0.00000000000E+00  0.00000000000E+00  0.99999998245E-14  0.12500000000E+03  0.12500000000E+03 0.  0.
        -13    1    3    3    0    0 -0.33232147671E+02  0.71516023621E+01 -0.16617727087E+02  0.37837561665E+02  0.10566000000E+00 0.  1.
         23    2    1    0    0    0  0.19256325221E+02  0.22746451575E+02  0.45502693044E+00  0.95193722645E+02  0.90407027720E+02 0.  0.
         13    1    3    3    0    0  0.52488472893E+02  0.15594849213E+02  0.17072754017E+02  0.57356160980E+02  0.10566000000E+00 0. -1.
         22    1    1    0    0    0 -0.19256325221E+02 -0.22746451575E+02 -0.45502693044E+00  0.29806277355E+02  0.00000000000E+00 0. -1.
</event>
<event>
 5    1  0.1751020E-003  0.9118800E+02  0.7818608E-02  0.1130116E+00
         25   -1    0    0    0    0  0.00000000000E+00  0.00000000000E+00  0.99999998245E-14  0.12500000000E+03  0.12500000000E+03 0.  0.
        -13    1    3    3    0    0  0.79413304560E+01  0.29610163040E+02 -0.52902912485E+02  0.61143730652E+02  0.10566000000E+00 0.  1.
         23    2    1    0    0    0  0.28669717411E+01  0.55013829278E+01 -0.28543441749E+02  0.95790193292E+02  0.91228001857E+02 0.  0.
         13    1    3    3    0    0 -0.50743587149E+01 -0.24108780112E+02  0.24359470736E+02  0.34646462640E+02  0.10566000000E+00 0. -1.
         22    1    1    0    0    0 -0.28669717411E+01 -0.55013829278E+01  0.28543441749E+02  0.29209806708E+02  0.00000000000E+00 0.  1.
</event>
<event>
 5    1  0.1751020E-003  0.9118800E+02  0.7818608E-02  0.1130116E+00
         25   -1    0    0    0    0  0.00000000000E+00  0.00000000000E+00  0.99999998245E-14  0.12500000000E+03  0.12500000000E+03 0.  0.
        -13    1    3    3    0    0 -0.17771218003E+02 -0.73295507265E+01 -0.52735178606E+02  0.56129749062E+02  0.10566000000E+00 0. -1.
         23    2    1    0    0    0 -0.24616731689E+02  0.42092282546E+01 -0.15747527648E+02  0.95475675985E+02  0.90796029628E+02 0.  0.
         13    1    3    3    0    0 -0.68455136864E+01  0.11538778981E+02  0.36987650958E+02  0.39345926923E+02  0.10566000000E+00 0.  1.
         22    1    1    0    0    0  0.24616731689E+02 -0.42092282546E+01  0.15747527648E+02  0.29524324015E+02  0.00000000000E+00 0. -1.
</event>
<event>
 5    1  0.1751020E-003  0.9118800E+02  0.7818608E-02  0.1130116E+00
         25   -1    0    0    0    0  0.00000000000E+00  0.00000000000E+00  0.99999998245E-14  0.12500000000E+03  0.12500000000E+03 0.  0.
        -13    1    3    3    0    0 -0.42910200520E+02  0.31684533741E+02  0.13279018411E+02  0.54968522639E+02  0.10566000000E+00 0.  1.
         23    2    1    0    0    0 -0.20831841583E+02  0.13184051082E+02 -0.15654864039E+02  0.95796240057E+02  0.91236286719E+02 0.  0.
         13    1    3    3    0    0  0.22078358937E+02 -0.18500482659E+02 -0.28933882450E+02  0.40827717419E+02  0.10566000000E+00 0. -1.
         22    1    1    0    0    0  0.20831841583E+02 -0.13184051082E+02  0.15654864039E+02  0.29203759943E+02  0.00000000000E+00 0.  1.
</event>
<event>
 5    1  0.1751020E-003  0.9118800E+02  0.7818608E-02  0.1130116E+00
         25   -1    0    0    0    0  0.00000000000E+00  0.00000000000E+00  0.99999998245E-14  0.12500000000E+03  0.12500000000E+03 0.  0.
        -13    1    3    3    0    0  0.47749941736E+00  0.15946853195E+02  0.40593674614E+02  0.43616369808E+02  0.10566000000E+00 0.  1.
         23    2    1    0    0    0 -0.18536382993E+02 -0.21469348178E+02  0.13371442207E+02  0.93641972760E+02  0.88235441802E+02 0.  0.
         13    1    3    3    0    0 -0.19013882411E+02 -0.37416201373E+02 -0.27222232407E+02  0.50025602953E+02  0.10566000000E+00 0. -1.
         22    1    1    0    0    0  0.18536382993E+02  0.21469348178E+02 -0.13371442207E+02  0.31358027240E+02  0.00000000000E+00 0. -1.
</event>
<event>
 5    1  0.1751020E-003  0.9118800E+02  0.7818608E-02  0.1130116E+00
         25   -1    0    0    0    0  0.00000000000E+00  0.00000000000E+00  0.99999998245E-14  0.12500000000E+03  0.12500000000E+03 0.  0.
        -13    1    3    3    0    0  0.25012219437E+02 -0.29466910992E+02 -0.20025425030E+02  0.43530894503E+02  0.10566000000E+00 0.  1.
         23    2    1    0    0    0  0.33066367079E+01 -0.15135164886E+02  0.25034801286E+02  0.95559410029E+02  0.90911234219E+02 0.  0.
         13    1    3    3    0    0 -0.21705582730E+02  0.14331746106E+02  0.45060226316E+02  0.52028515525E+02  0.10566000000E+00 0. -1.
         22    1    1    0    0    0 -0.33066367079E+01  0.15135164886E+02 -0.25034801286E+02  0.29440589971E+02  0.00000000000E+00 0.  1.
</event>
<event>
 5    1  0.1751020E-003  0.9118800E+02  0.7818608E-02  0.1130116E+00
         25   -1    0    0    0    0  0.00000000000E+00  0.00000000000E+00  0.99999998245E-14  0.12500000000E+03  0.12500000000E+03 0.  0.
        -13    1    3    3    0    0 -0.19973365164E+02 -0.42063436077E+02  0.76371707621E+01  0.47186920983E+02  0.10566000000E+00 0.  1.
         23    2    1    0    0    0  0.35415078172E+01 -0.12733131234E+02 -0.24838046759E+02  0.96864551266E+02  0.92688390948E+02 0.  0.
         13    1    3    3    0    0  0.23514872981E+02  0.29330304843E+02 -0.32475217521E+02  0.49677630283E+02  0.10566000000E+00 0. -1.
         22    1    1    0    0    0 -0.35415078172E+01  0.12733131234E+02  0.24838046759E+02  0.28135448734E+02  0.00000000000E+00 0. -1.
</event>
<event>
 5    1  0.1751020E-003  0.9118800E+02  0.7818608E-02  0.1130116E+00
         25   -1    0    0    0    0  0.00000000000E+00  0.00000000000E+00  0.99999998245E-14  0.12500000000E+03  0.12500000000E+03 0.  0.
        -13    1    3    3    0    0 -0.44719786917E+02 -0.24852143897E+02 -0.65716334104E+01  0.51581837190E+02  0.10566000000E+00 0. -1.
         23    2    1    0    0    0 -0.20280278091E+02 -0.99277630804E+00  0.21231282272E+02  0.95622412775E+02  0.90997819720E+02 0.  0.
         13    1    3    3    0    0  0.24439508826E+02  0.23859367589E+02  0.27802915682E+02  0.44040575585E+02  0.10566000000E+00 0.  1.
         22    1    1    0    0    0  0.20280278091E+02  0.99277630804E+00 -0.21231282272E+02  0.29377587225E+02  0.00000000000E+00 0. -1.
</event>
<event>
 5    1  0.1751020E-003  0.9118800E+02  0.7818608E-02  0.1130116E+00
         25   -1    0    0    0    0  0.00000000000E+00  0.00000000000E+00  0.99999998245E-14  0.12500000000E+03  0.12500000000E+03 0.  0.
        -13    1    3    3    0    0  0.14751817459E+02  0.27823456783E+02 -0.45634725707E+02  0.55446372470E+02  0.10566000000E+00 0. -1.
         23    2    1    0    0    0  0.11974933790E+02  0.24801837933E+02 -0.41335271814E+01  0.97150112189E+02  0.93072703019E+02 0.  0.
         13    1    3    3    0    0 -0.27768836690E+01 -0.30216188495E+01  0.41501198526E+02  0.41703739719E+02  0.10566000000E+00 0.  1.
         22    1    1    0    0    0 -0.11974933790E+02 -0.24801837933E+02  0.41335271814E+01  0.27849887811E+02  0.00000000000E+00 0. -1.
</event>
<event>
 5    1  0.1751020E-003  0.9118800E+02  0.7818608E-02  0.1130116E+00
         25   -1    0    0    0    0  0.00000000000E+00  0.00000000000E+00  0.99999998245E-14  0.12500000000E+03  0.12500000000E+03 0.  0.
        -13    1    3    3    0    0  0.19893277221E+02  0.12194204664E+02  0.29584474315E+02  0.37678818858E+02  0.10566000000E+00 0.  1.
         23    2    1    0    0    0 -0.25081205578E+02 -0.13580341735E+02  0.19746683638E+01  0.96409934067E+02  0.92073250821E+02 0.  0.
         13    1    3    3    0    0 -0.44974482799E+02 -0.25774546398E+02 -0.27609805951E+02  0.58731115210E+02  0.10566000000E+00 0. -1.
         22    1    1    0    0    0  0.25081205578E+02  0.13580341735E+02 -0.19746683638E+01  0.28590065933E+02  0.00000000000E+00 0. -1.
</event>
<event>
 5    1  0.1751020E-003  0.9118800E+02  0.7818608E-02  0.1130116E+00
         25   -1    0    0    0    0  0.00000000000E+00  0.00000000000E+00  0.99999998245E-14  0.12500000000E+03  0.12500000000E+03 0.  0.
        -13    1    3    3    0    0  0.57976028233E+01 -0.31882085815E+02 -0.12667704557E+02  0.34793124280E+02  0.10566000000E+00 0. -1.
         23    2    1    0    0    0 -0.42067033536E+01  0.83991495864E+01  0.29547948978E+02  0.93994785025E+02  0.88733850678E+02 0.  0.
         13    1    3    3    0    0 -0.10004306177E+02  0.40281235401E+02  0.42215653534E+02  0.59201660744E+02  0.10566000000E+00 0.  1.
         22    1    1    0    0    0  0.42067033536E+01 -0.83991495864E+01 -0.29547948978E+02  0.31005214975E+02  0.00000000000E+00 0.  1.
</event>
<event>
 5    1  0.1751020E-003  0.9118800E+02  0.7818608E-02  0.1130116E+00
         25   -1    0    0    0    0  0.00000000000E+00  0.00000000000E+00  0.99999998245E-14  0.12500000000E+03  0.12500000000E+03 0.  0.
        -13    1    3    3    0    0  0.34155134242E+02  0.75679806213E+00 -0.16794017671E+02  0.38068308762E+02  0.10566000000E+00 0.  1.
         23    2    1    0    0    0 -0.22489273006E+02 -0.44234227519E+01 -0.19346330444E+02  0.95006424508E+02  0.90147690636E+02 0.  0.
         13    1    3    3    0    0 -0.56644407248E+02 -0.51802208140E+01 -0.25523127722E+01  0.56938115746E+02  0.10566000000E+00 0. -1.
         22    1    1    0    0    0  0.22489273006E+02  0.44234227519E+01  0.19346330444E+02  0.29993575492E+02  0.00000000000E+00 0. -1.
</event>
<event>
 5    1  0.1751020E-003  0.9118800E+02  0.7818608E-02  0.1130116E+00
         25   -1    0    0    0    0  0.00000000000E+00  0.00000000000E+00  0.99999998245E-14  0.12500000000E+03  0.12500000000E+03 0.  0.
        -13    1    3    3    0    0 -0.94391561093E+01  0.10295675123E+02 -0.32806551422E+02  0.35656410006E+02  0.10566000000E+00 0.  1.
         23    2    1    0    0    0  0.13659479481E+02 -0.21000117309E+02  0.13829542524E+02  0.96384574910E+02  0.92038816417E+02 0.  0.
         13    1    3    3    0    0  0.23098635590E+02 -0.31295792432E+02  0.46636093946E+02  0.60728164904E+02  0.10566000000E+00 0. -1.
         22    1    1    0    0    0 -0.13659479481E+02  0.21000117309E+02 -0.13829542524E+02  0.28615425090E+02  0.00000000000E+00 0. -1.
</event>
<event>
 5    1  0.1751020E-003  0.9118800E+02  0.7818608E-02  0.1130116E+00
         25   -1    0    0    0    0  0.00000000000E+00  0.00000000000E+00  0.99999998245E-14  0.12500000000E+03  0.12500000000E+03 0.  0.
        -13    1    3    3    0    0 -0.38897774486E+02  0.13528146911E+02  0.32669692334E+01  0.41312611523E+02  0.10566000000E+00 0. -1.
         23    2    1    0    0    0  0.14990283867E+01 -0.15210565328E+02  0.25202437021E+02  0.95525074801E+02  0.90864012129E+02 0.  0.
         13    1    3    3    0    0  0.40396802873E+02 -0.28738712239E+02  0.21935467788E+02  0.54212463278E+02  0.10566000000E+00 0.  1.
         22    1    1    0    0    0 -0.14990283867E+01  0.15210565328E+02 -0.25202437021E+02  0.29474925199E+02  0.00000000000E+00 0.  1.
</event>
<event>
 5    1  0.1751020E-003  0.9118800E+02  0.7818608E-02  0.1130116E+00
         25   -1    0    0    0    0  0.00000000000E+00  0.00000000000E+00  0.99999998245E-14  0.12500000000E+03  0.12500000000E+03 0.  0.
        -13    1    3    3    0    0 -0.97838578074E+01  0.19801184896E+02 -0.39665120711E+02  0.45399821166E+02  0.10566000000E+00 0. -1.
         23    2    1    0    0    0  0.20037791715E+02  0.21003973589E+02  0.11322845609E+01  0.95948974689E+02  0.91445304265E+02 0.  0.
         13    1    3    3    0    0  0.29821649522E+02  0.12027886925E+01  0.40797405272E+02  0.50549153522E+02  0.10566000000E+00 0.  1.
         22    1    1    0    0    0 -0.20037791715E+02 -0.21003973589E+02 -0.11322845609E+01  0.29051025311E+02  0.00000000000E+00 0.  1.
</event>
<event>
 5    1  0.1751020E-003  0.9118800E+02  0.7818608E-02  0.1130116E+00
         25   -1    0    0    0    0  0.00000000000E+00  0.00000000000E+00  0.99999998245E-14  0.12500000000E+03  0.12500000000E+03 0.  0.
        -13    1    3    3    0    0 -0.11802643176E+02  0.44447881881E+02 -0.48734956518E+01  0.46245850771E+02  0.10566000000E+00 0.  1.
         23    2    1    0    0    0 -0.26242992287E+02 -0.34818042408E+01  0.68436442905E+01  0.97656754543E+02  0.93750672722E+02 0.  0.
         13    1    3    3    0    0 -0.14440349111E+02 -0.47929686122E+02  0.11717139942E+02  0.51410903772E+02  0.10566000000E+00 0. -1.
         22    1    1    0    0    0  0.26242992287E+02  0.34818042408E+01 -0.68436442905E+01  0.27343245457E+02  0.00000000000E+00 0. -1.
</event>
<event>
 5    1  0.1751020E-003  0.9118800E+02  0.7818608E-02  0.1130116E+00
         25   -1    0    0    0    0  0.00000000000E+00  0.00000000000E+00  0.99999998245E-14  0.12500000000E+03  0.12500000000E+03 0.  0.
        -13    1    3    3    0    0 -0.38561496248E+02 -0.87992118549E+01  0.17793907440E+02  0.43371066717E+02  0.10566000000E+00 0.  1.
         23    2    1    0    0    0  0.94573120784E+01 -0.21315405787E+02 -0.92829863607E+01  0.99900973895E+02  0.96696656994E+02 0.  0.
         13    1    3    3    0    0  0.48018808327E+02 -0.12516193932E+02 -0.27076893800E+02  0.56529907178E+02  0.10566000000E+00 0. -1.
         22    1    1    0    0    0 -0.94573120784E+01  0.21315405787E+02  0.92829863607E+01  0.25099026105E+02  0.00000000000E+00 0. -1.
</event>
<event>
 5    1  0.1751020E-003  0.9118800E+02  0.7818608E-02  0.1130116E+00
         25   -1    0    0    0    0  0.00000000000E+00  0.00000000000E+00  0.99999998245E-14  0.12500000000E+03  0.12500000000E+03 0.  0.
        -13    1    3    3    0    0  0.53234950560E+01 -0.51265604280E+02 -0.10447159617E+02  0.52589505511E+02  0.10566000000E+00 0. -1.
         23    2    1    0    0    0  0.79804289959E+01 -0.21832670255E+02  0.19496536157E+02  0.94660790064E+02  0.89667148477E+02 0.  0.
         13    1    3    3    0    0  0.26569339399E+01  0.29432934025E+02  0.29943695774E+02  0.42071284553E+02  0.10566000000E+00 0.  1.
         22    1    1    0    0    0 -0.79804289959E+01  0.21832670255E+02 -0.19496536157E+02  0.30339209936E+02  0.00000000000E+00 0. -1.
</event>
<event>
 5    1  0.1751020E-003  0.9118800E+02  0.7818608E-02  0.1130116E+00
         25   -1    0    0    0    0  0.00000000000E+00  0.00000000000E+00  0.99999998245E-14  0.12500000000E+03  0.12500000000E+03 0.  0.
        -13    1    3    3    0    0  0.13376752110E+02  0.17967662868E+02 -0.37346229738E+02  0.43549126806E+02  0.10566000000E+00 0.  1.
         23    2    1    0    0    0  0.26737767618E+01 -0.26503654057E+02 -0.14205940323E+02  0.94810573026E+02  0.89875710048E+02 0.  0.
         13    1    3    3    0    0 -0.10702975348E+02 -0.44471316925E+02  0.23140289415E+02  0.51261446220E+02  0.10566000000E+00 0. -1.
         22    1    1    0    0    0 -0.26737767618E+01  0.26503654057E+02  0.14205940323E+02  0.30189426974E+02  0.00000000000E+00 0. -1.
</event>
<event>
 5    1  0.1751020E-003  0.9118800E+02  0.7818608E-02  0.1130116E+00
         25   -1    0    0    0    0  0.00000000000E+00  0.00000000000E+00  0.99999998245E-14  0.12500000000E+03  0.12500000000E+03 0.  0.
        -13    1    3    3    0    0  0.51424026279E+02  0.17038327585E+02 -0.25639757696E+02  0.59934492777E+02  0.10566000000E+00 0.  1.
         23    2    1    0    0    0  0.20313957314E+02  0.19187950640E+02 -0.72735303414E+01  0.96125468746E+02  0.91686243170E+02 0.  0.
         13    1    3    3    0    0 -0.31110068965E+02  0.21496230547E+01  0.18366227355E+02  0.36190975969E+02  0.10566000000E+00 0. -1.
         22    1    1    0    0    0 -0.20313957314E+02 -0.19187950640E+02  0.72735303414E+01  0.28874531254E+02  0.00000000000E+00 0.  1.
</event>
<event>
 5    1  0.1751020E-003  0.9118800E+02  0.7818608E-02  0.1130116E+00
         25   -1    0    0    0    0  0.00000000000E+00  0.00000000000E+00  0.99999998245E-14  0.12500000000E+03  0.12500000000E+03 0.  0.
        -13    1    3    3    0    0  0.31029353640E+02  0.14721211112E+02 -0.49227784384E+01  0.34695529330E+02  0.10566000000E+00 0.  1.
         23    2    1    0    0    0  0.20543706684E+02  0.34702018456E+01 -0.43796033960E+02  0.76500734275E+02  0.59162349251E+02 0.  0.
         13    1    3    3    0    0 -0.10485646955E+02 -0.11251009267E+02 -0.38873255522E+02  0.41805204945E+02  0.10566000000E+00 0. -1.
         22    1    1    0    0    0 -0.20543706684E+02 -0.34702018456E+01  0.43796033960E+02  0.48499265725E+02  0.00000000000E+00 0. -1.
</event>
<event>
 5    1  0.1751020E-003  0.9118800E+02  0.7818608E-02  0.1130116E+00
         25   -1    0    0    0    0  0.00000000000E+00  0.00000000000E+00  0.99999998245E-14  0.12500000000E+03  0.12500000000E+03 0.  0.
        -13    1    3    3    0    0  0.53958656319E+02  0.42062407081E+01 -0.27269672967E+02  0.60604251340E+02  0.10566000000E+00 0.  1.
         23    2    1    0    0    0  0.22146267057E+02  0.12531510399E+02 -0.11404006304E+02  0.97115465627E+02  0.93026159797E+02 0.  0.
         13    1    3    3    0    0 -0.31812389262E+02  0.83252696908E+01  0.15865666663E+02  0.36511214287E+02  0.10566000000E+00 0. -1.
         22    1    1    0    0    0 -0.22146267057E+02 -0.12531510399E+02  0.11404006304E+02  0.27884534373E+02  0.00000000000E+00 0.  1.
</event>
<event>
 5    1  0.1751020E-003  0.9118800E+02  0.7818608E-02  0.1130116E+00
         25   -1    0    0    0    0  0.00000000000E+00  0.00000000000E+00  0.99999998245E-14  0.12500000000E+03  0.12500000000E+03 0.  0.
        -13    1    3    3    0    0  0.21792827744E+02  0.67752605174E+01 -0.27497185266E+02  0.35734267276E+02  0.10566000000E+00 0.  1.
         23    2    1    0    0    0  0.67203865702E+01  0.29574105596E+01  0.29389274080E+02  0.94707438144E+02  0.89732154415E+02 0.  0.
         13    1    3    3    0    0 -0.15072441173E+02 -0.38178499578E+01  0.56886459346E+02  0.58973170868E+02  0.10566000000E+00 0. -1.
         22    1    1    0    0    0 -0.67203865702E+01 -0.29574105596E+01 -0.29389274080E+02  0.30292561856E+02  0.00000000000E+00 0. -1.
</event>
<event>
 5    1  0.1751020E-003  0.9118800E+02  0.7818608E-02  0.1130116E+00
         25   -1    0    0    0    0  0.00000000000E+00  0.00000000000E+00  0.99999998245E-14  0.12500000000E+03  0.12500000000E+03 0.  0.
        -13    1    3    3    0    0  0.20976134771E+02  0.20395939097E+01 -0.41598489700E+02  0.46632646104E+02  0.10566000000E+00 0.  1.
         23    2    1    0    0    0  0.24685800377E+00 -0.28865281833E+02 -0.22102779753E+02  0.88643455788E+02  0.80844690284E+02 0.  0.
         13    1    3    3    0    0 -0.20729276768E+02 -0.30904875743E+02  0.19495709947E+02  0.42010809685E+02  0.10566000000E+00 0. -1.
         22    1    1    0    0    0 -0.24685800377E+00  0.28865281833E+02  0.22102779753E+02  0.36356544212E+02  0.00000000000E+00 0.  1.
</event>
<event>
 5    1  0.1751020E-003  0.9118800E+02  0.7818608E-02  0.1130116E+00
         25   -1    0    0    0    0  0.00000000000E+00  0.00000000000E+00  0.99999998245E-14  0.12500000000E+03  0.12500000000E+03 0.  0.
        -13    1    3    3    0    0 -0.15644604589E+02 -0.36375644647E+02  0.19075730094E+02  0.43952654287E+02  0.10566000000E+00 0. -1.
         23    2    1    0    0    0 -0.12960684985E+02 -0.97523329182E+01 -0.24813335500E+02  0.95355624965E+02  0.90630603226E+02 0.  0.
         13    1    3    3    0    0  0.26839196039E+01  0.26623311729E+02 -0.43889065593E+02  0.51402970678E+02  0.10566000000E+00 0.  1.
         22    1    1    0    0    0  0.12960684985E+02  0.97523329182E+01  0.24813335500E+02  0.29644375035E+02  0.00000000000E+00 0. -1.
</event>
<event>
 5    1  0.1751020E-003  0.9118800E+02  0.7818608E-02  0.1130116E+00
         25   -1    0    0    0    0  0.00000000000E+00  0.00000000000E+00  0.99999998245E-14  0.12500000000E+03  0.12500000000E+03 0.  0.
        -13    1    3    3    0    0  0.25399181478E+01  0.14315133653E+02  0.29422849249E+02  0.32819041084E+02  0.10566000000E+00 0.  1.
         23    2    1    0    0    0 -0.26183880513E+01 -0.15076597202E+02 -0.25463034890E+02  0.95292662775E+02  0.90543722554E+02 0.  0.
         13    1    3    3    0    0 -0.51583061991E+01 -0.29391730855E+02 -0.54885884139E+02  0.62473621691E+02  0.10566000000E+00 0. -1.
         22    1    1    0    0    0  0.26183880513E+01  0.15076597202E+02  0.25463034890E+02  0.29707337225E+02  0.00000000000E+00 0. -1.
</event>
<event>
 5    1  0.1751020E-003  0.9118800E+02  0.7818608E-02  0.1130116E+00
         25   -1    0    0    0    0  0.00000000000E+00  0.00000000000E+00  0.99999998245E-14  0.12500000000E+03  0.12500000000E+03 0.  0.
        -13    1    3    3    0    0  0.11883744728E+01 -0.34850074032E+02  0.70080806078E+01  0.35567741730E+02  0.10566000000E+00 0.  1.
         23    2    1    0    0    0  0.90632719937E+01  0.22993047608E+02 -0.12740543937E+02  0.97194522170E+02  0.93132328128E+02 0.  0.
         13    1    3    3    0    0  0.78748975209E+01  0.57843121640E+02 -0.19748624545E+02  0.61626780440E+02  0.10566000000E+00 0. -1.
         22    1    1    0    0    0 -0.90632719937E+01 -0.22993047608E+02  0.12740543937E+02  0.27805477830E+02  0.00000000000E+00 0. -1.
</event>
<event>
 5    1  0.1751020E-003  0.9118800E+02  0.7818608E-02  0.1130116E+00
         25   -1    0    0    0    0  0.00000000000E+00  0.00000000000E+00  0.99999998245E-14  0.12500000000E+03  0.12500000000E+03 0.  0.
        -13    1    3    3    0    0  0.97932750910E+01  0.42297308653E+01 -0.34392792154E+02  0.36009362343E+02  0.10566000000E+00 0.  1.
         23    2    1    0    0    0  0.29819526220E+02  0.12857314715E+02  0.14418215756E+02  0.89469736403E+02  0.82112326120E+02 0.  0.
         13    1    3    3    0    0  0.20026251129E+02  0.86275838497E+01  0.48811007910E+02  0.53460374060E+02  0.10566000000E+00 0. -1.
         22    1    1    0    0    0 -0.29819526220E+02 -0.12857314715E+02 -0.14418215756E+02  0.35530263597E+02  0.00000000000E+00 0.  1.
</event>
<event>
 5    1  0.1751020E-003  0.9118800E+02  0.7818608E-02  0.1130116E+00
         25   -1    0    0    0    0  0.00000000000E+00  0.00000000000E+00  0.99999998245E-14  0.12500000000E+03  0.12500000000E+03 0.  0.
        -13    1    3    3    0    0  0.20437163011E+01  0.25160581087E+02 -0.56481559331E+02  0.61866059559E+02  0.10566000000E+00 0.  1.
         23    2    1    0    0    0  0.38011271643E+01  0.64289942663E+01 -0.28153507977E+02  0.95872683845E+02  0.91340959932E+02 0.  0.
         13    1    3    3    0    0  0.17574108632E+01 -0.18731586821E+02  0.28328051354E+02  0.34006624286E+02  0.10566000000E+00 0. -1.
         22    1    1    0    0    0 -0.38011271643E+01 -0.64289942663E+01  0.28153507977E+02  0.29127316155E+02  0.00000000000E+00 0.  1.
</event>
<event>
 5    1  0.1751020E-003  0.9118800E+02  0.7818608E-02  0.1130116E+00
         25   -1    0    0    0    0  0.00000000000E+00  0.00000000000E+00  0.99999998245E-14  0.12500000000E+03  0.12500000000E+03 0.  0.
        -13    1    3    3    0    0  0.22864707959E+02  0.29083496337E+02 -0.14495302305E+02  0.39733733554E+02  0.10566000000E+00 0.  1.
         23    2    1    0    0    0  0.15269583195E+02 -0.69509086182E+01  0.25738252024E+02  0.94276508682E+02  0.89129833223E+02 0.  0.
         13    1    3    3    0    0 -0.75951247643E+01 -0.36034404955E+02  0.40233554329E+02  0.54542775127E+02  0.10566000000E+00 0. -1.
         22    1    1    0    0    0 -0.15269583195E+02  0.69509086182E+01 -0.25738252024E+02  0.30723491318E+02  0.00000000000E+00 0. -1.
</event>
<event>
 5    1  0.1751020E-003  0.9118800E+02  0.7818608E-02  0.1130116E+00
         25   -1    0    0    0    0  0.00000000000E+00  0.00000000000E+00  0.99999998245E-14  0.12500000000E+03  0.12500000000E+03 0.  0.
        -13    1    3    3    0    0 -0.13142206100E+02  0.15835589579E+02 -0.28325992618E+02  0.35012233581E+02  0.10566000000E+00 0.  1.
         23    2    1    0    0    0  0.10302819121E+02 -0.26798387019E+02  0.73712981321E+01  0.95358177100E+02  0.90634123127E+02 0.  0.
         13    1    3    3    0    0  0.23445025221E+02 -0.42633976598E+02  0.35697290751E+02  0.60345943519E+02  0.10566000000E+00 0. -1.
         22    1    1    0    0    0 -0.10302819121E+02  0.26798387019E+02 -0.73712981321E+01  0.29641822900E+02  0.00000000000E+00 0. -1.
</event>
<event>
 5    1  0.1751020E-003  0.9118800E+02  0.7818608E-02  0.1130116E+00
         25   -1    0    0    0    0  0.00000000000E+00  0.00000000000E+00  0.99999998245E-14  0.12500000000E+03  0.12500000000E+03 0.  0.
        -13    1    3    3    0    0  0.20765531062E+02  0.37688674588E+02  0.44740983657E+02  0.62075842766E+02  0.10566000000E+00 0.  1.
         23    2    1    0    0    0  0.11416244075E+02  0.13787011793E+02  0.23915903789E+02  0.95127223480E+02  0.90315036788E+02 0.  0.
         13    1    3    3    0    0 -0.93492869870E+01 -0.23901662795E+02 -0.20825079868E+02  0.33051380714E+02  0.10566000000E+00 0. -1.
         22    1    1    0    0    0 -0.11416244075E+02 -0.13787011793E+02 -0.23915903789E+02  0.29872776520E+02  0.00000000000E+00 0.  1.
</event>
<event>
 5    1  0.1751020E-003  0.9118800E+02  0.7818608E-02  0.1130116E+00
         25   -1    0    0    0    0  0.00000000000E+00  0.00000000000E+00  0.99999998245E-14  0.12500000000E+03  0.12500000000E+03 0.  0.
        -13    1    3    3    0    0 -0.10593716394E+02 -0.27996031093E+02  0.12623352501E+02  0.32486378321E+02  0.10566000000E+00 0.  1.
         23    2    1    0    0    0  0.27635129045E+02  0.16096170411E+02  0.11984416883E+02  0.90847206450E+02  0.84183143279E+02 0.  0.
         13    1    3    3    0    0  0.38228845439E+02  0.44092201505E+02 -0.63893561783E+00  0.58360828129E+02  0.10566000000E+00 0. -1.
         22    1    1    0    0    0 -0.27635129045E+02 -0.16096170411E+02 -0.11984416883E+02  0.34152793550E+02  0.00000000000E+00 0. -1.
</event>
<event>
 5    1  0.1751020E-003  0.9118800E+02  0.7818608E-02  0.1130116E+00
         25   -1    0    0    0    0  0.00000000000E+00  0.00000000000E+00  0.99999998245E-14  0.12500000000E+03  0.12500000000E+03 0.  0.
        -13    1    3    3    0    0  0.29445074032E+02  0.27150272856E+02  0.35019771342E+02  0.53202868811E+02  0.10566000000E+00 0.  1.
         23    2    1    0    0    0  0.10161411102E+02 -0.95727535146E+01  0.25757172228E+02  0.95702836202E+02  0.91108227128E+02 0.  0.
         13    1    3    3    0    0 -0.19283662929E+02 -0.36723026371E+02 -0.92625991137E+01  0.42499967390E+02  0.10566000000E+00 0. -1.
         22    1    1    0    0    0 -0.10161411102E+02  0.95727535146E+01 -0.25757172228E+02  0.29297163798E+02  0.00000000000E+00 0.  1.
</event>
<event>
 5    1  0.1751020E-003  0.9118800E+02  0.7818608E-02  0.1130116E+00
         25   -1    0    0    0    0  0.00000000000E+00  0.00000000000E+00  0.99999998245E-14  0.12500000000E+03  0.12500000000E+03 0.  0.
        -13    1    3    3    0    0  0.37230629390E+02  0.14159118356E+02 -0.78075276627E+01  0.40590258064E+02  0.10566000000E+00 0.  1.
         23    2    1    0    0    0  0.24085003658E+01 -0.20395417560E+02  0.19452552687E+02  0.96712622294E+02  0.92483271858E+02 0.  0.
         13    1    3    3    0    0 -0.34822129025E+02 -0.34554535915E+02  0.27260080350E+02  0.56122364231E+02  0.10566000000E+00 0. -1.
         22    1    1    0    0    0 -0.24085003658E+01  0.20395417560E+02 -0.19452552687E+02  0.28287377706E+02  0.00000000000E+00 0. -1.
</event>
<event>
 5    1  0.1751020E-003  0.9118800E+02  0.7818608E-02  0.1130116E+00
         25   -1    0    0    0    0  0.00000000000E+00  0.00000000000E+00  0.99999998245E-14  0.12500000000E+03  0.12500000000E+03 0.  0.
        -13    1    3    3    0    0 -0.40803489025E+01  0.45186572550E+02  0.15603702445E+01  0.45397373330E+02  0.10566000000E+00 0.  1.
         23    2    1    0    0    0  0.28159486147E+02  0.68732284428E+01  0.49879520729E+01  0.95587798532E+02  0.90950259115E+02 0.  0.
         13    1    3    3    0    0  0.32239835050E+02 -0.38313344107E+02  0.34275818284E+01  0.50190425202E+02  0.10566000000E+00 0. -1.
         22    1    1    0    0    0 -0.28159486147E+02 -0.68732284428E+01 -0.49879520729E+01  0.29412201468E+02  0.00000000000E+00 0. -1.
</event>
<event>
 5    1  0.1751020E-003  0.9118800E+02  0.7818608E-02  0.1130116E+00
         25   -1    0    0    0    0  0.00000000000E+00  0.00000000000E+00  0.99999998245E-14  0.12500000000E+03  0.12500000000E+03 0.  0.
        -13    1    3    3    0    0 -0.12559116546E+02  0.11197178149E+02  0.55716415872E+02  0.58201704173E+02  0.10566000000E+00 0.  1.
         23    2    1    0    0    0 -0.20745159468E+02 -0.43835548862E+00  0.22200330121E+02  0.94612363462E+02  0.89599614203E+02 0.  0.
         13    1    3    3    0    0 -0.81860429219E+01 -0.11635533638E+02 -0.33516085751E+02  0.36410659289E+02  0.10566000000E+00 0. -1.
         22    1    1    0    0    0  0.20745159468E+02  0.43835548862E+00 -0.22200330121E+02  0.30387636538E+02  0.00000000000E+00 0.  1.
</event>
<event>
 5    1  0.1751020E-003  0.9118800E+02  0.7818608E-02  0.1130116E+00
         25   -1    0    0    0    0  0.00000000000E+00  0.00000000000E+00  0.99999998245E-14  0.12500000000E+03  0.12500000000E+03 0.  0.
        -13    1    3    3    0    0  0.29203810446E+01 -0.36073509071E+02 -0.12698565707E+01  0.36213952862E+02  0.10566000000E+00 0. -1.
         23    2    1    0    0    0  0.13870481312E+02  0.18489284114E+02 -0.19484071410E+02  0.94769668914E+02  0.89818802199E+02 0.  0.
         13    1    3    3    0    0  0.10950100267E+02  0.54562793186E+02 -0.18214214839E+02  0.58555716052E+02  0.10566000000E+00 0.  1.
         22    1    1    0    0    0 -0.13870481312E+02 -0.18489284114E+02  0.19484071410E+02  0.30230331086E+02  0.00000000000E+00 0.  1.
</event>
<event>
 5    1  0.1751020E-003  0.9118800E+02  0.7818608E-02  0.1130116E+00
         25   -1    0    0    0    0  0.00000000000E+00  0.00000000000E+00  0.99999998245E-14  0.12500000000E+03  0.12500000000E+03 0.  0.
        -13    1    3    3    0    0  0.11279269328E+02 -0.20272169572E+02  0.32070964485E+02  0.39582075524E+02  0.10566000000E+00 0.  1.
         23    2    1    0    0    0  0.68517899982E+01 -0.22657759089E+02 -0.21280099034E+02  0.93169767704E+02  0.87563930508E+02 0.  0.
         13    1    3    3    0    0 -0.44274793298E+01 -0.23855895170E+01 -0.53351063519E+02  0.53587692180E+02  0.10566000000E+00 0. -1.
         22    1    1    0    0    0 -0.68517899982E+01  0.22657759089E+02  0.21280099034E+02  0.31830232296E+02  0.00000000000E+00 0. -1.
</event>
<event>
 5    1  0.1751020E-003  0.9118800E+02  0.7818608E-02  0.1130116E+00
         25   -1    0    0    0    0  0.00000000000E+00  0.00000000000E+00  0.99999998245E-14  0.12500000000E+03  0.12500000000E+03 0.  0.
        -13    1    3    3    0    0 -0.91430473048E+01  0.37130821318E+02 -0.16972339110E+02  0.41837359676E+02  0.10566000000E+00 0.  1.
         23    2    1    0    0    0  0.28325158779E+02  0.77255481275E+01  0.64893038636E+01  0.94931581712E+02  0.90043852805E+02 0.  0.
         13    1    3    3    0    0  0.37468206084E+02 -0.29405273190E+02  0.23461642973E+02  0.53094222036E+02  0.10566000000E+00 0. -1.
         22    1    1    0    0    0 -0.28325158779E+02 -0.77255481275E+01 -0.64893038636E+01  0.30068418288E+02  0.00000000000E+00 0. -1.
</event>
<event>
 5    1  0.1751020E-003  0.9118800E+02  0.7818608E-02  0.1130116E+00
         25   -1    0    0    0    0  0.00000000000E+00  0.00000000000E+00  0.99999998245E-14  0.12500000000E+03  0.12500000000E+03 0.  0.
        -13    1    3    3    0    0 -0.12568886263E+02 -0.43270929834E+02 -0.24097143924E+02  0.51098275704E+02  0.10566000000E+00 0.  1.
         23    2    1    0    0    0  0.19267902855E+02 -0.23403087474E+02 -0.20648498675E+01  0.94615461354E+02  0.89603935954E+02 0.  0.
         13    1    3    3    0    0  0.31836789119E+02  0.19867842360E+02  0.22032294056E+02  0.43517185649E+02  0.10566000000E+00 0. -1.
         22    1    1    0    0    0 -0.19267902855E+02  0.23403087474E+02  0.20648498675E+01  0.30384538646E+02  0.00000000000E+00 0.  1.
</event>
<event>
 5    1  0.1751020E-003  0.9118800E+02  0.7818608E-02  0.1130116E+00
         25   -1    0    0    0    0  0.00000000000E+00  0.00000000000E+00  0.99999998245E-14  0.12500000000E+03  0.12500000000E+03 0.  0.
        -13    1    3    3    0    0  0.24138779144E+02 -0.33615617092E+02 -0.38852379905E+02  0.56764504396E+02  0.10566000000E+00 0. -1.
         23    2    1    0    0    0 -0.36765737529E+01 -0.26447848598E+02 -0.13488314720E+02  0.95084443445E+02  0.90255807908E+02 0.  0.
         13    1    3    3    0    0 -0.27815352897E+02  0.71677684938E+01  0.25364065185E+02  0.38319939049E+02  0.10566000000E+00 0.  1.
         22    1    1    0    0    0  0.36765737529E+01  0.26447848598E+02  0.13488314720E+02  0.29915556555E+02  0.00000000000E+00 0. -1.
</event>
<event>
 5    1  0.1751020E-003  0.9118800E+02  0.7818608E-02  0.1130116E+00
         25   -1    0    0    0    0  0.00000000000E+00  0.00000000000E+00  0.99999998245E-14  0.12500000000E+03  0.12500000000E+03 0.  0.
        -13    1    3    3    0    0  0.17316430494E+02  0.33872312358E+02 -0.13917048850E+02  0.40507872349E+02  0.10566000000E+00 0.  1.
         23    2    1    0    0    0 -0.18177814466E+02 -0.99449015705E+01 -0.18685313563E+02  0.97098836064E+02  0.93003811836E+02 0.  0.
         13    1    3    3    0    0 -0.35494244960E+02 -0.43817213929E+02 -0.47682647132E+01  0.56590963715E+02  0.10566000000E+00 0. -1.
         22    1    1    0    0    0  0.18177814466E+02  0.99449015705E+01  0.18685313563E+02  0.27901163936E+02  0.00000000000E+00 0. -1.
</event>
<event>
 5    1  0.1751020E-003  0.9118800E+02  0.7818608E-02  0.1130116E+00
         25   -1    0    0    0    0  0.00000000000E+00  0.00000000000E+00  0.99999998245E-14  0.12500000000E+03  0.12500000000E+03 0.  0.
        -13    1    3    3    0    0 -0.19200079097E+02 -0.13421844369E+02 -0.25848708764E+02  0.34884894330E+02  0.10566000000E+00 0.  1.
         23    2    1    0    0    0  0.23117973281E+02  0.18432652494E+02  0.31413012420E+01  0.95266666180E+02  0.90507825876E+02 0.  0.
         13    1    3    3    0    0  0.42318052378E+02  0.31854496863E+02  0.28990010006E+02  0.60381771849E+02  0.10566000000E+00 0. -1.
         22    1    1    0    0    0 -0.23117973281E+02 -0.18432652494E+02 -0.31413012420E+01  0.29733333820E+02  0.00000000000E+00 0. -1.
</event>
<event>
 5    1  0.1751020E-003  0.9118800E+02  0.7818608E-02  0.1130116E+00
         25   -1    0    0    0    0  0.00000000000E+00  0.00000000000E+00  0.99999998245E-14  0.12500000000E+03  0.12500000000E+03 0.  0.
        -13    1    3    3    0    0  0.16921816680E+02  0.34677041230E+02 -0.14018603512E+02  0.41053349154E+02  0.10566000000E+00 0. -1.
         23    2    1    0    0    0 -0.28544276005E+02  0.78738721181E+01 -0.12052653771E+01  0.95365118198E+02  0.90643695586E+02 0.  0.
         13    1    3    3    0    0 -0.45466092685E+02 -0.26803169112E+02  0.12813338135E+02  0.54311769044E+02  0.10566000000E+00 0.  1.
         22    1    1    0    0    0  0.28544276005E+02 -0.78738721181E+01  0.12052653771E+01  0.29634881802E+02  0.00000000000E+00 0. -1.
</event>
<event>
 5    1  0.1751020E-003  0.9118800E+02  0.7818608E-02  0.1130116E+00
         25   -1    0    0    0    0  0.00000000000E+00  0.00000000000E+00  0.99999998245E-14  0.12500000000E+03  0.12500000000E+03 0.  0.
        -13    1    3    3    0    0 -0.26662329512E+01  0.16123961116E+02 -0.28403647738E+02  0.32769944905E+02  0.10566000000E+00 0.  1.
         23    2    1    0    0    0  0.15234759524E+02 -0.15780772558E+02  0.21259754454E+02  0.94453186095E+02  0.89377270734E+02 0.  0.
         13    1    3    3    0    0  0.17900992476E+02 -0.31904733674E+02  0.49663402192E+02  0.61683241190E+02  0.10566000000E+00 0. -1.
         22    1    1    0    0    0 -0.15234759524E+02  0.15780772558E+02 -0.21259754454E+02  0.30546813905E+02  0.00000000000E+00 0. -1.
</event>
<event>
 5    1  0.1751020E-003  0.9118800E+02  0.7818608E-02  0.1130116E+00
         25   -1    0    0    0    0  0.00000000000E+00  0.00000000000E+00  0.99999998245E-14  0.12500000000E+03  0.12500000000E+03 0.  0.
        -13    1    3    3    0    0  0.14933832793E+02 -0.34822108698E+02  0.46855736928E+02  0.60258359280E+02  0.10566000000E+00 0.  1.
         23    2    1    0    0    0  0.11934819380E+02 -0.23983801295E+02  0.14445615706E+02  0.94564191299E+02  0.89532384224E+02 0.  0.
         13    1    3    3    0    0 -0.29990134136E+01  0.10838307403E+02 -0.32410121222E+02  0.34305832019E+02  0.10566000000E+00 0. -1.
         22    1    1    0    0    0 -0.11934819380E+02  0.23983801295E+02 -0.14445615706E+02  0.30435808701E+02  0.00000000000E+00 0.  1.
</event>
<event>
 5    1  0.1751020E-003  0.9118800E+02  0.7818608E-02  0.1130116E+00
         25   -1    0    0    0    0  0.00000000000E+00  0.00000000000E+00  0.99999998245E-14  0.12500000000E+03  0.12500000000E+03 0.  0.
        -13    1    3    3    0    0  0.30833053945E+01  0.29064541435E+01 -0.33696245018E+02  0.33961777636E+02  0.10566000000E+00 0.  1.
         23    2    1    0    0    0  0.10834389348E+02  0.26337593492E+01  0.27332123573E+02  0.95481096567E+02  0.90803491904E+02 0.  0.
         13    1    3    3    0    0  0.77510839539E+01 -0.27269479434E+00  0.61028368591E+02  0.61519318932E+02  0.10566000000E+00 0. -1.
         22    1    1    0    0    0 -0.10834389348E+02 -0.26337593492E+01 -0.27332123573E+02  0.29518903433E+02  0.00000000000E+00 0. -1.
</event>
<event>
 5    1  0.1751020E-003  0.9118800E+02  0.7818608E-02  0.1130116E+00
         25   -1    0    0    0    0  0.00000000000E+00  0.00000000000E+00  0.99999998245E-14  0.12500000000E+03  0.12500000000E+03 0.  0.
        -13    1    3    3    0    0  0.36580308651E+02  0.45283100714E+02 -0.21332309037E+02  0.61998038390E+02  0.10566000000E+00 0.  1.
         23    2    1    0    0    0  0.20062362314E+02  0.16710416772E+02 -0.70851460618E+01  0.97945689714E+02  0.94135128558E+02 0.  0.
         13    1    3    3    0    0 -0.16517946337E+02 -0.28572683942E+02  0.14247162975E+02  0.35947651324E+02  0.10566000000E+00 0. -1.
         22    1    1    0    0    0 -0.20062362314E+02 -0.16710416772E+02  0.70851460618E+01  0.27054310286E+02  0.00000000000E+00 0.  1.
</event>
<event>
 5    1  0.1751020E-003  0.9118800E+02  0.7818608E-02  0.1130116E+00
         25   -1    0    0    0    0  0.00000000000E+00  0.00000000000E+00  0.99999998245E-14  0.12500000000E+03  0.12500000000E+03 0.  0.
        -13    1    3    3    0    0  0.11423634896E+02 -0.13693885882E+02 -0.44299960252E+02  0.47754786013E+02  0.10566000000E+00 0. -1.
         23    2    1    0    0    0 -0.24162241075E+02  0.22207813121E+01 -0.15784950159E+02  0.96053317722E+02  0.91587823593E+02 0.  0.
         13    1    3    3    0    0 -0.35585875971E+02  0.15914667194E+02  0.28515010093E+02  0.48298531709E+02  0.10566000000E+00 0.  1.
         22    1    1    0    0    0  0.24162241075E+02 -0.22207813121E+01  0.15784950159E+02  0.28946682278E+02  0.00000000000E+00 0. -1.
</event>
<event>
 5    1  0.1751020E-003  0.9118800E+02  0.7818608E-02  0.1130116E+00
         25   -1    0    0    0    0  0.00000000000E+00  0.00000000000E+00  0.99999998245E-14  0.12500000000E+03  0.12500000000E+03 0.  0.
        -13    1    3    3    0    0  0.52044450364E+02  0.21098891654E+02  0.62366813179E+01  0.56503941461E+02  0.10566000000E+00 0. -1.
         23    2    1    0    0    0  0.17655314765E+02  0.26890589838E+02 -0.33127117357E+01  0.92661354074E+02  0.86835122609E+02 0.  0.
         13    1    3    3    0    0 -0.34389135599E+02  0.57916981838E+01 -0.95493930536E+01  0.36157412613E+02  0.10566000000E+00 0.  1.
         22    1    1    0    0    0 -0.17655314765E+02 -0.26890589838E+02  0.33127117357E+01  0.32338645926E+02  0.00000000000E+00 0. -1.
</event>
<event>
 5    1  0.1751020E-003  0.9118800E+02  0.7818608E-02  0.1130116E+00
         25   -1    0    0    0    0  0.00000000000E+00  0.00000000000E+00  0.99999998245E-14  0.12500000000E+03  0.12500000000E+03 0.  0.
        -13    1    3    3    0    0  0.41089892775E+02 -0.20757482414E+01  0.44142859304E+02  0.60343112371E+02  0.10566000000E+00 0.  1.
         23    2    1    0    0    0  0.10359283774E+02 -0.64199126133E+01  0.25980177198E+02  0.96303316471E+02  0.91928391250E+02 0.  0.
         13    1    3    3    0    0 -0.30730609000E+02 -0.43441643720E+01 -0.18162682106E+02  0.35960204101E+02  0.10566000000E+00 0. -1.
         22    1    1    0    0    0 -0.10359283774E+02  0.64199126133E+01 -0.25980177198E+02  0.28696683529E+02  0.00000000000E+00 0.  1.
</event>
<event>
 5    1  0.1751020E-003  0.9118800E+02  0.7818608E-02  0.1130116E+00
         25   -1    0    0    0    0  0.00000000000E+00  0.00000000000E+00  0.99999998245E-14  0.12500000000E+03  0.12500000000E+03 0.  0.
        -13    1    3    3    0    0  0.76842717780E+01 -0.12333179225E+02  0.19400651588E+02  0.24239467582E+02  0.10566000000E+00 0.  1.
         23    2    1    0    0    0  0.13287756443E+02 -0.68148778952E+01 -0.39037048136E+02  0.83204089204E+02  0.71944577983E+02 0.  0.
         13    1    3    3    0    0  0.56034846651E+01  0.55183013302E+01 -0.58437699725E+02  0.58964621623E+02  0.10566000000E+00 0. -1.
         22    1    1    0    0    0 -0.13287756443E+02  0.68148778952E+01  0.39037048136E+02  0.41795910796E+02  0.00000000000E+00 0. -1.
</event>
<event>
 5    1  0.1751020E-003  0.9118800E+02  0.7818608E-02  0.1130116E+00
         25   -1    0    0    0    0  0.00000000000E+00  0.00000000000E+00  0.99999998245E-14  0.12500000000E+03  0.12500000000E+03 0.  0.
        -13    1    3    3    0    0 -0.24606335216E+02 -0.41920478304E+02  0.30542082770E+02  0.57407562376E+02  0.10566000000E+00 0.  1.
         23    2    1    0    0    0 -0.22240069341E+02 -0.44474633037E+01  0.13092163989E+02  0.98812114021E+02  0.95278688621E+02 0.  0.
         13    1    3    3    0    0  0.23662658751E+01  0.37473015000E+02 -0.17449918781E+02  0.41404551645E+02  0.10566000000E+00 0. -1.
         22    1    1    0    0    0  0.22240069341E+02  0.44474633037E+01 -0.13092163989E+02  0.26187885979E+02  0.00000000000E+00 0.  1.
</event>
<event>
 5    1  0.1751020E-003  0.9118800E+02  0.7818608E-02  0.1130116E+00
         25   -1    0    0    0    0  0.00000000000E+00  0.00000000000E+00  0.99999998245E-14  0.12500000000E+03  0.12500000000E+03 0.  0.
        -13    1    3    3    0    0 -0.12783376611E+02  0.57735990043E+02  0.12414960258E+02  0.60423519147E+02  0.10566000000E+00 0. -1.
         23    2    1    0    0    0 -0.21239614845E+00  0.28746174665E+02 -0.39076992709E+01  0.95988661121E+02  0.91499537049E+02 0.  0.
         13    1    3    3    0    0  0.12570980463E+02 -0.28989815379E+02 -0.16322659529E+02  0.35565141974E+02  0.10566000000E+00 0.  1.
         22    1    1    0    0    0  0.21239614845E+00 -0.28746174665E+02  0.39076992709E+01  0.29011338879E+02  0.00000000000E+00 0. -1.
</event>
<event>
 5    1  0.1751020E-003  0.9118800E+02  0.7818608E-02  0.1130116E+00
         25   -1    0    0    0    0  0.00000000000E+00  0.00000000000E+00  0.99999998245E-14  0.12500000000E+03  0.12500000000E+03 0.  0.
        -13    1    3    3    0    0 -0.19237015801E+02  0.34047925300E+02 -0.39791900138E+02  0.55791849538E+02  0.10566000000E+00 0.  1.
         23    2    1    0    0    0 -0.18061868863E+02  0.45113045222E+01  0.12162990316E+01  0.10634357058E+03  0.10469428182E+03 0.  0.
         13    1    3    3    0    0  0.11751469379E+01 -0.29536620778E+02  0.41008199170E+02  0.50551721044E+02  0.10566000000E+00 0. -1.
         22    1    1    0    0    0  0.18061868863E+02 -0.45113045222E+01 -0.12162990316E+01  0.18656429418E+02  0.00000000000E+00 0.  1.
</event>
<event>
 5    1  0.1751020E-003  0.9118800E+02  0.7818608E-02  0.1130116E+00
         25   -1    0    0    0    0  0.00000000000E+00  0.00000000000E+00  0.99999998245E-14  0.12500000000E+03  0.12500000000E+03 0.  0.
        -13    1    3    3    0    0 -0.15481895549E+02  0.45406857010E+01  0.47736130159E+02  0.50389048443E+02  0.10566000000E+00 0. -1.
         23    2    1    0    0    0  0.10275848651E+02  0.22753200610E+02  0.14888813716E+02  0.95931495095E+02  0.91421407634E+02 0.  0.
         13    1    3    3    0    0  0.25757744200E+02  0.18212514909E+02 -0.32847316442E+02  0.45542446652E+02  0.10566000000E+00 0.  1.
         22    1    1    0    0    0 -0.10275848651E+02 -0.22753200610E+02 -0.14888813716E+02  0.29068504905E+02  0.00000000000E+00 0. -1.
</event>
<event>
 5    1  0.1751020E-003  0.9118800E+02  0.7818608E-02  0.1130116E+00
         25   -1    0    0    0    0  0.00000000000E+00  0.00000000000E+00  0.99999998245E-14  0.12500000000E+03  0.12500000000E+03 0.  0.
        -13    1    3    3    0    0  0.59982356314E+01  0.52160818577E+02  0.25627766578E+02  0.58425366144E+02  0.10566000000E+00 0. -1.
         23    2    1    0    0    0  0.17951353316E+02  0.21750803535E+02  0.73886185190E+01  0.95846265695E+02  0.91304799566E+02 0.  0.
         13    1    3    3    0    0  0.11953117685E+02 -0.30410015042E+02 -0.18239148059E+02  0.37420899551E+02  0.10566000000E+00 0.  1.
         22    1    1    0    0    0 -0.17951353316E+02 -0.21750803535E+02 -0.73886185190E+01  0.29153734305E+02  0.00000000000E+00 0. -1.
</event>
<event>
 5    1  0.1751020E-003  0.9118800E+02  0.7818608E-02  0.1130116E+00
         25   -1    0    0    0    0  0.00000000000E+00  0.00000000000E+00  0.99999998245E-14  0.12500000000E+03  0.12500000000E+03 0.  0.
        -13    1    3    3    0    0  0.18222668685E+02  0.21065115242E+02  0.49197792534E+02  0.56535287108E+02  0.10566000000E+00 0. -1.
         23    2    1    0    0    0 -0.67714657792E+01  0.21318054242E+02  0.19752581309E+02  0.95159144553E+02  0.90359206162E+02 0.  0.
         13    1    3    3    0    0 -0.24994134465E+02  0.25293899930E+00 -0.29445211225E+02  0.38623857444E+02  0.10566000000E+00 0.  1.
         22    1    1    0    0    0  0.67714657792E+01 -0.21318054242E+02 -0.19752581309E+02  0.29840855447E+02  0.00000000000E+00 0. -1.
</event>
<event>
 5    1  0.1751020E-003  0.9118800E+02  0.7818608E-02  0.1130116E+00
         25   -1    0    0    0    0  0.00000000000E+00  0.00000000000E+00  0.99999998245E-14  0.12500000000E+03  0.12500000000E+03 0.  0.
        -13    1    3    3    0    0 -0.32115013237E+02 -0.10848747916E+02  0.11677825589E+01  0.33918199933E+02  0.10566000000E+00 0.  1.
         23    2    1    0    0    0  0.18995426387E+02  0.22917458629E+02  0.18084848395E+01  0.95178753362E+02  0.90386328283E+02 0.  0.
         13    1    3    3    0    0  0.51110439623E+02  0.33766206545E+02  0.64070228061E+00  0.61260553429E+02  0.10566000000E+00 0. -1.
         22    1    1    0    0    0 -0.18995426387E+02 -0.22917458629E+02 -0.18084848395E+01  0.29821246638E+02  0.00000000000E+00 0. -1.
</event>
<event>
 5    1  0.1751020E-003  0.9118800E+02  0.7818608E-02  0.1130116E+00
         25   -1    0    0    0    0  0.00000000000E+00  0.00000000000E+00  0.99999998245E-14  0.12500000000E+03  0.12500000000E+03 0.  0.
        -13    1    3    3    0    0 -0.16885250319E+02 -0.24946147610E+02 -0.12923735547E+02  0.32778896618E+02  0.10566000000E+00 0. -1.
         23    2    1    0    0    0  0.54973478684E+00  0.18243953643E+02  0.25831657538E+02  0.93370605696E+02  0.87850164622E+02 0.  0.
         13    1    3    3    0    0  0.17434985106E+02  0.43190101253E+02  0.38755393085E+02  0.60591709079E+02  0.10566000000E+00 0.  1.
         22    1    1    0    0    0 -0.54973478684E+00 -0.18243953643E+02 -0.25831657538E+02  0.31629394304E+02  0.00000000000E+00 0.  1.
</event>
<event>
 5    1  0.1751020E-003  0.9118800E+02  0.7818608E-02  0.1130116E+00
         25   -1    0    0    0    0  0.00000000000E+00  0.00000000000E+00  0.99999998245E-14  0.12500000000E+03  0.12500000000E+03 0.  0.
        -13    1    3    3    0    0 -0.36510434803E+02  0.25595648367E+02  0.24318651891E+02  0.50789340010E+02  0.10566000000E+00 0.  1.
         23    2    1    0    0    0 -0.26798792274E+02  0.59554226577E+01 -0.13431932497E+02  0.94437618925E+02  0.89355496369E+02 0.  0.
         13    1    3    3    0    0  0.97116425297E+01 -0.19640225709E+02 -0.37750584388E+02  0.43648278915E+02  0.10566000000E+00 0. -1.
         22    1    1    0    0    0  0.26798792274E+02 -0.59554226577E+01  0.13431932497E+02  0.30562381075E+02  0.00000000000E+00 0.  1.
</event>
<event>
 5    1  0.1751020E-003  0.9118800E+02  0.7818608E-02  0.1130116E+00
         25   -1    0    0    0    0  0.00000000000E+00  0.00000000000E+00  0.99999998245E-14  0.12500000000E+03  0.12500000000E+03 0.  0.
        -13    1    3    3    0    0  0.42440262506E+02  0.48420477754E+01  0.45610134051E+01  0.42958530183E+02  0.10566000000E+00 0.  1.
         23    2    1    0    0    0  0.39577182236E+01 -0.22961478234E+02 -0.18033256474E+02  0.95536609916E+02  0.90879879396E+02 0.  0.
         13    1    3    3    0    0 -0.38482544282E+02 -0.27803526009E+02 -0.22594269879E+02  0.52578079732E+02  0.10566000000E+00 0. -1.
         22    1    1    0    0    0 -0.39577182236E+01  0.22961478234E+02  0.18033256474E+02  0.29463390084E+02  0.00000000000E+00 0. -1.
</event>
<event>
 5    1  0.1751020E-003  0.9118800E+02  0.7818608E-02  0.1130116E+00
         25   -1    0    0    0    0  0.00000000000E+00  0.00000000000E+00  0.99999998245E-14  0.12500000000E+03  0.12500000000E+03 0.  0.
        -13    1    3    3    0    0  0.23818969206E+01 -0.42523822764E+02  0.24919675495E+02  0.49345215839E+02  0.10566000000E+00 0.  1.
         23    2    1    0    0    0  0.12409155312E+01 -0.22726328617E+02 -0.17578136621E+02  0.96242100723E+02  0.91845115170E+02 0.  0.
         13    1    3    3    0    0 -0.11409813894E+01  0.19797494147E+02 -0.42497812117E+02  0.46896884883E+02  0.10566000000E+00 0. -1.
         22    1    1    0    0    0 -0.12409155312E+01  0.22726328617E+02  0.17578136621E+02  0.28757899277E+02  0.00000000000E+00 0.  1.
</event>
<event>
 5    1  0.1751020E-003  0.9118800E+02  0.7818608E-02  0.1130116E+00
         25   -1    0    0    0    0  0.00000000000E+00  0.00000000000E+00  0.99999998245E-14  0.12500000000E+03  0.12500000000E+03 0.  0.
        -13    1    3    3    0    0 -0.21411539499E+02 -0.34336423729E+02 -0.14628123720E+02  0.43028330038E+02  0.10566000000E+00 0.  1.
         23    2    1    0    0    0 -0.10035163818E+02 -0.80039252809E+01  0.27878458635E+02  0.94308375920E+02  0.89174514185E+02 0.  0.
         13    1    3    3    0    0  0.11376375681E+02  0.26332498448E+02  0.42506582355E+02  0.51280045883E+02  0.10566000000E+00 0. -1.
         22    1    1    0    0    0  0.10035163818E+02  0.80039252809E+01 -0.27878458635E+02  0.30691624080E+02  0.00000000000E+00 0. -1.
</event>
<event>
 5    1  0.1751020E-003  0.9118800E+02  0.7818608E-02  0.1130116E+00
         25   -1    0    0    0    0  0.00000000000E+00  0.00000000000E+00  0.99999998245E-14  0.12500000000E+03  0.12500000000E+03 0.  0.
        -13    1    3    3    0    0 -0.17542843689E+02 -0.17202954635E+02 -0.48277494989E+02  0.54170293513E+02  0.10566000000E+00 0.  1.
         23    2    1    0    0    0 -0.25583797427E+02 -0.99645394092E+01 -0.72463075347E+01  0.96604019487E+02  0.92336368088E+02 0.  0.
         13    1    3    3    0    0 -0.80409537385E+01  0.72384152254E+01  0.41031187455E+02  0.42433725973E+02  0.10566000000E+00 0. -1.
         22    1    1    0    0    0  0.25583797427E+02  0.99645394092E+01  0.72463075347E+01  0.28395980513E+02  0.00000000000E+00 0.  1.
</event>
<event>
 5    1  0.1751020E-003  0.9118800E+02  0.7818608E-02  0.1130116E+00
         25   -1    0    0    0    0  0.00000000000E+00  0.00000000000E+00  0.99999998245E-14  0.12500000000E+03  0.12500000000E+03 0.  0.
        -13    1    3    3    0    0 -0.49693226151E+02 -0.43597802833E+01 -0.32202338213E+02  0.59375299240E+02  0.10566000000E+00 0.  1.
         23    2    1    0    0    0 -0.26147508461E+02  0.10017201244E+02 -0.85263708493E+01  0.95729955256E+02  0.91145426731E+02 0.  0.
         13    1    3    3    0    0  0.23545717690E+02  0.14376981527E+02  0.23675967364E+02  0.36354656016E+02  0.10566000000E+00 0. -1.
         22    1    1    0    0    0  0.26147508461E+02 -0.10017201244E+02  0.85263708493E+01  0.29270044744E+02  0.00000000000E+00 0.  1.
</event>
<event>
 5    1  0.1751020E-003  0.9118800E+02  0.7818608E-02  0.1130116E+00
         25   -1    0    0    0    0  0.00000000000E+00  0.00000000000E+00  0.99999998245E-14  0.12500000000E+03  0.12500000000E+03 0.  0.
        -13    1    3    3    0    0 -0.21064847927E+01 -0.53007287720E+02  0.28296771517E+02  0.60124273567E+02  0.10566000000E+00 0. -1.
         23    2    1    0    0    0 -0.27566344084E+01 -0.18839573527E+02  0.23689055632E+02  0.94607568036E+02  0.89592923878E+02 0.  0.
         13    1    3    3    0    0 -0.65014961563E+00  0.34167714193E+02 -0.46077158847E+01  0.34483294469E+02  0.10566000000E+00 0.  1.
         22    1    1    0    0    0  0.27566344084E+01  0.18839573527E+02 -0.23689055632E+02  0.30392431964E+02  0.00000000000E+00 0. -1.
</event>
<event>
 5    1  0.1751020E-003  0.9118800E+02  0.7818608E-02  0.1130116E+00
         25   -1    0    0    0    0  0.00000000000E+00  0.00000000000E+00  0.99999998245E-14  0.12500000000E+03  0.12500000000E+03 0.  0.
        -13    1    3    3    0    0 -0.36412288720E+01  0.15440617873E+02 -0.43242868193E+02  0.46061133742E+02  0.10566000000E+00 0.  1.
         23    2    1    0    0    0  0.23121200504E+01 -0.25026830863E+02 -0.16020045605E+02  0.95195134233E+02  0.90408979412E+02 0.  0.
         13    1    3    3    0    0  0.59533489224E+01 -0.40467448736E+02  0.27222822588E+02  0.49134000491E+02  0.10566000000E+00 0. -1.
         22    1    1    0    0    0 -0.23121200504E+01  0.25026830863E+02  0.16020045605E+02  0.29804865767E+02  0.00000000000E+00 0.  1.
</event>
<event>
 5    1  0.1751020E-003  0.9118800E+02  0.7818608E-02  0.1130116E+00
         25   -1    0    0    0    0  0.00000000000E+00  0.00000000000E+00  0.99999998245E-14  0.12500000000E+03  0.12500000000E+03 0.  0.
        -13    1    3    3    0    0  0.44621207052E+02  0.24005846304E+02 -0.20107672048E+02  0.54512956394E+02  0.10566000000E+00 0. -1.
         23    2    1    0    0    0  0.25447652509E+02 -0.11843379867E+01  0.94545057950E+01  0.97826973770E+02  0.93977356009E+02 0.  0.
         13    1    3    3    0    0 -0.19173554544E+02 -0.25190184291E+02  0.29562177843E+02  0.43314017376E+02  0.10566000000E+00 0.  1.
         22    1    1    0    0    0 -0.25447652509E+02  0.11843379867E+01 -0.94545057950E+01  0.27173026230E+02  0.00000000000E+00 0.  1.
</event>
<event>
 5    1  0.1751020E-003  0.9118800E+02  0.7818608E-02  0.1130116E+00
         25   -1    0    0    0    0  0.00000000000E+00  0.00000000000E+00  0.99999998245E-14  0.12500000000E+03  0.12500000000E+03 0.  0.
        -13    1    3    3    0    0  0.54790161709E+02  0.19137435761E+01  0.25155960303E+02  0.60319629785E+02  0.10566000000E+00 0. -1.
         23    2    1    0    0    0  0.20270188376E+02 -0.53058344804E+01  0.20131925058E+02  0.95942697598E+02  0.91436723473E+02 0.  0.
         13    1    3    3    0    0 -0.34519973333E+02 -0.72195780565E+01 -0.50240352443E+01  0.35623067813E+02  0.10566000000E+00 0.  1.
         22    1    1    0    0    0 -0.20270188376E+02  0.53058344804E+01 -0.20131925058E+02  0.29057302402E+02  0.00000000000E+00 0. -1.
</event>
<event>
 5    1  0.1751020E-003  0.9118800E+02  0.7818608E-02  0.1130116E+00
         25   -1    0    0    0    0  0.00000000000E+00  0.00000000000E+00  0.99999998245E-14  0.12500000000E+03  0.12500000000E+03 0.  0.
        -13    1    3    3    0    0  0.28897686918E+02  0.18115634371E+02 -0.32308169152E+02  0.46979585735E+02  0.10566000000E+00 0.  1.
         23    2    1    0    0    0  0.21190609910E+02 -0.20430646828E+02 -0.42871048078E+01  0.95253865028E+02  0.90490144529E+02 0.  0.
         13    1    3    3    0    0 -0.77070770083E+01 -0.38546281198E+02  0.28021064344E+02  0.48274279293E+02  0.10566000000E+00 0. -1.
         22    1    1    0    0    0 -0.21190609910E+02  0.20430646828E+02  0.42871048078E+01  0.29746134972E+02  0.00000000000E+00 0. -1.
</event>
<event>
 5    1  0.1751020E-003  0.9118800E+02  0.7818608E-02  0.1130116E+00
         25   -1    0    0    0    0  0.00000000000E+00  0.00000000000E+00  0.99999998245E-14  0.12500000000E+03  0.12500000000E+03 0.  0.
        -13    1    3    3    0    0  0.37344829024E+01 -0.14246747925E+02 -0.30707053846E+02  0.34056578056E+02  0.10566000000E+00 0. -1.
         23    2    1    0    0    0  0.40501385996E+02  0.31100761718E+01 -0.10782011700E+01  0.84365072177E+02  0.73934214301E+02 0.  0.
         13    1    3    3    0    0  0.36766903094E+02  0.17356824096E+02  0.29628852676E+02  0.50308494121E+02  0.10566000000E+00 0.  1.
         22    1    1    0    0    0 -0.40501385996E+02 -0.31100761718E+01  0.10782011700E+01  0.40634927823E+02  0.00000000000E+00 0.  1.
</event>
<event>
 5    1  0.1751020E-003  0.9118800E+02  0.7818608E-02  0.1130116E+00
         25   -1    0    0    0    0  0.00000000000E+00  0.00000000000E+00  0.99999998245E-14  0.12500000000E+03  0.12500000000E+03 0.  0.
        -13    1    3    3    0    0  0.79679065863E+01 -0.20427385094E+02  0.37682747816E+02  0.43597777973E+02  0.10566000000E+00 0. -1.
         23    2    1    0    0    0  0.28555331197E+02 -0.10586382024E+01 -0.61655541331E+01  0.95767454569E+02  0.91196840089E+02 0.  0.
         13    1    3    3    0    0  0.20587424611E+02  0.19368746891E+02 -0.43848301950E+02  0.52169676596E+02  0.10566000000E+00 0.  1.
         22    1    1    0    0    0 -0.28555331197E+02  0.10586382024E+01  0.61655541331E+01  0.29232545431E+02  0.00000000000E+00 0.  1.
</event>
<event>
 5    1  0.1751020E-003  0.9118800E+02  0.7818608E-02  0.1130116E+00
         25   -1    0    0    0    0  0.00000000000E+00  0.00000000000E+00  0.99999998245E-14  0.12500000000E+03  0.12500000000E+03 0.  0.
        -13    1    3    3    0    0  0.13225033789E+02  0.14315962029E+02  0.28751508559E+02  0.34734834043E+02  0.10566000000E+00 0.  1.
         23    2    1    0    0    0 -0.27129236946E+02 -0.69327695645E+01 -0.10686865530E+02  0.95028882471E+02  0.90178825772E+02 0.  0.
         13    1    3    3    0    0 -0.40354270735E+02 -0.21248731594E+02 -0.39438374090E+02  0.60294048427E+02  0.10566000000E+00 0. -1.
         22    1    1    0    0    0  0.27129236946E+02  0.69327695645E+01  0.10686865530E+02  0.29971117529E+02  0.00000000000E+00 0. -1.
</event>
<event>
 5    1  0.1751020E-003  0.9118800E+02  0.7818608E-02  0.1130116E+00
         25   -1    0    0    0    0  0.00000000000E+00  0.00000000000E+00  0.99999998245E-14  0.12500000000E+03  0.12500000000E+03 0.  0.
        -13    1    3    3    0    0  0.15452070582E+02 -0.33019155853E+02 -0.27576204306E+01  0.36560180156E+02  0.10566000000E+00 0.  1.
         23    2    1    0    0    0 -0.30305815293E+02  0.25837870443E+01 -0.56039989615E+00  0.94579078842E+02  0.89553166949E+02 0.  0.
         13    1    3    3    0    0 -0.45757885875E+02  0.35602942898E+02  0.21972205345E+01  0.58018898687E+02  0.10566000000E+00 0. -1.
         22    1    1    0    0    0  0.30305815293E+02 -0.25837870443E+01  0.56039989615E+00  0.30420921158E+02  0.00000000000E+00 0. -1.
</event>
<event>
 5    1  0.1751020E-003  0.9118800E+02  0.7818608E-02  0.1130116E+00
         25   -1    0    0    0    0  0.00000000000E+00  0.00000000000E+00  0.99999998245E-14  0.12500000000E+03  0.12500000000E+03 0.  0.
        -13    1    3    3    0    0  0.24799584586E+01  0.22107426276E+02  0.24779173318E+02  0.33300256529E+02  0.10566000000E+00 0. -1.
         23    2    1    0    0    0 -0.14311723246E+02 -0.20752746653E+02 -0.16286208440E+02  0.94987627530E+02  0.90121622725E+02 0.  0.
         13    1    3    3    0    0 -0.16791681705E+02 -0.42860172929E+02 -0.41065381759E+02  0.61687371001E+02  0.10566000000E+00 0.  1.
         22    1    1    0    0    0  0.14311723246E+02  0.20752746653E+02  0.16286208440E+02  0.30012372470E+02  0.00000000000E+00 0.  1.
</event>
<event>
 5    1  0.1751020E-003  0.9118800E+02  0.7818608E-02  0.1130116E+00
         25   -1    0    0    0    0  0.00000000000E+00  0.00000000000E+00  0.99999998245E-14  0.12500000000E+03  0.12500000000E+03 0.  0.
        -13    1    3    3    0    0 -0.32120208381E+02 -0.17141362907E+02 -0.43825438131E+02  0.56975558796E+02  0.10566000000E+00 0. -1.
         23    2    1    0    0    0  0.61518244906E+00 -0.12474779169E+02 -0.29410098656E+02  0.93047653174E+02  0.87389434679E+02 0.  0.
         13    1    3    3    0    0  0.32735390830E+02  0.46665837383E+01  0.14415339475E+02  0.36072094378E+02  0.10566000000E+00 0.  1.
         22    1    1    0    0    0 -0.61518244906E+00  0.12474779169E+02  0.29410098656E+02  0.31952346826E+02  0.00000000000E+00 0. -1.
</event>
<event>
 5    1  0.1751020E-003  0.9118800E+02  0.7818608E-02  0.1130116E+00
         25   -1    0    0    0    0  0.00000000000E+00  0.00000000000E+00  0.99999998245E-14  0.12500000000E+03  0.12500000000E+03 0.  0.
        -13    1    3    3    0    0 -0.18619322486E+02  0.45049721576E+02  0.96601130200E+01  0.49693918456E+02  0.10566000000E+00 0.  1.
         23    2    1    0    0    0 -0.29168910095E+01  0.64699388123E+01  0.28659015755E+02  0.95475306176E+02  0.90795520506E+02 0.  0.
         13    1    3    3    0    0  0.15702431477E+02 -0.38579782764E+02  0.18998902735E+02  0.45781387720E+02  0.10566000000E+00 0. -1.
         22    1    1    0    0    0  0.29168910095E+01 -0.64699388123E+01 -0.28659015755E+02  0.29524693824E+02  0.00000000000E+00 0.  1.
</event>
<event>
 5    1  0.1751020E-003  0.9118800E+02  0.7818608E-02  0.1130116E+00
         25   -1    0    0    0    0  0.00000000000E+00  0.00000000000E+00  0.99999998245E-14  0.12500000000E+03  0.12500000000E+03 0.  0.
        -13    1    3    3    0    0 -0.28048883519E+02 -0.11037316385E+02  0.17320886804E+02  0.34764730739E+02  0.10566000000E+00 0. -1.
         23    2    1    0    0    0  0.19473473405E+02  0.15596325512E+02 -0.12741083210E+02  0.96985776161E+02  0.92851731488E+02 0.  0.
         13    1    3    3    0    0  0.47522356924E+02  0.26633641896E+02 -0.30061970015E+02  0.62221045422E+02  0.10566000000E+00 0.  1.
         22    1    1    0    0    0 -0.19473473405E+02 -0.15596325512E+02  0.12741083210E+02  0.28014223839E+02  0.00000000000E+00 0.  1.
</event>
<event>
 5    1  0.1751020E-003  0.9118800E+02  0.7818608E-02  0.1130116E+00
         25   -1    0    0    0    0  0.00000000000E+00  0.00000000000E+00  0.99999998245E-14  0.12500000000E+03  0.12500000000E+03 0.  0.
        -13    1    3    3    0    0 -0.29287697202E+02  0.26153612913E+02 -0.31264216618E+02  0.50192061928E+02  0.10566000000E+00 0.  1.
         23    2    1    0    0    0 -0.27544678452E+02 -0.19587121518E+01  0.58388633613E+01  0.96775220290E+02  0.92567840380E+02 0.  0.
         13    1    3    3    0    0  0.17430187500E+01 -0.28112325065E+02  0.37103079980E+02  0.46583158362E+02  0.10566000000E+00 0. -1.
         22    1    1    0    0    0  0.27544678452E+02  0.19587121518E+01 -0.58388633613E+01  0.28224779710E+02  0.00000000000E+00 0.  1.
</event>
<event>
 5    1  0.1751020E-003  0.9118800E+02  0.7818608E-02  0.1130116E+00
         25   -1    0    0    0    0  0.00000000000E+00  0.00000000000E+00  0.99999998245E-14  0.12500000000E+03  0.12500000000E+03 0.  0.
        -13    1    3    3    0    0  0.54308729573E+01 -0.37810268791E+02  0.13028973038E+01  0.38220668656E+02  0.10566000000E+00 0.  1.
         23    2    1    0    0    0 -0.10162937628E+02  0.12304297967E+02  0.24626721845E+02  0.95654532232E+02  0.91041930219E+02 0.  0.
         13    1    3    3    0    0 -0.15593810586E+02  0.50114566758E+02  0.23323824541E+02  0.57433863575E+02  0.10566000000E+00 0. -1.
         22    1    1    0    0    0  0.10162937628E+02 -0.12304297967E+02 -0.24626721845E+02  0.29345467768E+02  0.00000000000E+00 0. -1.
</event>
<event>
 5    1  0.1751020E-003  0.9118800E+02  0.7818608E-02  0.1130116E+00
         25   -1    0    0    0    0  0.00000000000E+00  0.00000000000E+00  0.99999998245E-14  0.12500000000E+03  0.12500000000E+03 0.  0.
        -13    1    3    3    0    0 -0.10058934254E+02 -0.27477323601E+02 -0.54845211241E+02  0.62162640153E+02  0.10566000000E+00 0.  1.
         23    2    1    0    0    0 -0.23920188671E+01 -0.16702032723E+02 -0.24632935370E+02  0.95142653228E+02  0.90336389717E+02 0.  0.
         13    1    3    3    0    0  0.76669153874E+01  0.10775290879E+02  0.30212275871E+02  0.32980013075E+02  0.10566000000E+00 0. -1.
         22    1    1    0    0    0  0.23920188671E+01  0.16702032723E+02  0.24632935370E+02  0.29857346772E+02  0.00000000000E+00 0.  1.
</event>
<event>
 5    1  0.1751020E-003  0.9118800E+02  0.7818608E-02  0.1130116E+00
         25   -1    0    0    0    0  0.00000000000E+00  0.00000000000E+00  0.99999998245E-14  0.12500000000E+03  0.12500000000E+03 0.  0.
        -13    1    3    3    0    0  0.27481088215E+02  0.54126377202E+01  0.47574507322E+02  0.55207352477E+02  0.10566000000E+00 0. -1.
         23    2    1    0    0    0  0.55119231877E+01 -0.17790362970E+02  0.22279544326E+02  0.95961122487E+02  0.91461908038E+02 0.  0.
         13    1    3    3    0    0 -0.21969165028E+02 -0.23203000690E+02 -0.25294962996E+02  0.40753770010E+02  0.10566000000E+00 0.  1.
         22    1    1    0    0    0 -0.55119231877E+01  0.17790362970E+02 -0.22279544326E+02  0.29038877513E+02  0.00000000000E+00 0. -1.
</event>
<event>
 5    1  0.1751020E-003  0.9118800E+02  0.7818608E-02  0.1130116E+00
         25   -1    0    0    0    0  0.00000000000E+00  0.00000000000E+00  0.99999998245E-14  0.12500000000E+03  0.12500000000E+03 0.  0.
        -13    1    3    3    0    0  0.27398334692E+01  0.39596845840E+02  0.24914004929E+02  0.46862945848E+02  0.10566000000E+00 0.  1.
         23    2    1    0    0    0 -0.61806624428E+01  0.22541202533E+02 -0.19044248411E+02  0.94850542337E+02  0.89931282567E+02 0.  0.
         13    1    3    3    0    0 -0.89204959120E+01 -0.17055643308E+02 -0.43958253340E+02  0.47987596488E+02  0.10566000000E+00 0. -1.
         22    1    1    0    0    0  0.61806624428E+01 -0.22541202533E+02  0.19044248411E+02  0.30149457663E+02  0.00000000000E+00 0. -1.
</event>
<event>
 5    1  0.1751020E-003  0.9118800E+02  0.7818608E-02  0.1130116E+00
         25   -1    0    0    0    0  0.00000000000E+00  0.00000000000E+00  0.99999998245E-14  0.12500000000E+03  0.12500000000E+03 0.  0.
        -13    1    3    3    0    0 -0.44595066981E+01 -0.38500945202E+02  0.41940389754E+02  0.57107069949E+02  0.10566000000E+00 0. -1.
         23    2    1    0    0    0  0.15770440198E+02 -0.20343688933E+02  0.15936726694E+02  0.94725394781E+02  0.89757165147E+02 0.  0.
         13    1    3    3    0    0  0.20229946896E+02  0.18157256268E+02 -0.26003663060E+02  0.37618324832E+02  0.10566000000E+00 0.  1.
         22    1    1    0    0    0 -0.15770440198E+02  0.20343688933E+02 -0.15936726694E+02  0.30274605219E+02  0.00000000000E+00 0. -1.
</event>
<event>
 5    1  0.1751020E-003  0.9118800E+02  0.7818608E-02  0.1130116E+00
         25   -1    0    0    0    0  0.00000000000E+00  0.00000000000E+00  0.99999998245E-14  0.12500000000E+03  0.12500000000E+03 0.  0.
        -13    1    3    3    0    0 -0.13133850092E+02 -0.59780861854E+02 -0.73073353763E+01  0.61641364169E+02  0.10566000000E+00 0. -1.
         23    2    1    0    0    0 -0.14297305798E+02 -0.40835959557E+02 -0.73707990947E+00  0.81727239136E+02  0.69331160267E+02 0.  0.
         13    1    3    3    0    0 -0.11634557060E+01  0.18944902298E+02  0.65702554668E+01  0.20085874967E+02  0.10566000000E+00 0.  1.
         22    1    1    0    0    0  0.14297305798E+02  0.40835959557E+02  0.73707990947E+00  0.43272760864E+02  0.00000000000E+00 0. -1.
</event>
<event>
 5    1  0.1751020E-003  0.9118800E+02  0.7818608E-02  0.1130116E+00
         25   -1    0    0    0    0  0.00000000000E+00  0.00000000000E+00  0.99999998245E-14  0.12500000000E+03  0.12500000000E+03 0.  0.
        -13    1    3    3    0    0  0.58637743998E+01  0.23450024492E+02  0.62280742601E+00  0.24180292637E+02  0.10566000000E+00 0.  1.
         23    2    1    0    0    0  0.27646528477E+02 -0.30851035293E+02  0.68253418721E+01  0.83015452758E+02  0.71616081919E+02 0.  0.
         13    1    3    3    0    0  0.21782754077E+02 -0.54301059784E+02  0.62025344461E+01  0.58835160121E+02  0.10566000000E+00 0. -1.
         22    1    1    0    0    0 -0.27646528477E+02  0.30851035293E+02 -0.68253418721E+01  0.41984547242E+02  0.00000000000E+00 0. -1.
</event>
<event>
 5    1  0.1751020E-003  0.9118800E+02  0.7818608E-02  0.1130116E+00
         25   -1    0    0    0    0  0.00000000000E+00  0.00000000000E+00  0.99999998245E-14  0.12500000000E+03  0.12500000000E+03 0.  0.
        -13    1    3    3    0    0  0.56037577757E+01  0.10308654983E+02 -0.31280685735E+02  0.33409024722E+02  0.10566000000E+00 0.  1.
         23    2    1    0    0    0 -0.20984535400E+01 -0.83856242421E+01  0.27817552411E+02  0.95870317143E+02  0.91337721045E+02 0.  0.
         13    1    3    3    0    0 -0.77022113157E+01 -0.18694279225E+02  0.59098238147E+02  0.62461292421E+02  0.10566000000E+00 0. -1.
         22    1    1    0    0    0  0.20984535400E+01  0.83856242421E+01 -0.27817552411E+02  0.29129682857E+02  0.00000000000E+00 0. -1.
</event>
<event>
 5    1  0.1751020E-003  0.9118800E+02  0.7818608E-02  0.1130116E+00
         25   -1    0    0    0    0  0.00000000000E+00  0.00000000000E+00  0.99999998245E-14  0.12500000000E+03  0.12500000000E+03 0.  0.
        -13    1    3    3    0    0  0.15375764891E+02 -0.42944103295E+01  0.49097136102E+02  0.51627473727E+02  0.10566000000E+00 0.  1.
         23    2    1    0    0    0  0.15412390774E+02  0.20361610134E+02  0.10584982129E+02  0.97356215829E+02  0.93349097249E+02 0.  0.
         13    1    3    3    0    0  0.36625883241E-01  0.24656020464E+02 -0.38512153972E+02  0.45728742101E+02  0.10566000000E+00 0. -1.
         22    1    1    0    0    0 -0.15412390774E+02 -0.20361610134E+02 -0.10584982129E+02  0.27643784171E+02  0.00000000000E+00 0. -1.
</event>
<event>
 5    1  0.1751020E-003  0.9118800E+02  0.7818608E-02  0.1130116E+00
         25   -1    0    0    0    0  0.00000000000E+00  0.00000000000E+00  0.99999998245E-14  0.12500000000E+03  0.12500000000E+03 0.  0.
        -13    1    3    3    0    0  0.17511911189E+02  0.24529792464E+01  0.34418190918E+02  0.38695053570E+02  0.10566000000E+00 0. -1.
         23    2    1    0    0    0 -0.26371891204E+02  0.88371368106E+01 -0.34037787837E+01  0.96979340788E+02  0.92843067576E+02 0.  0.
         13    1    3    3    0    0 -0.43883802393E+02  0.63841575641E+01 -0.37821969702E+02  0.58284287218E+02  0.10566000000E+00 0.  1.
         22    1    1    0    0    0  0.26371891204E+02 -0.88371368106E+01  0.34037787837E+01  0.28020659212E+02  0.00000000000E+00 0.  1.
</event>
<event>
 5    1  0.1751020E-003  0.9118800E+02  0.7818608E-02  0.1130116E+00
         25   -1    0    0    0    0  0.00000000000E+00  0.00000000000E+00  0.99999998245E-14  0.12500000000E+03  0.12500000000E+03 0.  0.
        -13    1    3    3    0    0  0.20269076920E+02 -0.27282958056E+02  0.12076727777E+00  0.33988542603E+02  0.10566000000E+00 0.  1.
         23    2    1    0    0    0 -0.36828954392E+01  0.27114589404E+02 -0.12763106216E+02  0.94806266252E+02  0.89869719945E+02 0.  0.
         13    1    3    3    0    0 -0.23951972359E+02  0.54397547460E+02 -0.12883873494E+02  0.60817723649E+02  0.10566000000E+00 0. -1.
         22    1    1    0    0    0  0.36828954392E+01 -0.27114589404E+02  0.12763106216E+02  0.30193733748E+02  0.00000000000E+00 0. -1.
</event>
<event>
 5    1  0.1751020E-003  0.9118800E+02  0.7818608E-02  0.1130116E+00
         25   -1    0    0    0    0  0.00000000000E+00  0.00000000000E+00  0.99999998245E-14  0.12500000000E+03  0.12500000000E+03 0.  0.
        -13    1    3    3    0    0 -0.38645642615E+02  0.74486248065E+01 -0.14516503828E+02  0.41948870689E+02  0.10566000000E+00 0.  1.
         23    2    1    0    0    0  0.99244133112E+01 -0.15504976187E+02 -0.22138179186E+02  0.96207687765E+02  0.91798267638E+02 0.  0.
         13    1    3    3    0    0  0.48570055926E+02 -0.22953600994E+02 -0.76216753580E+01  0.54258817076E+02  0.10566000000E+00 0. -1.
         22    1    1    0    0    0 -0.99244133112E+01  0.15504976187E+02  0.22138179186E+02  0.28792312235E+02  0.00000000000E+00 0. -1.
</event>
<event>
 5    1  0.1751020E-003  0.9118800E+02  0.7818608E-02  0.1130116E+00
         25   -1    0    0    0    0  0.00000000000E+00  0.00000000000E+00  0.99999998245E-14  0.12500000000E+03  0.12500000000E+03 0.  0.
        -13    1    3    3    0    0 -0.22812364019E+02 -0.32758482792E+02 -0.40640956026E+02  0.56966837877E+02  0.10566000000E+00 0. -1.
         23    2    1    0    0    0  0.72220026768E+01 -0.18468661884E+02 -0.23052539187E+02  0.94591640008E+02  0.89570698344E+02 0.  0.
         13    1    3    3    0    0  0.30034366696E+02  0.14289820908E+02  0.17588416839E+02  0.37624802130E+02  0.10566000000E+00 0.  1.
         22    1    1    0    0    0 -0.72220026768E+01  0.18468661884E+02  0.23052539187E+02  0.30408359992E+02  0.00000000000E+00 0. -1.
</event>
<event>
 5    1  0.1751020E-003  0.9118800E+02  0.7818608E-02  0.1130116E+00
         25   -1    0    0    0    0  0.00000000000E+00  0.00000000000E+00  0.99999998245E-14  0.12500000000E+03  0.12500000000E+03 0.  0.
        -13    1    3    3    0    0 -0.17359331837E+02  0.30100090088E+02 -0.99003539157E+01  0.36130181246E+02  0.10566000000E+00 0. -1.
         23    2    1    0    0    0  0.28800770857E+02 -0.54225043329E+01  0.21666315146E+01  0.95613230063E+02  0.90985204928E+02 0.  0.
         13    1    3    3    0    0  0.46160102694E+02 -0.35522594421E+02  0.12066985430E+02  0.59483048817E+02  0.10566000000E+00 0.  1.
         22    1    1    0    0    0 -0.28800770857E+02  0.54225043329E+01 -0.21666315146E+01  0.29386769937E+02  0.00000000000E+00 0.  1.
</event>
<event>
 5    1  0.1751020E-003  0.9118800E+02  0.7818608E-02  0.1130116E+00
         25   -1    0    0    0    0  0.00000000000E+00  0.00000000000E+00  0.99999998245E-14  0.12500000000E+03  0.12500000000E+03 0.  0.
        -13    1    3    3    0    0  0.24545649963E+02  0.36677308380E+02  0.79210228766E+01  0.44838238699E+02  0.10566000000E+00 0.  1.
         23    2    1    0    0    0 -0.20463004564E+02  0.12647651044E+02  0.15446112124E+02  0.96411890366E+02  0.92075906683E+02 0.  0.
         13    1    3    3    0    0 -0.45008654527E+02 -0.24029657337E+02  0.75250892472E+01  0.51573651667E+02  0.10566000000E+00 0. -1.
         22    1    1    0    0    0  0.20463004564E+02 -0.12647651044E+02 -0.15446112124E+02  0.28588109634E+02  0.00000000000E+00 0.  1.
</event>
<event>
 5    1  0.1751020E-003  0.9118800E+02  0.7818608E-02  0.1130116E+00
         25   -1    0    0    0    0  0.00000000000E+00  0.00000000000E+00  0.99999998245E-14  0.12500000000E+03  0.12500000000E+03 0.  0.
        -13    1    3    3    0    0  0.12065540825E+02 -0.98038116523E+01  0.39122548562E+02  0.42098420021E+02  0.10566000000E+00 0. -1.
         23    2    1    0    0    0 -0.28647957366E+02 -0.42091997517E+01  0.47851277032E+01  0.95651741603E+02  0.91038098623E+02 0.  0.
         13    1    3    3    0    0 -0.40713498190E+02  0.55946119006E+01 -0.34337420858E+02  0.53553321582E+02  0.10566000000E+00 0.  1.
         22    1    1    0    0    0  0.28647957366E+02  0.42091997517E+01 -0.47851277032E+01  0.29348258397E+02  0.00000000000E+00 0.  1.
</event>
<event>
 5    1  0.1751020E-003  0.9118800E+02  0.7818608E-02  0.1130116E+00
         25   -1    0    0    0    0  0.00000000000E+00  0.00000000000E+00  0.99999998245E-14  0.12500000000E+03  0.12500000000E+03 0.  0.
        -13    1    3    3    0    0 -0.23357457434E+02  0.21767445743E+02  0.41434738508E+02  0.52309093198E+02  0.10566000000E+00 0. -1.
         23    2    1    0    0    0  0.42751844204E+01 -0.98454644877E+01  0.25700963228E+02  0.97147713134E+02  0.93069480946E+02 0.  0.
         13    1    3    3    0    0  0.27632641855E+02 -0.31612910231E+02 -0.15733775280E+02  0.44838619936E+02  0.10566000000E+00 0.  1.
         22    1    1    0    0    0 -0.42751844204E+01  0.98454644877E+01 -0.25700963228E+02  0.27852286866E+02  0.00000000000E+00 0. -1.
</event>
<event>
 5    1  0.1751020E-003  0.9118800E+02  0.7818608E-02  0.1130116E+00
         25   -1    0    0    0    0  0.00000000000E+00  0.00000000000E+00  0.99999998245E-14  0.12500000000E+03  0.12500000000E+03 0.  0.
        -13    1    3    3    0    0 -0.24627076803E+02 -0.33090148102E+01  0.43304823928E+02  0.49927561831E+02  0.10566000000E+00 0.  1.
         23    2    1    0    0    0 -0.24856194872E+02  0.16098528611E+02  0.22966493770E+01  0.95297009489E+02  0.90549723204E+02 0.  0.
         13    1    3    3    0    0 -0.22911806842E+00  0.19407543421E+02 -0.41008174551E+02  0.45369447658E+02  0.10566000000E+00 0. -1.
         22    1    1    0    0    0  0.24856194872E+02 -0.16098528611E+02 -0.22966493770E+01  0.29702990511E+02  0.00000000000E+00 0.  1.
</event>
<event>
 5    1  0.1751020E-003  0.9118800E+02  0.7818608E-02  0.1130116E+00
         25   -1    0    0    0    0  0.00000000000E+00  0.00000000000E+00  0.99999998245E-14  0.12500000000E+03  0.12500000000E+03 0.  0.
        -13    1    3    3    0    0 -0.49629234441E+02  0.35566447588E+01  0.11031138002E+02  0.50964770212E+02  0.10566000000E+00 0.  1.
         23    2    1    0    0    0 -0.85947430962E+01 -0.20330094057E+01  0.27940063938E+02  0.95697271305E+02  0.91100591799E+02 0.  0.
         13    1    3    3    0    0  0.41034491345E+02 -0.55896541644E+01  0.16908925936E+02  0.44732501092E+02  0.10566000000E+00 0. -1.
         22    1    1    0    0    0  0.85947430962E+01  0.20330094057E+01 -0.27940063938E+02  0.29302728695E+02  0.00000000000E+00 0.  1.
</event>
<event>
 5    1  0.1751020E-003  0.9118800E+02  0.7818608E-02  0.1130116E+00
         25   -1    0    0    0    0  0.00000000000E+00  0.00000000000E+00  0.99999998245E-14  0.12500000000E+03  0.12500000000E+03 0.  0.
        -13    1    3    3    0    0 -0.42310342280E+02 -0.14465347080E+02 -0.13160044123E+01  0.44734263844E+02  0.10566000000E+00 0. -1.
         23    2    1    0    0    0  0.42117883946E+01 -0.25776764624E+02  0.14462167065E+02  0.95144765414E+02  0.90339312337E+02 0.  0.
         13    1    3    3    0    0  0.46522130675E+02 -0.11311417543E+02  0.15778171477E+02  0.50410501570E+02  0.10566000000E+00 0.  1.
         22    1    1    0    0    0 -0.42117883946E+01  0.25776764624E+02 -0.14462167065E+02  0.29855234586E+02  0.00000000000E+00 0.  1.
</event>
<event>
 5    1  0.1751020E-003  0.9118800E+02  0.7818608E-02  0.1130116E+00
         25   -1    0    0    0    0  0.00000000000E+00  0.00000000000E+00  0.99999998245E-14  0.12500000000E+03  0.12500000000E+03 0.  0.
        -13    1    3    3    0    0  0.33904426359E+02 -0.31197416114E+02 -0.31233172062E+02  0.55662474792E+02  0.10566000000E+00 0. -1.
         23    2    1    0    0    0  0.23656471197E+01 -0.28458385118E+02 -0.68193254328E+01  0.95640518240E+02  0.91022687062E+02 0.  0.
         13    1    3    3    0    0 -0.31538779239E+02  0.27390309951E+01  0.24413846629E+02  0.39978043448E+02  0.10566000000E+00 0.  1.
         22    1    1    0    0    0 -0.23656471197E+01  0.28458385118E+02  0.68193254328E+01  0.29359481760E+02  0.00000000000E+00 0. -1.
</event>
<event>
 5    1  0.1751020E-003  0.9118800E+02  0.7818608E-02  0.1130116E+00
         25   -1    0    0    0    0  0.00000000000E+00  0.00000000000E+00  0.99999998245E-14  0.12500000000E+03  0.12500000000E+03 0.  0.
        -13    1    3    3    0    0 -0.31715360810E+02 -0.15594757653E+02 -0.55032847509E+01  0.35768112680E+02  0.10566000000E+00 0. -1.
         23    2    1    0    0    0  0.25165589506E+02 -0.83122787083E+01  0.12256092712E+02  0.95800467793E+02  0.91242078825E+02 0.  0.
         13    1    3    3    0    0  0.56880950317E+02  0.72824789447E+01  0.17759377463E+02  0.60032355113E+02  0.10566000000E+00 0.  1.
         22    1    1    0    0    0 -0.25165589506E+02  0.83122787083E+01 -0.12256092712E+02  0.29199532207E+02  0.00000000000E+00 0.  1.
</event>
<event>
 5    1  0.1751020E-003  0.9118800E+02  0.7818608E-02  0.1130116E+00
         25   -1    0    0    0    0  0.00000000000E+00  0.00000000000E+00  0.99999998245E-14  0.12500000000E+03  0.12500000000E+03 0.  0.
        -13    1    3    3    0    0 -0.80912171663E+01  0.33915625504E+01  0.44925118891E+02  0.45773878612E+02  0.10566000000E+00 0. -1.
         23    2    1    0    0    0 -0.29601767774E+02 -0.22394837601E+01  0.66420720797E+00  0.95306210850E+02  0.90562424396E+02 0.  0.
         13    1    3    3    0    0 -0.21510550608E+02 -0.56310463104E+01 -0.44260911683E+02  0.49532332239E+02  0.10566000000E+00 0.  1.
         22    1    1    0    0    0  0.29601767774E+02  0.22394837601E+01 -0.66420720797E+00  0.29693789150E+02  0.00000000000E+00 0.  1.
</event>
<event>
 5    1  0.1751020E-003  0.9118800E+02  0.7818608E-02  0.1130116E+00
         25   -1    0    0    0    0  0.00000000000E+00  0.00000000000E+00  0.99999998245E-14  0.12500000000E+03  0.12500000000E+03 0.  0.
        -13    1    3    3    0    0 -0.27037704345E+01  0.31991347583E+02 -0.74074410107E+01  0.32949021854E+02  0.10566000000E+00 0.  1.
         23    2    1    0    0    0 -0.17475183393E+02 -0.24751206469E+02  0.81746752167E+01  0.93618005621E+02  0.88201481877E+02 0.  0.
         13    1    3    3    0    0 -0.14771412958E+02 -0.56742554053E+02  0.15582116227E+02  0.60668983767E+02  0.10566000000E+00 0. -1.
         22    1    1    0    0    0  0.17475183393E+02  0.24751206469E+02 -0.81746752167E+01  0.31381994379E+02  0.00000000000E+00 0. -1.
</event>
<event>
 5    1  0.1751020E-003  0.9118800E+02  0.7818608E-02  0.1130116E+00
         25   -1    0    0    0    0  0.00000000000E+00  0.00000000000E+00  0.99999998245E-14  0.12500000000E+03  0.12500000000E+03 0.  0.
        -13    1    3    3    0    0  0.29940502523E+02  0.31071435583E+02  0.17643736962E+02  0.46617383223E+02  0.10566000000E+00 0. -1.
         23    2    1    0    0    0  0.19085107869E+02  0.54730011023E+01 -0.22208253312E+02  0.95210713359E+02  0.90430516640E+02 0.  0.
         13    1    3    3    0    0 -0.10855394654E+02 -0.25598434480E+02 -0.39851990274E+02  0.48593330137E+02  0.10566000000E+00 0.  1.
         22    1    1    0    0    0 -0.19085107869E+02 -0.54730011023E+01  0.22208253312E+02  0.29789286641E+02  0.00000000000E+00 0.  1.
</event>
<event>
 5    1  0.1751020E-003  0.9118800E+02  0.7818608E-02  0.1130116E+00
         25   -1    0    0    0    0  0.00000000000E+00  0.00000000000E+00  0.99999998245E-14  0.12500000000E+03  0.12500000000E+03 0.  0.
        -13    1    3    3    0    0 -0.42530330273E+02  0.17756352984E+02 -0.22611448528E+02  0.51336203921E+02  0.10566000000E+00 0. -1.
         23    2    1    0    0    0 -0.22432479119E+02 -0.12621719051E+02 -0.26608073241E+02  0.87979553314E+02  0.79811580165E+02 0.  0.
         13    1    3    3    0    0  0.20097851154E+02 -0.30378072035E+02 -0.39966247137E+01  0.36643349393E+02  0.10566000000E+00 0.  1.
         22    1    1    0    0    0  0.22432479119E+02  0.12621719051E+02  0.26608073241E+02  0.37020446686E+02  0.00000000000E+00 0. -1.
</event>
<event>
 5    1  0.1751020E-003  0.9118800E+02  0.7818608E-02  0.1130116E+00
         25   -1    0    0    0    0  0.00000000000E+00  0.00000000000E+00  0.99999998245E-14  0.12500000000E+03  0.12500000000E+03 0.  0.
        -13    1    3    3    0    0  0.10277496023E+02 -0.92887935620E+01  0.56906279003E+02  0.58568288044E+02  0.10566000000E+00 0. -1.
         23    2    1    0    0    0  0.13253323920E+02  0.87719779408E+01  0.24220339379E+02  0.96030653587E+02  0.91556886124E+02 0.  0.
         13    1    3    3    0    0  0.29758278975E+01  0.18060771503E+02 -0.32685939624E+02  0.37462365543E+02  0.10566000000E+00 0.  1.
         22    1    1    0    0    0 -0.13253323920E+02 -0.87719779408E+01 -0.24220339379E+02  0.28969346413E+02  0.00000000000E+00 0. -1.
</event>
<event>
 5    1  0.1751020E-003  0.9118800E+02  0.7818608E-02  0.1130116E+00
         25   -1    0    0    0    0  0.00000000000E+00  0.00000000000E+00  0.99999998245E-14  0.12500000000E+03  0.12500000000E+03 0.  0.
        -13    1    3    3    0    0 -0.42899823204E+01 -0.23416154346E+02  0.24076390596E+02  0.33858587992E+02  0.10566000000E+00 0.  1.
         23    2    1    0    0    0  0.10423412444E+02  0.20569897957E+02 -0.17424704534E+02  0.96096910943E+02  0.91647300755E+02 0.  0.
         13    1    3    3    0    0  0.14713394765E+02  0.43986052303E+02 -0.41501095130E+02  0.62238322951E+02  0.10566000000E+00 0. -1.
         22    1    1    0    0    0 -0.10423412444E+02 -0.20569897957E+02  0.17424704534E+02  0.28903089057E+02  0.00000000000E+00 0. -1.
</event>
<event>
 5    1  0.1751020E-003  0.9118800E+02  0.7818608E-02  0.1130116E+00
         25   -1    0    0    0    0  0.00000000000E+00  0.00000000000E+00  0.99999998245E-14  0.12500000000E+03  0.12500000000E+03 0.  0.
        -13    1    3    3    0    0 -0.40568954002E+02 -0.40975612334E+02 -0.10577246017E+02  0.58623631177E+02  0.10566000000E+00 0.  1.
         23    2    1    0    0    0 -0.28401747047E+02 -0.67828923588E+01 -0.57879590992E+01  0.95231437142E+02  0.90459158108E+02 0.  0.
         13    1    3    3    0    0  0.12167206955E+02  0.34192719975E+02  0.47892869181E+01  0.36607805966E+02  0.10566000000E+00 0. -1.
         22    1    1    0    0    0  0.28401747047E+02  0.67828923588E+01  0.57879590992E+01  0.29768562858E+02  0.00000000000E+00 0.  1.
</event>
<event>
 5    1  0.1751020E-003  0.9118800E+02  0.7818608E-02  0.1130116E+00
         25   -1    0    0    0    0  0.00000000000E+00  0.00000000000E+00  0.99999998245E-14  0.12500000000E+03  0.12500000000E+03 0.  0.
        -13    1    3    3    0    0  0.25722526862E+02 -0.16263787883E+01 -0.52260126847E+02  0.58270279888E+02  0.10566000000E+00 0. -1.
         23    2    1    0    0    0  0.18811231541E+02  0.12875796702E+02 -0.18558953314E+02  0.95604705803E+02  0.90973493122E+02 0.  0.
         13    1    3    3    0    0 -0.69112953213E+01  0.14502175490E+02  0.33701173532E+02  0.37334425916E+02  0.10566000000E+00 0.  1.
         22    1    1    0    0    0 -0.18811231541E+02 -0.12875796702E+02  0.18558953314E+02  0.29395294197E+02  0.00000000000E+00 0. -1.
</event>
<event>
 5    1  0.1751020E-003  0.9118800E+02  0.7818608E-02  0.1130116E+00
         25   -1    0    0    0    0  0.00000000000E+00  0.00000000000E+00  0.99999998245E-14  0.12500000000E+03  0.12500000000E+03 0.  0.
        -13    1    3    3    0    0  0.60233061202E+02  0.10978758351E+01  0.11083579182E+02  0.61254256054E+02  0.10566000000E+00 0. -1.
         23    2    1    0    0    0  0.39123876500E+02  0.78730890420E+01  0.25484722463E+01  0.85010526957E+02  0.75017542877E+02 0.  0.
         13    1    3    3    0    0 -0.21109184702E+02  0.67752132069E+01 -0.85351069357E+01  0.23756270903E+02  0.10566000000E+00 0.  1.
         22    1    1    0    0    0 -0.39123876500E+02 -0.78730890420E+01 -0.25484722463E+01  0.39989473043E+02  0.00000000000E+00 0. -1.
</event>
<event>
 5    1  0.1751020E-003  0.9118800E+02  0.7818608E-02  0.1130116E+00
         25   -1    0    0    0    0  0.00000000000E+00  0.00000000000E+00  0.99999998245E-14  0.12500000000E+03  0.12500000000E+03 0.  0.
        -13    1    3    3    0    0 -0.13028174641E+02 -0.23733567414E+02  0.22028063578E+02  0.34903614508E+02  0.10566000000E+00 0. -1.
         23    2    1    0    0    0  0.10986036053E+02  0.15517823625E+02 -0.20129669243E+02  0.97310662304E+02  0.93288078423E+02 0.  0.
         13    1    3    3    0    0  0.24014210695E+02  0.39251391040E+02 -0.42157732822E+02  0.62407047795E+02  0.10566000000E+00 0.  1.
         22    1    1    0    0    0 -0.10986036053E+02 -0.15517823625E+02  0.20129669243E+02  0.27689337696E+02  0.00000000000E+00 0.  1.
</event>
<event>
 5    1  0.1751020E-003  0.9118800E+02  0.7818608E-02  0.1130116E+00
         25   -1    0    0    0    0  0.00000000000E+00  0.00000000000E+00  0.99999998245E-14  0.12500000000E+03  0.12500000000E+03 0.  0.
        -13    1    3    3    0    0 -0.63930871763E+01  0.12338480415E+02 -0.35685417535E+02  0.38295820285E+02  0.10566000000E+00 0.  1.
         23    2    1    0    0    0  0.17823824674E+02 -0.26105062244E+02 -0.24282337303E+02  0.85140309764E+02  0.75233486169E+02 0.  0.
         13    1    3    3    0    0  0.24216911850E+02 -0.38443542659E+02  0.11403080232E+02  0.46844489479E+02  0.10566000000E+00 0. -1.
         22    1    1    0    0    0 -0.17823824674E+02  0.26105062244E+02  0.24282337303E+02  0.39859690236E+02  0.00000000000E+00 0. -1.
</event>
<event>
 5    1  0.1751020E-003  0.9118800E+02  0.7818608E-02  0.1130116E+00
         25   -1    0    0    0    0  0.00000000000E+00  0.00000000000E+00  0.99999998245E-14  0.12500000000E+03  0.12500000000E+03 0.  0.
        -13    1    3    3    0    0  0.26490371288E+02 -0.22195539477E+02 -0.39424186700E+01  0.34784128171E+02  0.10566000000E+00 0. -1.
         23    2    1    0    0    0 -0.25376976671E+02  0.10261899842E+02  0.65269864929E+01  0.96859298409E+02  0.92681306649E+02 0.  0.
         13    1    3    3    0    0 -0.51867347959E+02  0.32457439319E+02  0.10469405163E+02  0.62075170237E+02  0.10566000000E+00 0.  1.
         22    1    1    0    0    0  0.25376976671E+02 -0.10261899842E+02 -0.65269864929E+01  0.28140701591E+02  0.00000000000E+00 0.  1.
</event>
<event>
 5    1  0.1751020E-003  0.9118800E+02  0.7818608E-02  0.1130116E+00
         25   -1    0    0    0    0  0.00000000000E+00  0.00000000000E+00  0.99999998245E-14  0.12500000000E+03  0.12500000000E+03 0.  0.
        -13    1    3    3    0    0 -0.14858158216E+02  0.34996268729E+02  0.45117161543E+02  0.59000619660E+02  0.10566000000E+00 0. -1.
         23    2    1    0    0    0  0.16213128572E+01  0.26369389500E+02  0.14399201592E+02  0.94911624098E+02  0.90016143132E+02 0.  0.
         13    1    3    3    0    0  0.16479471073E+02 -0.86268792298E+01 -0.30717959951E+02  0.35911004437E+02  0.10566000000E+00 0.  1.
         22    1    1    0    0    0 -0.16213128572E+01 -0.26369389500E+02 -0.14399201592E+02  0.30088375902E+02  0.00000000000E+00 0. -1.
</event>
<event>
 5    1  0.1751020E-003  0.9118800E+02  0.7818608E-02  0.1130116E+00
         25   -1    0    0    0    0  0.00000000000E+00  0.00000000000E+00  0.99999998245E-14  0.12500000000E+03  0.12500000000E+03 0.  0.
        -13    1    3    3    0    0 -0.30073071777E+02  0.26374749646E+02 -0.25262662540E+02  0.47309939205E+02  0.10566000000E+00 0. -1.
         23    2    1    0    0    0 -0.27702794478E+02 -0.67992827773E+01  0.90282643624E+01  0.95080363880E+02  0.90250157728E+02 0.  0.
         13    1    3    3    0    0  0.23702772987E+01 -0.33174032424E+02  0.34290926902E+02  0.47770424674E+02  0.10566000000E+00 0.  1.
         22    1    1    0    0    0  0.27702794478E+02  0.67992827773E+01 -0.90282643624E+01  0.29919636120E+02  0.00000000000E+00 0.  1.
</event>
<event>
 5    1  0.1751020E-003  0.9118800E+02  0.7818608E-02  0.1130116E+00
         25   -1    0    0    0    0  0.00000000000E+00  0.00000000000E+00  0.99999998245E-14  0.12500000000E+03  0.12500000000E+03 0.  0.
        -13    1    3    3    0    0  0.17832932740E+02 -0.22637544207E+02 -0.21434915301E+02  0.35915716001E+02  0.10566000000E+00 0.  1.
         23    2    1    0    0    0 -0.27162480814E+02  0.93334523619E+01  0.26862168891E+01  0.96153345807E+02  0.91724241353E+02 0.  0.
         13    1    3    3    0    0 -0.44995413554E+02  0.31970996569E+02  0.24121132190E+02  0.60237629806E+02  0.10566000000E+00 0. -1.
         22    1    1    0    0    0  0.27162480814E+02 -0.93334523619E+01 -0.26862168891E+01  0.28846654193E+02  0.00000000000E+00 0. -1.
</event>
<event>
 5    1  0.1751020E-003  0.9118800E+02  0.7818608E-02  0.1130116E+00
         25   -1    0    0    0    0  0.00000000000E+00  0.00000000000E+00  0.99999998245E-14  0.12500000000E+03  0.12500000000E+03 0.  0.
        -13    1    3    3    0    0 -0.37810858182E+02 -0.37865513438E+01 -0.28779148050E+02  0.47668118213E+02  0.10566000000E+00 0.  1.
         23    2    1    0    0    0  0.12186893552E+02 -0.13945608229E+01 -0.24120671906E+02  0.97939475476E+02  0.94126876444E+02 0.  0.
         13    1    3    3    0    0  0.49997751733E+02  0.23919905208E+01  0.46584761439E+01  0.50271357263E+02  0.10566000000E+00 0. -1.
         22    1    1    0    0    0 -0.12186893552E+02  0.13945608229E+01  0.24120671906E+02  0.27060524524E+02  0.00000000000E+00 0.  1.
</event>
<event>
 5    1  0.1751020E-003  0.9118800E+02  0.7818608E-02  0.1130116E+00
         25   -1    0    0    0    0  0.00000000000E+00  0.00000000000E+00  0.99999998245E-14  0.12500000000E+03  0.12500000000E+03 0.  0.
        -13    1    3    3    0    0 -0.45970211105E+01 -0.11931115813E+02  0.56253471174E+02  0.57688372406E+02  0.10566000000E+00 0.  1.
         23    2    1    0    0    0  0.92183975689E+01 -0.17883453007E+02  0.21519686392E+02  0.95539965247E+02  0.90884494342E+02 0.  0.
         13    1    3    3    0    0  0.13815418679E+02 -0.59523371943E+01 -0.34733784782E+02  0.37851592842E+02  0.10566000000E+00 0. -1.
         22    1    1    0    0    0 -0.92183975689E+01  0.17883453007E+02 -0.21519686392E+02  0.29460034753E+02  0.00000000000E+00 0. -1.
</event>
<event>
 5    1  0.1751020E-003  0.9118800E+02  0.7818608E-02  0.1130116E+00
         25   -1    0    0    0    0  0.00000000000E+00  0.00000000000E+00  0.99999998245E-14  0.12500000000E+03  0.12500000000E+03 0.  0.
        -13    1    3    3    0    0 -0.50406463382E+02  0.21874929820E+02 -0.47268942129E+01  0.55151417010E+02  0.10566000000E+00 0.  1.
         23    2    1    0    0    0 -0.23685825710E+02 -0.75696700470E+01 -0.14658936623E+02  0.96134749835E+02  0.91698895624E+02 0.  0.
         13    1    3    3    0    0  0.26720637672E+02 -0.29444599867E+02 -0.99320424102E+01  0.40983332825E+02  0.10566000000E+00 0. -1.
         22    1    1    0    0    0  0.23685825710E+02  0.75696700470E+01  0.14658936623E+02  0.28865250165E+02  0.00000000000E+00 0.  1.
</event>
<event>
 5    1  0.1751020E-003  0.9118800E+02  0.7818608E-02  0.1130116E+00
         25   -1    0    0    0    0  0.00000000000E+00  0.00000000000E+00  0.99999998245E-14  0.12500000000E+03  0.12500000000E+03 0.  0.
        -13    1    3    3    0    0 -0.10975354861E+02 -0.37232909231E+02 -0.12660146895E+02  0.40829381915E+02  0.10566000000E+00 0. -1.
         23    2    1    0    0    0 -0.54973657944E+01  0.18894849779E+02 -0.19082839157E+02  0.97588485464E+02  0.93659603704E+02 0.  0.
         13    1    3    3    0    0  0.54779890662E+01  0.56127759010E+02 -0.64226922622E+01  0.56759103549E+02  0.10566000000E+00 0.  1.
         22    1    1    0    0    0  0.54973657944E+01 -0.18894849779E+02  0.19082839157E+02  0.27411514536E+02  0.00000000000E+00 0.  1.
</event>
<event>
 5    1  0.1751020E-003  0.9118800E+02  0.7818608E-02  0.1130116E+00
         25   -1    0    0    0    0  0.00000000000E+00  0.00000000000E+00  0.99999998245E-14  0.12500000000E+03  0.12500000000E+03 0.  0.
        -13    1    3    3    0    0 -0.33493530483E+02 -0.46776568030E+02 -0.23621933197E+02  0.62192208458E+02  0.10566000000E+00 0.  1.
         23    2    1    0    0    0 -0.12465707537E+02 -0.22069848815E+02 -0.14054039576E+02  0.96017451466E+02  0.91538859871E+02 0.  0.
         13    1    3    3    0    0  0.21027822946E+02  0.24706719215E+02  0.95678936215E+01  0.33825243008E+02  0.10566000000E+00 0. -1.
         22    1    1    0    0    0  0.12465707537E+02  0.22069848815E+02  0.14054039576E+02  0.28982548534E+02  0.00000000000E+00 0.  1.
</event>
<event>
 5    1  0.1751020E-003  0.9118800E+02  0.7818608E-02  0.1130116E+00
         25   -1    0    0    0    0  0.00000000000E+00  0.00000000000E+00  0.99999998245E-14  0.12500000000E+03  0.12500000000E+03 0.  0.
        -13    1    3    3    0    0 -0.45629060612E+02 -0.11052023591E+02  0.31065184615E+02  0.56295783652E+02  0.10566000000E+00 0. -1.
         23    2    1    0    0    0 -0.55721726892E+01  0.13217346445E+02  0.56435094183E+01  0.10958583268E+03  0.10849635096E+03 0.  0.
         13    1    3    3    0    0  0.40056887923E+02  0.24269370036E+02 -0.25421675196E+02  0.53290049032E+02  0.10566000000E+00 0.  1.
         22    1    1    0    0    0  0.55721726892E+01 -0.13217346445E+02 -0.56435094183E+01  0.15414167317E+02  0.00000000000E+00 0.  1.
</event>
<event>
 5    1  0.1751020E-003  0.9118800E+02  0.7818608E-02  0.1130116E+00
         25   -1    0    0    0    0  0.00000000000E+00  0.00000000000E+00  0.99999998245E-14  0.12500000000E+03  0.12500000000E+03 0.  0.
        -13    1    3    3    0    0  0.52251190583E+02 -0.21896168939E+02  0.24429067793E+02  0.61696188285E+02  0.10566000000E+00 0. -1.
         23    2    1    0    0    0  0.26907567880E+02 -0.13419729044E+02  0.20259341572E+02  0.88743314303E+02  0.80998941818E+02 0.  0.
         13    1    3    3    0    0 -0.25343622703E+02  0.84764398957E+01 -0.41697262208E+01  0.27047126018E+02  0.10566000000E+00 0.  1.
         22    1    1    0    0    0 -0.26907567880E+02  0.13419729044E+02 -0.20259341572E+02  0.36256685697E+02  0.00000000000E+00 0. -1.
</event>
<event>
 5    1  0.1751020E-003  0.9118800E+02  0.7818608E-02  0.1130116E+00
         25   -1    0    0    0    0  0.00000000000E+00  0.00000000000E+00  0.99999998245E-14  0.12500000000E+03  0.12500000000E+03 0.  0.
        -13    1    3    3    0    0 -0.38113937554E+01  0.42891342301E+02 -0.32711933635E+02  0.54076572865E+02  0.10566000000E+00 0.  1.
         23    2    1    0    0    0  0.20956696881E+02  0.16457955551E+02 -0.12363270547E+02  0.95624876107E+02  0.91001203436E+02 0.  0.
         13    1    3    3    0    0  0.24768090636E+02 -0.26433386750E+02  0.20348663087E+02  0.41548303242E+02  0.10566000000E+00 0. -1.
         22    1    1    0    0    0 -0.20956696881E+02 -0.16457955551E+02  0.12363270547E+02  0.29375123893E+02  0.00000000000E+00 0.  1.
</event>
<event>
 5    1  0.1751020E-003  0.9118800E+02  0.7818608E-02  0.1130116E+00
         25   -1    0    0    0    0  0.00000000000E+00  0.00000000000E+00  0.99999998245E-14  0.12500000000E+03  0.12500000000E+03 0.  0.
        -13    1    3    3    0    0  0.18600409681E+01  0.33089399944E+02  0.33883904289E+02  0.47397239107E+02  0.10566000000E+00 0.  1.
         23    2    1    0    0    0  0.11485600385E+02  0.26922950958E+02 -0.11012616812E+02  0.93726336423E+02  0.88354875959E+02 0.  0.
         13    1    3    3    0    0  0.96255594170E+01 -0.61664489864E+01 -0.44896521100E+02  0.46329097316E+02  0.10566000000E+00 0. -1.
         22    1    1    0    0    0 -0.11485600385E+02 -0.26922950958E+02  0.11012616812E+02  0.31273663577E+02  0.00000000000E+00 0.  1.
</event>
<event>
 5    1  0.1751020E-003  0.9118800E+02  0.7818608E-02  0.1130116E+00
         25   -1    0    0    0    0  0.00000000000E+00  0.00000000000E+00  0.99999998245E-14  0.12500000000E+03  0.12500000000E+03 0.  0.
        -13    1    3    3    0    0  0.36248067368E+02  0.94133828994E+01 -0.48301836281E+01  0.37760773343E+02  0.10566000000E+00 0.  1.
         23    2    1    0    0    0 -0.75439359588E+01 -0.27881761400E+02  0.35845201874E+01  0.95894117888E+02  0.91370287688E+02 0.  0.
         13    1    3    3    0    0 -0.43792003327E+02 -0.37295144299E+02  0.84147038155E+01  0.58133344546E+02  0.10566000000E+00 0. -1.
         22    1    1    0    0    0  0.75439359588E+01  0.27881761400E+02 -0.35845201874E+01  0.29105882112E+02  0.00000000000E+00 0. -1.
</event>
<event>
 5    1  0.1751020E-003  0.9118800E+02  0.7818608E-02  0.1130116E+00
         25   -1    0    0    0    0  0.00000000000E+00  0.00000000000E+00  0.99999998245E-14  0.12500000000E+03  0.12500000000E+03 0.  0.
        -13    1    3    3    0    0 -0.15231481379E+02  0.54063931073E+02  0.25428980581E+01  0.56226187517E+02  0.10566000000E+00 0. -1.
         23    2    1    0    0    0 -0.17491105941E+02  0.20141413666E+02 -0.14907579514E+02  0.94441020003E+02  0.89360254032E+02 0.  0.
         13    1    3    3    0    0 -0.22596245623E+01 -0.33922517407E+02 -0.17450477572E+02  0.38214832486E+02  0.10566000000E+00 0.  1.
         22    1    1    0    0    0  0.17491105941E+02 -0.20141413666E+02  0.14907579514E+02  0.30558979997E+02  0.00000000000E+00 0. -1.
</event>
<event>
 5    1  0.1751020E-003  0.9118800E+02  0.7818608E-02  0.1130116E+00
         25   -1    0    0    0    0  0.00000000000E+00  0.00000000000E+00  0.99999998245E-14  0.12500000000E+03  0.12500000000E+03 0.  0.
        -13    1    3    3    0    0  0.30917106629E+02 -0.36488036469E+02  0.34163269541E+02  0.58774011582E+02  0.10566000000E+00 0.  1.
         23    2    1    0    0    0  0.19610957140E+02 -0.80983763026E+01  0.27868415393E+02  0.89973982310E+02  0.82876387334E+02 0.  0.
         13    1    3    3    0    0 -0.11306149489E+02  0.28389660167E+02 -0.62948541475E+01  0.31199970728E+02  0.10566000000E+00 0. -1.
         22    1    1    0    0    0 -0.19610957140E+02  0.80983763026E+01 -0.27868415393E+02  0.35026017690E+02  0.00000000000E+00 0.  1.
</event>
<event>
 5    1  0.1751020E-003  0.9118800E+02  0.7818608E-02  0.1130116E+00
         25   -1    0    0    0    0  0.00000000000E+00  0.00000000000E+00  0.99999998245E-14  0.12500000000E+03  0.12500000000E+03 0.  0.
        -13    1    3    3    0    0  0.32593752355E+02 -0.44652018820E+01  0.51966758275E+02  0.61504844119E+02  0.10566000000E+00 0. -1.
         23    2    1    0    0    0  0.16148652204E+02 -0.94779070587E+01  0.32628550863E+02  0.87380430337E+02  0.78867658670E+02 0.  0.
         13    1    3    3    0    0 -0.16445100150E+02 -0.50127051768E+01 -0.19338207412E+02  0.25875586218E+02  0.10566000000E+00 0.  1.
         22    1    1    0    0    0 -0.16148652204E+02  0.94779070587E+01 -0.32628550863E+02  0.37619569663E+02  0.00000000000E+00 0. -1.
</event>
<event>
 5    1  0.1751020E-003  0.9118800E+02  0.7818608E-02  0.1130116E+00
         25   -1    0    0    0    0  0.00000000000E+00  0.00000000000E+00  0.99999998245E-14  0.12500000000E+03  0.12500000000E+03 0.  0.
        -13    1    3    3    0    0  0.39679793883E+02  0.39739646868E+02  0.10860785102E+00  0.56158245481E+02  0.10566000000E+00 0.  1.
         23    2    1    0    0    0  0.28108392889E+02  0.24366088259E+01  0.72665917394E+01  0.95865447165E+02  0.91331056006E+02 0.  0.
         13    1    3    3    0    0 -0.11571400994E+02 -0.37303038042E+02  0.71579838884E+01  0.39707201684E+02  0.10566000000E+00 0. -1.
         22    1    1    0    0    0 -0.28108392889E+02 -0.24366088259E+01 -0.72665917394E+01  0.29134552835E+02  0.00000000000E+00 0.  1.
</event>
<event>
 5    1  0.1751020E-003  0.9118800E+02  0.7818608E-02  0.1130116E+00
         25   -1    0    0    0    0  0.00000000000E+00  0.00000000000E+00  0.99999998245E-14  0.12500000000E+03  0.12500000000E+03 0.  0.
        -13    1    3    3    0    0 -0.28283091786E+02  0.20457915916E+02  0.26552777209E+02  0.43857961035E+02  0.10566000000E+00 0.  1.
         23    2    1    0    0    0 -0.11055002659E+02 -0.24960558174E+02  0.40179416122E+01  0.97406768893E+02  0.93416766285E+02 0.  0.
         13    1    3    3    0    0  0.17228089127E+02 -0.45418474090E+02 -0.22534835597E+02  0.53548807858E+02  0.10566000000E+00 0. -1.
         22    1    1    0    0    0  0.11055002659E+02  0.24960558174E+02 -0.40179416122E+01  0.27593231107E+02  0.00000000000E+00 0. -1.
</event>
<event>
 5    1  0.1751020E-003  0.9118800E+02  0.7818608E-02  0.1130116E+00
         25   -1    0    0    0    0  0.00000000000E+00  0.00000000000E+00  0.99999998245E-14  0.12500000000E+03  0.12500000000E+03 0.  0.
        -13    1    3    3    0    0 -0.43395953330E+02  0.14524040475E+02  0.88215997626E+01  0.46604595305E+02  0.10566000000E+00 0. -1.
         23    2    1    0    0    0  0.35519137526E+01  0.28547381470E+02  0.10615468333E+01  0.96212920228E+02  0.91805392310E+02 0.  0.
         13    1    3    3    0    0  0.46947867082E+02  0.14023340995E+02 -0.77600529293E+01  0.49608324924E+02  0.10566000000E+00 0.  1.
         22    1    1    0    0    0 -0.35519137526E+01 -0.28547381470E+02 -0.10615468333E+01  0.28787079772E+02  0.00000000000E+00 0.  1.
</event>
<event>
 5    1  0.1751020E-003  0.9118800E+02  0.7818608E-02  0.1130116E+00
         25   -1    0    0    0    0  0.00000000000E+00  0.00000000000E+00  0.99999998245E-14  0.12500000000E+03  0.12500000000E+03 0.  0.
        -13    1    3    3    0    0  0.56958033884E+02  0.11976852063E+02  0.18074827685E+02  0.60945657509E+02  0.10566000000E+00 0. -1.
         23    2    1    0    0    0  0.22431711825E+02  0.12193230310E+02  0.14451120376E+02  0.95662456802E+02  0.91052809953E+02 0.  0.
         13    1    3    3    0    0 -0.34526322059E+02  0.21637824716E+00 -0.36237073093E+01  0.34716799293E+02  0.10566000000E+00 0.  1.
         22    1    1    0    0    0 -0.22431711825E+02 -0.12193230310E+02 -0.14451120376E+02  0.29337543198E+02  0.00000000000E+00 0. -1.
</event>
<event>
 5    1  0.1751020E-003  0.9118800E+02  0.7818608E-02  0.1130116E+00
         25   -1    0    0    0    0  0.00000000000E+00  0.00000000000E+00  0.99999998245E-14  0.12500000000E+03  0.12500000000E+03 0.  0.
        -13    1    3    3    0    0 -0.47148759517E+02  0.25784080962E+02 -0.13796796310E+02  0.55481412271E+02  0.10566000000E+00 0.  1.
         23    2    1    0    0    0 -0.23163819504E+02  0.13753882041E+02  0.14440190489E+02  0.94434481739E+02  0.89351107631E+02 0.  0.
         13    1    3    3    0    0  0.23984940014E+02 -0.12030198921E+02  0.28236986798E+02  0.38953069469E+02  0.10566000000E+00 0. -1.
         22    1    1    0    0    0  0.23163819504E+02 -0.13753882041E+02 -0.14440190489E+02  0.30565518261E+02  0.00000000000E+00 0.  1.
</event>
<event>
 5    1  0.1751020E-003  0.9118800E+02  0.7818608E-02  0.1130116E+00
         25   -1    0    0    0    0  0.00000000000E+00  0.00000000000E+00  0.99999998245E-14  0.12500000000E+03  0.12500000000E+03 0.  0.
        -13    1    3    3    0    0  0.54261113842E+02 -0.15451092147E+02  0.12527231725E+02  0.57792278226E+02  0.10566000000E+00 0.  1.
         23    2    1    0    0    0  0.17763248693E+02 -0.22468824153E+02  0.27334911546E+01  0.96227564635E+02  0.91825329614E+02 0.  0.
         13    1    3    3    0    0 -0.36497865149E+02 -0.70177320062E+01 -0.97937405701E+01  0.38435286408E+02  0.10566000000E+00 0. -1.
         22    1    1    0    0    0 -0.17763248693E+02  0.22468824153E+02 -0.27334911546E+01  0.28772435365E+02  0.00000000000E+00 0. -1.
</event>
<event>
 5    1  0.1751020E-003  0.9118800E+02  0.7818608E-02  0.1130116E+00
         25   -1    0    0    0    0  0.00000000000E+00  0.00000000000E+00  0.99999998245E-14  0.12500000000E+03  0.12500000000E+03 0.  0.
        -13    1    3    3    0    0 -0.89812291494E+01 -0.36838875887E+02  0.38095550720E+02  0.53749859556E+02  0.10566000000E+00 0.  1.
         23    2    1    0    0    0 -0.22253535144E+02 -0.31449834217E+02  0.10141221001E+02  0.85160870215E+02  0.75267639485E+02 0.  0.
         13    1    3    3    0    0 -0.13272305994E+02  0.53890416704E+01 -0.27954329718E+02  0.31411010658E+02  0.10566000000E+00 0. -1.
         22    1    1    0    0    0  0.22253535144E+02  0.31449834217E+02 -0.10141221001E+02  0.39839129785E+02  0.00000000000E+00 0.  1.
</event>
<event>
 5    1  0.1751020E-003  0.9118800E+02  0.7818608E-02  0.1130116E+00
         25   -1    0    0    0    0  0.00000000000E+00  0.00000000000E+00  0.99999998245E-14  0.12500000000E+03  0.12500000000E+03 0.  0.
        -13    1    3    3    0    0  0.29581872218E+02 -0.61360539016E+01 -0.14175253001E+02  0.33371953541E+02  0.10566000000E+00 0.  1.
         23    2    1    0    0    0 -0.21820698015E+02  0.15913374944E+02  0.12383212891E+02  0.95289356697E+02  0.90539158237E+02 0.  0.
         13    1    3    3    0    0 -0.51402570234E+02  0.22049428846E+02  0.26558465892E+02  0.61917403156E+02  0.10566000000E+00 0. -1.
         22    1    1    0    0    0  0.21820698015E+02 -0.15913374944E+02 -0.12383212891E+02  0.29710643303E+02  0.00000000000E+00 0. -1.
</event>
<event>
 5    1  0.1751020E-003  0.9118800E+02  0.7818608E-02  0.1130116E+00
         25   -1    0    0    0    0  0.00000000000E+00  0.00000000000E+00  0.99999998245E-14  0.12500000000E+03  0.12500000000E+03 0.  0.
        -13    1    3    3    0    0 -0.40497322084E+02 -0.39826953588E+02 -0.44419486578E+01  0.56973339379E+02  0.10566000000E+00 0. -1.
         23    2    1    0    0    0 -0.16541593784E+02 -0.17639657407E+02  0.16464373213E+02  0.95744959004E+02  0.91166001070E+02 0.  0.
         13    1    3    3    0    0  0.23955728299E+02  0.22187296181E+02  0.20906321871E+02  0.38771619626E+02  0.10566000000E+00 0.  1.
         22    1    1    0    0    0  0.16541593784E+02  0.17639657407E+02 -0.16464373213E+02  0.29255040996E+02  0.00000000000E+00 0. -1.
</event>
<event>
 5    1  0.1751020E-003  0.9118800E+02  0.7818608E-02  0.1130116E+00
         25   -1    0    0    0    0  0.00000000000E+00  0.00000000000E+00  0.99999998245E-14  0.12500000000E+03  0.12500000000E+03 0.  0.
        -13    1    3    3    0    0  0.22362344552E+02 -0.20569947275E+02  0.90441627560E+01  0.31701817437E+02  0.10566000000E+00 0.  1.
         23    2    1    0    0    0 -0.62599571169E+01  0.27697748251E+02 -0.15154197904E+02  0.92813014503E+02  0.87053165513E+02 0.  0.
         13    1    3    3    0    0 -0.28622301669E+02  0.48267695526E+02 -0.24198360660E+02  0.61111197067E+02  0.10566000000E+00 0. -1.
         22    1    1    0    0    0  0.62599571169E+01 -0.27697748251E+02  0.15154197904E+02  0.32186985497E+02  0.00000000000E+00 0. -1.
</event>
<event>
 5    1  0.1751020E-003  0.9118800E+02  0.7818608E-02  0.1130116E+00
         25   -1    0    0    0    0  0.00000000000E+00  0.00000000000E+00  0.99999998245E-14  0.12500000000E+03  0.12500000000E+03 0.  0.
        -13    1    3    3    0    0  0.33758917381E+02  0.21060282881E+02  0.23355666352E+02  0.46137818897E+02  0.10566000000E+00 0.  1.
         23    2    1    0    0    0 -0.15849611736E+02  0.14117028039E+02  0.19161337324E+02  0.96405288586E+02  0.92066943831E+02 0.  0.
         13    1    3    3    0    0 -0.49608529117E+02 -0.69432548422E+01 -0.41943290280E+01  0.50267469689E+02  0.10566000000E+00 0. -1.
         22    1    1    0    0    0  0.15849611736E+02 -0.14117028039E+02 -0.19161337324E+02  0.28594711414E+02  0.00000000000E+00 0. -1.
</event>
<event>
 5    1  0.1751020E-003  0.9118800E+02  0.7818608E-02  0.1130116E+00
         25   -1    0    0    0    0  0.00000000000E+00  0.00000000000E+00  0.99999998245E-14  0.12500000000E+03  0.12500000000E+03 0.  0.
        -13    1    3    3    0    0 -0.29919376873E+02 -0.31738533156E+02  0.13771102512E+02  0.45740113990E+02  0.10566000000E+00 0. -1.
         23    2    1    0    0    0  0.54844841656E+01 -0.23383395474E+02 -0.18746570567E+02  0.94532038820E+02  0.89487483510E+02 0.  0.
         13    1    3    3    0    0  0.35403861039E+02  0.83551376813E+01 -0.32517673079E+02  0.48791924830E+02  0.10566000000E+00 0.  1.
         22    1    1    0    0    0 -0.54844841656E+01  0.23383395474E+02  0.18746570567E+02  0.30467961180E+02  0.00000000000E+00 0.  1.
</event>
<event>
 5    1  0.1751020E-003  0.9118800E+02  0.7818608E-02  0.1130116E+00
         25   -1    0    0    0    0  0.00000000000E+00  0.00000000000E+00  0.99999998245E-14  0.12500000000E+03  0.12500000000E+03 0.  0.
        -13    1    3    3    0    0  0.15807190975E+02 -0.28248221316E+02 -0.26306624003E+02  0.41711855923E+02  0.10566000000E+00 0.  1.
         23    2    1    0    0    0  0.43644581702E+01  0.24117127235E+02 -0.14240780715E+02  0.96654203900E+02  0.92404280069E+02 0.  0.
         13    1    3    3    0    0 -0.11442732805E+02  0.52365348551E+02  0.12065843289E+02  0.54942347977E+02  0.10566000000E+00 0. -1.
         22    1    1    0    0    0 -0.43644581702E+01 -0.24117127235E+02  0.14240780715E+02  0.28345796100E+02  0.00000000000E+00 0. -1.
</event>
<event>
 5    1  0.1751020E-003  0.9118800E+02  0.7818608E-02  0.1130116E+00
         25   -1    0    0    0    0  0.00000000000E+00  0.00000000000E+00  0.99999998245E-14  0.12500000000E+03  0.12500000000E+03 0.  0.
        -13    1    3    3    0    0 -0.21708370081E+02 -0.48223663886E+02  0.31768053356E+02  0.61692750532E+02  0.10566000000E+00 0. -1.
         23    2    1    0    0    0 -0.16591276226E+02 -0.19782923577E+02  0.13745565739E+02  0.95749784795E+02  0.91172617593E+02 0.  0.
         13    1    3    3    0    0  0.51170938555E+01  0.28440740308E+02 -0.18022487617E+02  0.34057034263E+02  0.10566000000E+00 0.  1.
         22    1    1    0    0    0  0.16591276226E+02  0.19782923577E+02 -0.13745565739E+02  0.29250215205E+02  0.00000000000E+00 0. -1.
</event>
<event>
 5    1  0.1751020E-003  0.9118800E+02  0.7818608E-02  0.1130116E+00
         25   -1    0    0    0    0  0.00000000000E+00  0.00000000000E+00  0.99999998245E-14  0.12500000000E+03  0.12500000000E+03 0.  0.
        -13    1    3    3    0    0 -0.21778790151E+02  0.35520499944E+02 -0.13647779231E+02  0.43843980872E+02  0.10566000000E+00 0.  1.
         23    2    1    0    0    0  0.15825196074E+02  0.47096479936E+00 -0.23967699770E+02  0.96275284669E+02  0.91890266989E+02 0.  0.
         13    1    3    3    0    0  0.37603986225E+02 -0.35049535145E+02 -0.10319920539E+02  0.52431303797E+02  0.10566000000E+00 0. -1.
         22    1    1    0    0    0 -0.15825196074E+02 -0.47096479936E+00  0.23967699770E+02  0.28724715331E+02  0.00000000000E+00 0. -1.
</event>
<event>
 5    1  0.1751020E-003  0.9118800E+02  0.7818608E-02  0.1130116E+00
         25   -1    0    0    0    0  0.00000000000E+00  0.00000000000E+00  0.99999998245E-14  0.12500000000E+03  0.12500000000E+03 0.  0.
        -13    1    3    3    0    0  0.13447363348E+02  0.23905379869E+02 -0.12694710478E+02  0.30223593530E+02  0.10566000000E+00 0.  1.
         23    2    1    0    0    0 -0.17113409077E+02 -0.28439773171E+01  0.30748826405E+02  0.89694939421E+02  0.82454441089E+02 0.  0.
         13    1    3    3    0    0 -0.30560772425E+02 -0.26749357186E+02  0.43443536884E+02  0.59471345891E+02  0.10566000000E+00 0. -1.
         22    1    1    0    0    0  0.17113409077E+02  0.28439773171E+01 -0.30748826405E+02  0.35305060579E+02  0.00000000000E+00 0. -1.
</event>
<event>
 5    1  0.1751020E-003  0.9118800E+02  0.7818608E-02  0.1130116E+00
         25   -1    0    0    0    0  0.00000000000E+00  0.00000000000E+00  0.99999998245E-14  0.12500000000E+03  0.12500000000E+03 0.  0.
        -13    1    3    3    0    0 -0.19278845352E+02 -0.36995607821E+02 -0.16031940464E+02  0.44692092760E+02  0.10566000000E+00 0. -1.
         23    2    1    0    0    0 -0.22239966264E+01 -0.14215205558E+02  0.25901871443E+02  0.95370197869E+02  0.90650700313E+02 0.  0.
         13    1    3    3    0    0  0.17054848725E+02  0.22780402264E+02  0.41933811908E+02  0.50678105109E+02  0.10566000000E+00 0.  1.
         22    1    1    0    0    0  0.22239966264E+01  0.14215205558E+02 -0.25901871443E+02  0.29629802131E+02  0.00000000000E+00 0. -1.
</event>
<event>
 5    1  0.1751020E-003  0.9118800E+02  0.7818608E-02  0.1130116E+00
         25   -1    0    0    0    0  0.00000000000E+00  0.00000000000E+00  0.99999998245E-14  0.12500000000E+03  0.12500000000E+03 0.  0.
        -13    1    3    3    0    0 -0.19308428671E+02  0.23657028911E+02  0.15828097858E+02  0.34394916492E+02  0.10566000000E+00 0. -1.
         23    2    1    0    0    0  0.23894074997E+02 -0.76933522293E+00 -0.18526547275E+02  0.94755138444E+02  0.89798578001E+02 0.  0.
         13    1    3    3    0    0  0.43202503667E+02 -0.24426364134E+02 -0.34354645132E+02  0.60360221952E+02  0.10566000000E+00 0.  1.
         22    1    1    0    0    0 -0.23894074997E+02  0.76933522293E+00  0.18526547275E+02  0.30244861556E+02  0.00000000000E+00 0.  1.
</event>
<event>
 5    1  0.1751020E-003  0.9118800E+02  0.7818608E-02  0.1130116E+00
         25   -1    0    0    0    0  0.00000000000E+00  0.00000000000E+00  0.99999998245E-14  0.12500000000E+03  0.12500000000E+03 0.  0.
        -13    1    3    3    0    0 -0.81437868579E+01  0.10218395391E+02  0.36697285536E+02  0.38954316814E+02  0.10566000000E+00 0.  1.
         23    2    1    0    0    0  0.29346913857E+02  0.44820095322E+01 -0.45250165186E+01  0.94969922796E+02  0.90097062655E+02 0.  0.
         13    1    3    3    0    0  0.37490700715E+02 -0.57363858589E+01 -0.41222302054E+02  0.56015605982E+02  0.10566000000E+00 0. -1.
         22    1    1    0    0    0 -0.29346913857E+02 -0.44820095322E+01  0.45250165186E+01  0.30030077204E+02  0.00000000000E+00 0. -1.
</event>
<event>
 5    1  0.1751020E-003  0.9118800E+02  0.7818608E-02  0.1130116E+00
         25   -1    0    0    0    0  0.00000000000E+00  0.00000000000E+00  0.99999998245E-14  0.12500000000E+03  0.12500000000E+03 0.  0.
        -13    1    3    3    0    0 -0.40761868093E+02  0.12985168635E+02 -0.20241079056E+02  0.47327126897E+02  0.10566000000E+00 0.  1.
         23    2    1    0    0    0  0.79118840384E+01  0.14522271266E+02 -0.23646636164E+02  0.96144191683E+02  0.91711765443E+02 0.  0.
         13    1    3    3    0    0  0.48673752132E+02  0.15371026312E+01 -0.34055571078E+01  0.48817064786E+02  0.10566000000E+00 0. -1.
         22    1    1    0    0    0 -0.79118840384E+01 -0.14522271266E+02  0.23646636164E+02  0.28855808317E+02  0.00000000000E+00 0. -1.
</event>
<event>
 5    1  0.1751020E-003  0.9118800E+02  0.7818608E-02  0.1130116E+00
         25   -1    0    0    0    0  0.00000000000E+00  0.00000000000E+00  0.99999998245E-14  0.12500000000E+03  0.12500000000E+03 0.  0.
        -13    1    3    3    0    0  0.52360779735E+02 -0.15429760779E+02  0.18466567914E+02  0.57625984301E+02  0.10566000000E+00 0. -1.
         23    2    1    0    0    0  0.23038184515E+02  0.87402958154E+01  0.15819890940E+02  0.95718270781E+02  0.91129400828E+02 0.  0.
         13    1    3    3    0    0 -0.29322595219E+02  0.24170056594E+02 -0.26466769741E+01  0.38092286479E+02  0.10566000000E+00 0.  1.
         22    1    1    0    0    0 -0.23038184515E+02 -0.87402958154E+01 -0.15819890940E+02  0.29281729219E+02  0.00000000000E+00 0. -1.
</event>
<event>
 5    1  0.1751020E-003  0.9118800E+02  0.7818608E-02  0.1130116E+00
         25   -1    0    0    0    0  0.00000000000E+00  0.00000000000E+00  0.99999998245E-14  0.12500000000E+03  0.12500000000E+03 0.  0.
        -13    1    3    3    0    0 -0.24596785203E+02  0.15510003326E+02 -0.47646739661E+02  0.55819217209E+02  0.10566000000E+00 0. -1.
         23    2    1    0    0    0 -0.16028178013E+02  0.22711125729E+02 -0.94218964813E+01  0.95649193272E+02  0.91034599565E+02 0.  0.
         13    1    3    3    0    0  0.85686071897E+01  0.72011224032E+01  0.38224843179E+02  0.39829976063E+02  0.10566000000E+00 0.  1.
         22    1    1    0    0    0  0.16028178013E+02 -0.22711125729E+02  0.94218964813E+01  0.29350806728E+02  0.00000000000E+00 0. -1.
</event>
<event>
 5    1  0.1751020E-003  0.9118800E+02  0.7818608E-02  0.1130116E+00
         25   -1    0    0    0    0  0.00000000000E+00  0.00000000000E+00  0.99999998245E-14  0.12500000000E+03  0.12500000000E+03 0.  0.
        -13    1    3    3    0    0  0.47525758117E+02  0.18320083917E+02 -0.17482591974E+02  0.53851419159E+02  0.10566000000E+00 0.  1.
         23    2    1    0    0    0  0.55156851066E+01  0.18457432598E+02 -0.21593494536E+02  0.96062505178E+02  0.91600361869E+02 0.  0.
         13    1    3    3    0    0 -0.42010073010E+02  0.13734868114E+00 -0.41109025612E+01  0.42211086019E+02  0.10566000000E+00 0. -1.
         22    1    1    0    0    0 -0.55156851066E+01 -0.18457432598E+02  0.21593494536E+02  0.28937494822E+02  0.00000000000E+00 0.  1.
</event>
<event>
 5    1  0.1751020E-003  0.9118800E+02  0.7818608E-02  0.1130116E+00
         25   -1    0    0    0    0  0.00000000000E+00  0.00000000000E+00  0.99999998245E-14  0.12500000000E+03  0.12500000000E+03 0.  0.
        -13    1    3    3    0    0  0.29456172355E+02  0.11404609455E+02  0.94232223465E+01  0.32962698464E+02  0.10566000000E+00 0.  1.
         23    2    1    0    0    0 -0.24897965339E+02 -0.16526332672E+02 -0.16600545273E+01  0.95070346968E+02  0.90236282847E+02 0.  0.
         13    1    3    3    0    0 -0.54354137693E+02 -0.27930942126E+02 -0.11083276874E+02  0.62107648504E+02  0.10566000000E+00 0. -1.
         22    1    1    0    0    0  0.24897965339E+02  0.16526332672E+02  0.16600545273E+01  0.29929653032E+02  0.00000000000E+00 0. -1.
</event>
<event>
 5    1  0.1751020E-003  0.9118800E+02  0.7818608E-02  0.1130116E+00
         25   -1    0    0    0    0  0.00000000000E+00  0.00000000000E+00  0.99999998245E-14  0.12500000000E+03  0.12500000000E+03 0.  0.
        -13    1    3    3    0    0 -0.30768758237E+02  0.43179566548E+02 -0.10204198464E+02  0.53993780021E+02  0.10566000000E+00 0. -1.
         23    2    1    0    0    0  0.13971286365E+01  0.27322894648E+02  0.10837433513E+02  0.95573098948E+02  0.90930054091E+02 0.  0.
         13    1    3    3    0    0  0.32165886873E+02 -0.15856671900E+02  0.21041631977E+02  0.41579318926E+02  0.10566000000E+00 0.  1.
         22    1    1    0    0    0 -0.13971286365E+01 -0.27322894648E+02 -0.10837433513E+02  0.29426901052E+02  0.00000000000E+00 0. -1.
</event>
<event>
 5    1  0.1751020E-003  0.9118800E+02  0.7818608E-02  0.1130116E+00
         25   -1    0    0    0    0  0.00000000000E+00  0.00000000000E+00  0.99999998245E-14  0.12500000000E+03  0.12500000000E+03 0.  0.
        -13    1    3    3    0    0 -0.20158866168E+02 -0.33529472957E+02 -0.44909190624E+00  0.39125673023E+02  0.10566000000E+00 0.  1.
         23    2    1    0    0    0  0.25493963445E+02 -0.60528553104E+01  0.15260990756E+02  0.94677119721E+02  0.89689909858E+02 0.  0.
         13    1    3    3    0    0  0.45652829613E+02  0.27476617647E+02  0.15710082662E+02  0.55551446698E+02  0.10566000000E+00 0. -1.
         22    1    1    0    0    0 -0.25493963445E+02  0.60528553104E+01 -0.15260990756E+02  0.30322880279E+02  0.00000000000E+00 0. -1.
</event>
<event>
 5    1  0.1751020E-003  0.9118800E+02  0.7818608E-02  0.1130116E+00
         25   -1    0    0    0    0  0.00000000000E+00  0.00000000000E+00  0.99999998245E-14  0.12500000000E+03  0.12500000000E+03 0.  0.
        -13    1    3    3    0    0  0.26944050790E+01 -0.12384369975E+02  0.51108091307E+02  0.52656249386E+02  0.10566000000E+00 0.  1.
         23    2    1    0    0    0  0.39781732481E+01 -0.29086525622E+02  0.15977381458E+02  0.91576526910E+02  0.85259203183E+02 0.  0.
         13    1    3    3    0    0  0.12837681691E+01 -0.16702155647E+02 -0.35130709849E+02  0.38920277523E+02  0.10566000000E+00 0. -1.
         22    1    1    0    0    0 -0.39781732481E+01  0.29086525622E+02 -0.15977381458E+02  0.33423473090E+02  0.00000000000E+00 0.  1.
</event>
<event>
 5    1  0.1751020E-003  0.9118800E+02  0.7818608E-02  0.1130116E+00
         25   -1    0    0    0    0  0.00000000000E+00  0.00000000000E+00  0.99999998245E-14  0.12500000000E+03  0.12500000000E+03 0.  0.
        -13    1    3    3    0    0  0.65668493933E+01  0.13592719191E+01 -0.30563226193E+02  0.31290463251E+02  0.10566000000E+00 0. -1.
         23    2    1    0    0    0 -0.42090380195E+01 -0.32194750734E+01  0.30793229285E+02  0.93754136424E+02  0.88394197242E+02 0.  0.
         13    1    3    3    0    0 -0.10775887413E+02 -0.45787469925E+01  0.61356455477E+02  0.62463673174E+02  0.10566000000E+00 0.  1.
         22    1    1    0    0    0  0.42090380195E+01  0.32194750734E+01 -0.30793229285E+02  0.31245863576E+02  0.00000000000E+00 0.  1.
</event>
<event>
 5    1  0.1751020E-003  0.9118800E+02  0.7818608E-02  0.1130116E+00
         25   -1    0    0    0    0  0.00000000000E+00  0.00000000000E+00  0.99999998245E-14  0.12500000000E+03  0.12500000000E+03 0.  0.
        -13    1    3    3    0    0 -0.48690188280E+01  0.11954568734E+02  0.46585761044E+02  0.48341114530E+02  0.10566000000E+00 0. -1.
         23    2    1    0    0    0 -0.21832829396E+01  0.28036297449E+02  0.88328266934E+00  0.96864952686E+02  0.92688932304E+02 0.  0.
         13    1    3    3    0    0  0.26857358885E+01  0.16081728716E+02 -0.45702478375E+02  0.48523838156E+02  0.10566000000E+00 0.  1.
         22    1    1    0    0    0  0.21832829396E+01 -0.28036297449E+02 -0.88328266934E+00  0.28135047314E+02  0.00000000000E+00 0. -1.
</event>
<event>
 5    1  0.1751020E-003  0.9118800E+02  0.7818608E-02  0.1130116E+00
         25   -1    0    0    0    0  0.00000000000E+00  0.00000000000E+00  0.99999998245E-14  0.12500000000E+03  0.12500000000E+03 0.  0.
        -13    1    3    3    0    0  0.44204338089E+01 -0.12849530820E+02 -0.56054033928E+02  0.57677695525E+02  0.10566000000E+00 0.  1.
         23    2    1    0    0    0 -0.12479655303E+02 -0.15231728213E+02 -0.24345352906E+02  0.93687964791E+02  0.88300573032E+02 0.  0.
         13    1    3    3    0    0 -0.16900089112E+02 -0.23821973928E+01  0.31708681023E+02  0.36010269266E+02  0.10566000000E+00 0. -1.
         22    1    1    0    0    0  0.12479655303E+02  0.15231728213E+02  0.24345352906E+02  0.31312035209E+02  0.00000000000E+00 0.  1.
</event>
<event>
 5    1  0.1751020E-003  0.9118800E+02  0.7818608E-02  0.1130116E+00
         25   -1    0    0    0    0  0.00000000000E+00  0.00000000000E+00  0.99999998245E-14  0.12500000000E+03  0.12500000000E+03 0.  0.
        -13    1    3    3    0    0  0.36543785349E+02  0.47753862341E+02 -0.98825774890E+01  0.60938954027E+02  0.10566000000E+00 0. -1.
         23    2    1    0    0    0  0.11275697773E+02  0.30123681743E+02 -0.82546674704E+01  0.91792815581E+02  0.85575720243E+02 0.  0.
         13    1    3    3    0    0 -0.25268087576E+02 -0.17630180598E+02  0.16279100186E+01  0.30853861553E+02  0.10566000000E+00 0.  1.
         22    1    1    0    0    0 -0.11275697773E+02 -0.30123681743E+02  0.82546674704E+01  0.33207184419E+02  0.00000000000E+00 0. -1.
</event>
<event>
 5    1  0.1751020E-003  0.9118800E+02  0.7818608E-02  0.1130116E+00
         25   -1    0    0    0    0  0.00000000000E+00  0.00000000000E+00  0.99999998245E-14  0.12500000000E+03  0.12500000000E+03 0.  0.
        -13    1    3    3    0    0 -0.10709028656E+02 -0.25714956657E+02  0.18055494425E+02  0.33195697517E+02  0.10566000000E+00 0.  1.
         23    2    1    0    0    0  0.80083014245E+01  0.13409134492E+02 -0.25778097571E+02  0.94859527311E+02  0.89943770367E+02 0.  0.
         13    1    3    3    0    0  0.18717330081E+02  0.39124091149E+02 -0.43833591996E+02  0.61663829794E+02  0.10566000000E+00 0. -1.
         22    1    1    0    0    0 -0.80083014245E+01 -0.13409134492E+02  0.25778097571E+02  0.30140472689E+02  0.00000000000E+00 0. -1.
</event>
<event>
 5    1  0.1751020E-003  0.9118800E+02  0.7818608E-02  0.1130116E+00
         25   -1    0    0    0    0  0.00000000000E+00  0.00000000000E+00  0.99999998245E-14  0.12500000000E+03  0.12500000000E+03 0.  0.
        -13    1    3    3    0    0 -0.36155471572E+02  0.16444298774E+02  0.43798059865E+02  0.59126257269E+02  0.10566000000E+00 0.  1.
         23    2    1    0    0    0 -0.21742448238E+02  0.22806568288E+01  0.39601042551E+02  0.79765300685E+02  0.65698745584E+02 0.  0.
         13    1    3    3    0    0  0.14413023333E+02 -0.14163641945E+02 -0.41970173136E+01  0.20639043416E+02  0.10566000000E+00 0. -1.
         22    1    1    0    0    0  0.21742448238E+02 -0.22806568288E+01 -0.39601042551E+02  0.45234699315E+02  0.00000000000E+00 0.  1.
</event>
<event>
 5    1  0.1751020E-003  0.9118800E+02  0.7818608E-02  0.1130116E+00
         25   -1    0    0    0    0  0.00000000000E+00  0.00000000000E+00  0.99999998245E-14  0.12500000000E+03  0.12500000000E+03 0.  0.
        -13    1    3    3    0    0  0.26564450160E+02  0.31967840920E+02  0.21395371807E+02  0.46748111878E+02  0.10566000000E+00 0.  1.
         23    2    1    0    0    0 -0.18452723309E+02  0.22757036401E+02  0.74092083329E+01  0.94779442901E+02  0.89832403537E+02 0.  0.
         13    1    3    3    0    0 -0.45017173469E+02 -0.92108045192E+01 -0.13986163474E+02  0.48031331022E+02  0.10566000000E+00 0. -1.
         22    1    1    0    0    0  0.18452723309E+02 -0.22757036401E+02 -0.74092083329E+01  0.30220557099E+02  0.00000000000E+00 0. -1.
</event>
<event>
 5    1  0.1751020E-003  0.9118800E+02  0.7818608E-02  0.1130116E+00
         25   -1    0    0    0    0  0.00000000000E+00  0.00000000000E+00  0.99999998245E-14  0.12500000000E+03  0.12500000000E+03 0.  0.
        -13    1    3    3    0    0 -0.24386334447E+01 -0.36270588039E+02 -0.25023301574E+02  0.44132519478E+02  0.10566000000E+00 0. -1.
         23    2    1    0    0    0  0.12598362148E+02 -0.15612123350E+02  0.20487730352E+02  0.96325896365E+02  0.91959089225E+02 0.  0.
         13    1    3    3    0    0  0.15036995592E+02  0.20658464690E+02  0.45511031926E+02  0.52193376886E+02  0.10566000000E+00 0.  1.
         22    1    1    0    0    0 -0.12598362148E+02  0.15612123350E+02 -0.20487730352E+02  0.28674103635E+02  0.00000000000E+00 0.  1.
</event>
<event>
 5    1  0.1751020E-003  0.9118800E+02  0.7818608E-02  0.1130116E+00
         25   -1    0    0    0    0  0.00000000000E+00  0.00000000000E+00  0.99999998245E-14  0.12500000000E+03  0.12500000000E+03 0.  0.
        -13    1    3    3    0    0  0.19803185589E+02  0.20865507969E+02 -0.45242031527E+02  0.53613320760E+02  0.10566000000E+00 0. -1.
         23    2    1    0    0    0  0.25128484783E+02  0.97705219121E+01 -0.26951474969E+01  0.97904471477E+02  0.94080379831E+02 0.  0.
         13    1    3    3    0    0  0.53252991942E+01 -0.11094986057E+02  0.42546884030E+02  0.44291150716E+02  0.10566000000E+00 0.  1.
         22    1    1    0    0    0 -0.25128484783E+02 -0.97705219121E+01  0.26951474969E+01  0.27095528523E+02  0.00000000000E+00 0.  1.
</event>
<event>
 5    1  0.1751020E-003  0.9118800E+02  0.7818608E-02  0.1130116E+00
         25   -1    0    0    0    0  0.00000000000E+00  0.00000000000E+00  0.99999998245E-14  0.12500000000E+03  0.12500000000E+03 0.  0.
        -13    1    3    3    0    0 -0.38412685374E+02 -0.19019321754E+00 -0.16144820830E+02  0.41668177003E+02  0.10566000000E+00 0. -1.
         23    2    1    0    0    0 -0.57386490848E+00  0.25388180502E+02  0.13619369397E+02  0.96183750194E+02  0.91765666501E+02 0.  0.
         13    1    3    3    0    0  0.37838820466E+02  0.25578373719E+02  0.29764190227E+02  0.54515573190E+02  0.10566000000E+00 0.  1.
         22    1    1    0    0    0  0.57386490848E+00 -0.25388180502E+02 -0.13619369397E+02  0.28816249806E+02  0.00000000000E+00 0.  1.
</event>
<event>
 5    1  0.1751020E-003  0.9118800E+02  0.7818608E-02  0.1130116E+00
         25   -1    0    0    0    0  0.00000000000E+00  0.00000000000E+00  0.99999998245E-14  0.12500000000E+03  0.12500000000E+03 0.  0.
        -13    1    3    3    0    0 -0.14553630412E+02 -0.19571124027E+01 -0.55571077904E+02  0.57478642212E+02  0.10566000000E+00 0. -1.
         23    2    1    0    0    0  0.73407543400E+01 -0.11709294136E+02 -0.26110074033E+02  0.95457992461E+02  0.90771681240E+02 0.  0.
         13    1    3    3    0    0  0.21894384752E+02 -0.97521817332E+01  0.29461003871E+02  0.37979350249E+02  0.10566000000E+00 0.  1.
         22    1    1    0    0    0 -0.73407543400E+01  0.11709294136E+02  0.26110074033E+02  0.29542007539E+02  0.00000000000E+00 0. -1.
</event>
<event>
 5    1  0.1751020E-003  0.9118800E+02  0.7818608E-02  0.1130116E+00
         25   -1    0    0    0    0  0.00000000000E+00  0.00000000000E+00  0.99999998245E-14  0.12500000000E+03  0.12500000000E+03 0.  0.
        -13    1    3    3    0    0  0.28551042747E+02 -0.43000319792E+02  0.60193130750E+01  0.51965689047E+02  0.10566000000E+00 0.  1.
         23    2    1    0    0    0  0.12560719655E+02 -0.85539591194E+01  0.26004779303E+02  0.94880397720E+02  0.89972770493E+02 0.  0.
         13    1    3    3    0    0 -0.15990323092E+02  0.34446360673E+02  0.19985466228E+02  0.42914708674E+02  0.10566000000E+00 0. -1.
         22    1    1    0    0    0 -0.12560719655E+02  0.85539591194E+01 -0.26004779303E+02  0.30119602280E+02  0.00000000000E+00 0.  1.
</event>
<event>
 5    1  0.1751020E-003  0.9118800E+02  0.7818608E-02  0.1130116E+00
         25   -1    0    0    0    0  0.00000000000E+00  0.00000000000E+00  0.99999998245E-14  0.12500000000E+03  0.12500000000E+03 0.  0.
        -13    1    3    3    0    0 -0.33287130863E+02 -0.35812577528E+01 -0.32995887257E+02  0.47006363697E+02  0.10566000000E+00 0.  1.
         23    2    1    0    0    0  0.10933222485E+02 -0.18796271568E+02 -0.18862901690E+01  0.10317356490E+03  0.10083844120E+03 0.  0.
         13    1    3    3    0    0  0.44220353347E+02 -0.15215013815E+02  0.31109597088E+02  0.56167201199E+02  0.10566000000E+00 0. -1.
         22    1    1    0    0    0 -0.10933222485E+02  0.18796271568E+02  0.18862901690E+01  0.21826435104E+02  0.00000000000E+00 0.  1.
</event>
<event>
 5    1  0.1751020E-003  0.9118800E+02  0.7818608E-02  0.1130116E+00
         25   -1    0    0    0    0  0.00000000000E+00  0.00000000000E+00  0.99999998245E-14  0.12500000000E+03  0.12500000000E+03 0.  0.
        -13    1    3    3    0    0 -0.51492874352E+02 -0.38181952173E+01  0.31725018973E+01  0.51731718086E+02  0.10566000000E+00 0. -1.
         23    2    1    0    0    0 -0.19210556180E+02  0.14743346457E+01 -0.23975126187E+02  0.94242467474E+02  0.89082079391E+02 0.  0.
         13    1    3    3    0    0  0.32282318172E+02  0.52925298629E+01 -0.27147628084E+02  0.42510749389E+02  0.10566000000E+00 0.  1.
         22    1    1    0    0    0  0.19210556180E+02 -0.14743346457E+01  0.23975126187E+02  0.30757532526E+02  0.00000000000E+00 0.  1.
</event>
<event>
 5    1  0.1751020E-003  0.9118800E+02  0.7818608E-02  0.1130116E+00
         25   -1    0    0    0    0  0.00000000000E+00  0.00000000000E+00  0.99999998245E-14  0.12500000000E+03  0.12500000000E+03 0.  0.
        -13    1    3    3    0    0  0.19213593282E+02 -0.14304715472E+02  0.36637204452E+02  0.43773084945E+02  0.10566000000E+00 0. -1.
         23    2    1    0    0    0 -0.13900975731E+01  0.26541944045E+02  0.10823237938E+02  0.96302445324E+02  0.91927206696E+02 0.  0.
         13    1    3    3    0    0 -0.20603690856E+02  0.40846659517E+02 -0.25813966514E+02  0.52529360378E+02  0.10566000000E+00 0.  1.
         22    1    1    0    0    0  0.13900975731E+01 -0.26541944045E+02 -0.10823237938E+02  0.28697554676E+02  0.00000000000E+00 0.  1.
</event>
<event>
 5    1  0.1751020E-003  0.9118800E+02  0.7818608E-02  0.1130116E+00
         25   -1    0    0    0    0  0.00000000000E+00  0.00000000000E+00  0.99999998245E-14  0.12500000000E+03  0.12500000000E+03 0.  0.
        -13    1    3    3    0    0  0.16328209861E+02  0.96292588176E+01  0.26347369963E+02  0.32458098074E+02  0.10566000000E+00 0. -1.
         23    2    1    0    0    0  0.61642800769E-01 -0.17737657173E+02 -0.25880524701E+02  0.93624375056E+02  0.88210508240E+02 0.  0.
         13    1    3    3    0    0 -0.16266567060E+02 -0.27366915991E+02 -0.52227894664E+02  0.61166276982E+02  0.10566000000E+00 0.  1.
         22    1    1    0    0    0 -0.61642800769E-01  0.17737657173E+02  0.25880524701E+02  0.31375624944E+02  0.00000000000E+00 0.  1.
</event>
<event>
 5    1  0.1751020E-003  0.9118800E+02  0.7818608E-02  0.1130116E+00
         25   -1    0    0    0    0  0.00000000000E+00  0.00000000000E+00  0.99999998245E-14  0.12500000000E+03  0.12500000000E+03 0.  0.
        -13    1    3    3    0    0 -0.31681996357E+02 -0.22004190386E+01  0.16759839006E+02  0.35909526656E+02  0.10566000000E+00 0.  1.
         23    2    1    0    0    0  0.26835794145E+02  0.20520375262E+01  0.14038030176E+02  0.94644819278E+02  0.89644881725E+02 0.  0.
         13    1    3    3    0    0  0.58517790502E+02  0.42524565647E+01 -0.27218088300E+01  0.58735292622E+02  0.10566000000E+00 0. -1.
         22    1    1    0    0    0 -0.26835794145E+02 -0.20520375262E+01 -0.14038030176E+02  0.30355180722E+02  0.00000000000E+00 0. -1.
</event>
<event>
 5    1  0.1751020E-003  0.9118800E+02  0.7818608E-02  0.1130116E+00
         25   -1    0    0    0    0  0.00000000000E+00  0.00000000000E+00  0.99999998245E-14  0.12500000000E+03  0.12500000000E+03 0.  0.
        -13    1    3    3    0    0  0.87052274624E+01  0.21479882113E+02  0.49021095731E+02  0.54224028912E+02  0.10566000000E+00 0.  1.
         23    2    1    0    0    0  0.25035181014E+01 -0.12850595398E+02  0.25610142843E+02  0.96237440632E+02  0.91838772629E+02 0.  0.
         13    1    3    3    0    0 -0.62017093610E+01 -0.34330477512E+02 -0.23410952888E+02  0.42013411720E+02  0.10566000000E+00 0. -1.
         22    1    1    0    0    0 -0.25035181014E+01  0.12850595398E+02 -0.25610142843E+02  0.28762559368E+02  0.00000000000E+00 0. -1.
</event>
<event>
 5    1  0.1751020E-003  0.9118800E+02  0.7818608E-02  0.1130116E+00
         25   -1    0    0    0    0  0.00000000000E+00  0.00000000000E+00  0.99999998245E-14  0.12500000000E+03  0.12500000000E+03 0.  0.
        -13    1    3    3    0    0 -0.37046214627E+02 -0.50392663502E+01  0.12750263220E+02  0.39501855650E+02  0.10566000000E+00 0.  1.
         23    2    1    0    0    0  0.16458775600E+02  0.69134188360E+00  0.25349368552E+02  0.94768233034E+02  0.89816803877E+02 0.  0.
         13    1    3    3    0    0  0.53504990228E+02  0.57306082338E+01  0.12599105332E+02  0.55266377385E+02  0.10566000000E+00 0. -1.
         22    1    1    0    0    0 -0.16458775600E+02 -0.69134188360E+00 -0.25349368552E+02  0.30231766966E+02  0.00000000000E+00 0. -1.
</event>
<event>
 5    1  0.1751020E-003  0.9118800E+02  0.7818608E-02  0.1130116E+00
         25   -1    0    0    0    0  0.00000000000E+00  0.00000000000E+00  0.99999998245E-14  0.12500000000E+03  0.12500000000E+03 0.  0.
        -13    1    3    3    0    0 -0.17962762372E+02  0.43182271100E+02  0.40862302524E+02  0.62105622137E+02  0.10566000000E+00 0. -1.
         23    2    1    0    0    0 -0.10660844791E+02  0.22422259726E+02  0.15297249805E+02  0.95838086577E+02  0.91293601333E+02 0.  0.
         13    1    3    3    0    0  0.73019175813E+01 -0.20760011374E+02 -0.25565052720E+02  0.33732464440E+02  0.10566000000E+00 0.  1.
         22    1    1    0    0    0  0.10660844791E+02 -0.22422259726E+02 -0.15297249805E+02  0.29161913423E+02  0.00000000000E+00 0. -1.
</event>
<event>
 5    1  0.1751020E-003  0.9118800E+02  0.7818608E-02  0.1130116E+00
         25   -1    0    0    0    0  0.00000000000E+00  0.00000000000E+00  0.99999998245E-14  0.12500000000E+03  0.12500000000E+03 0.  0.
        -13    1    3    3    0    0  0.31836193639E+02 -0.18343690020E+02  0.49850852829E+02  0.61928611165E+02  0.10566000000E+00 0. -1.
         23    2    1    0    0    0  0.13963004830E+02 -0.12300160582E+02  0.32439690087E+02  0.87602233394E+02  0.79218421774E+02 0.  0.
         13    1    3    3    0    0 -0.17873188809E+02  0.60435294380E+01 -0.17411162742E+02  0.25673622229E+02  0.10566000000E+00 0.  1.
         22    1    1    0    0    0 -0.13963004830E+02  0.12300160582E+02 -0.32439690087E+02  0.37397766606E+02  0.00000000000E+00 0. -1.
</event>
<event>
 5    1  0.1751020E-003  0.9118800E+02  0.7818608E-02  0.1130116E+00
         25   -1    0    0    0    0  0.00000000000E+00  0.00000000000E+00  0.99999998245E-14  0.12500000000E+03  0.12500000000E+03 0.  0.
        -13    1    3    3    0    0 -0.24778253577E+02 -0.12789239125E+02 -0.45829652156E+02  0.53646012606E+02  0.10566000000E+00 0. -1.
         23    2    1    0    0    0  0.11411699541E+02 -0.11254645316E+02 -0.24623440422E+02  0.95619602695E+02  0.90993959545E+02 0.  0.
         13    1    3    3    0    0  0.36189953118E+02  0.15345938099E+01  0.21206211734E+02  0.41973590089E+02  0.10566000000E+00 0.  1.
         22    1    1    0    0    0 -0.11411699541E+02  0.11254645316E+02  0.24623440422E+02  0.29380397305E+02  0.00000000000E+00 0. -1.
</event>
<event>
 5    1  0.1751020E-003  0.9118800E+02  0.7818608E-02  0.1130116E+00
         25   -1    0    0    0    0  0.00000000000E+00  0.00000000000E+00  0.99999998245E-14  0.12500000000E+03  0.12500000000E+03 0.  0.
        -13    1    3    3    0    0 -0.47816476884E+02 -0.93013651690E+01  0.37322485498E+02  0.61367010221E+02  0.10566000000E+00 0.  1.
         23    2    1    0    0    0 -0.24272609405E+02 -0.86809008704E+01  0.10228904094E+02  0.97266480818E+02  0.93228859290E+02 0.  0.
         13    1    3    3    0    0  0.23543867479E+02  0.62046429851E+00 -0.27093581404E+02  0.35899470597E+02  0.10566000000E+00 0. -1.
         22    1    1    0    0    0  0.24272609405E+02  0.86809008704E+01 -0.10228904094E+02  0.27733519182E+02  0.00000000000E+00 0.  1.
</event>
<event>
 5    1  0.1751020E-003  0.9118800E+02  0.7818608E-02  0.1130116E+00
         25   -1    0    0    0    0  0.00000000000E+00  0.00000000000E+00  0.99999998245E-14  0.12500000000E+03  0.12500000000E+03 0.  0.
        -13    1    3    3    0    0  0.12358326437E+02 -0.11968527846E+02 -0.31400087205E+02  0.35804336771E+02  0.10566000000E+00 0.  1.
         23    2    1    0    0    0 -0.17736727766E+02 -0.15105683851E+02  0.19232777470E+02  0.94789522916E+02  0.89846428582E+02 0.  0.
         13    1    3    3    0    0 -0.30095054204E+02 -0.31371560054E+01  0.50632864674E+02  0.58985186145E+02  0.10566000000E+00 0. -1.
         22    1    1    0    0    0  0.17736727766E+02  0.15105683851E+02 -0.19232777470E+02  0.30210477084E+02  0.00000000000E+00 0. -1.
</event>
<event>
 5    1  0.1751020E-003  0.9118800E+02  0.7818608E-02  0.1130116E+00
         25   -1    0    0    0    0  0.00000000000E+00  0.00000000000E+00  0.99999998245E-14  0.12500000000E+03  0.12500000000E+03 0.  0.
        -13    1    3    3    0    0 -0.22294596902E+02  0.47027993798E+02  0.92202327716E+00  0.52053266397E+02  0.10566000000E+00 0. -1.
         23    2    1    0    0    0  0.80589697103E+01  0.22674485345E+02 -0.17633796463E+02  0.95166628482E+02  0.90369558594E+02 0.  0.
         13    1    3    3    0    0  0.30353566612E+02 -0.24353508453E+02 -0.18555819740E+02  0.43113362085E+02  0.10566000000E+00 0.  1.
         22    1    1    0    0    0 -0.80589697103E+01 -0.22674485345E+02  0.17633796463E+02  0.29833371518E+02  0.00000000000E+00 0. -1.
</event>
<event>
 5    1  0.1751020E-003  0.9118800E+02  0.7818608E-02  0.1130116E+00
         25   -1    0    0    0    0  0.00000000000E+00  0.00000000000E+00  0.99999998245E-14  0.12500000000E+03  0.12500000000E+03 0.  0.
        -13    1    3    3    0    0  0.14947069457E+02 -0.10398481773E+02  0.38114839852E+02  0.42240921977E+02  0.10566000000E+00 0.  1.
         23    2    1    0    0    0  0.69732636018E+01 -0.25728535359E+02 -0.12378546827E+02  0.95609315106E+02  0.90979826206E+02 0.  0.
         13    1    3    3    0    0 -0.79738058555E+01 -0.15330053586E+02 -0.50493386679E+02  0.53368393129E+02  0.10566000000E+00 0. -1.
         22    1    1    0    0    0 -0.69732636018E+01  0.25728535359E+02  0.12378546827E+02  0.29390684894E+02  0.00000000000E+00 0. -1.
</event>
<event>
 5    1  0.1751020E-003  0.9118800E+02  0.7818608E-02  0.1130116E+00
         25   -1    0    0    0    0  0.00000000000E+00  0.00000000000E+00  0.99999998245E-14  0.12500000000E+03  0.12500000000E+03 0.  0.
        -13    1    3    3    0    0  0.53312258452E+02  0.15486766856E+02 -0.50140893560E-01  0.55516218595E+02  0.10566000000E+00 0. -1.
         23    2    1    0    0    0  0.36622335840E+02  0.25867505950E+02 -0.12085110440E+02  0.78563233954E+02  0.63370407040E+02 0.  0.
         13    1    3    3    0    0 -0.16689922612E+02  0.10380739094E+02 -0.12034969547E+02  0.23047015359E+02  0.10566000000E+00 0.  1.
         22    1    1    0    0    0 -0.36622335840E+02 -0.25867505950E+02  0.12085110440E+02  0.46436766046E+02  0.00000000000E+00 0. -1.
</event>
<event>
 5    1  0.1751020E-003  0.9118800E+02  0.7818608E-02  0.1130116E+00
         25   -1    0    0    0    0  0.00000000000E+00  0.00000000000E+00  0.99999998245E-14  0.12500000000E+03  0.12500000000E+03 0.  0.
        -13    1    3    3    0    0 -0.89196324434E+01  0.37196728465E+02 -0.26804215890E+01  0.38345172777E+02  0.10566000000E+00 0. -1.
         23    2    1    0    0    0  0.11763389974E+02 -0.13462265778E+01  0.29869703543E+02  0.92869191429E+02  0.87133792854E+02 0.  0.
         13    1    3    3    0    0  0.20683022417E+02 -0.38542955042E+02  0.32550125132E+02  0.54524018651E+02  0.10566000000E+00 0.  1.
         22    1    1    0    0    0 -0.11763389974E+02  0.13462265778E+01 -0.29869703543E+02  0.32130808571E+02  0.00000000000E+00 0. -1.
</event>
<event>
 5    1  0.1751020E-003  0.9118800E+02  0.7818608E-02  0.1130116E+00
         25   -1    0    0    0    0  0.00000000000E+00  0.00000000000E+00  0.99999998245E-14  0.12500000000E+03  0.12500000000E+03 0.  0.
        -13    1    3    3    0    0  0.73428065069E+01  0.33209078884E+02 -0.22431673502E+02  0.40742494620E+02  0.10566000000E+00 0.  1.
         23    2    1    0    0    0 -0.52699685662E+01  0.10152777941E+02  0.26417316434E+02  0.96212397179E+02  0.91804680135E+02 0.  0.
         13    1    3    3    0    0 -0.12612775073E+02 -0.23056300943E+02  0.48848989936E+02  0.55469902560E+02  0.10566000000E+00 0. -1.
         22    1    1    0    0    0  0.52699685662E+01 -0.10152777941E+02 -0.26417316434E+02  0.28787602821E+02  0.00000000000E+00 0. -1.
</event>
<event>
 5    1  0.1751020E-003  0.9118800E+02  0.7818608E-02  0.1130116E+00
         25   -1    0    0    0    0  0.00000000000E+00  0.00000000000E+00  0.99999998245E-14  0.12500000000E+03  0.12500000000E+03 0.  0.
        -13    1    3    3    0    0  0.48808119683E+01  0.33080727297E+02  0.10557368750E+02  0.35066024054E+02  0.10566000000E+00 0.  1.
         23    2    1    0    0    0  0.11359719058E+02 -0.20315495654E+02 -0.17638247162E+02  0.95796056025E+02  0.91236034582E+02 0.  0.
         13    1    3    3    0    0  0.64789070899E+01 -0.53396222951E+02 -0.28195615912E+02  0.60730031971E+02  0.10566000000E+00 0. -1.
         22    1    1    0    0    0 -0.11359719058E+02  0.20315495654E+02  0.17638247162E+02  0.29203943975E+02  0.00000000000E+00 0. -1.
</event>
<event>
 5    1  0.1751020E-003  0.9118800E+02  0.7818608E-02  0.1130116E+00
         25   -1    0    0    0    0  0.00000000000E+00  0.00000000000E+00  0.99999998245E-14  0.12500000000E+03  0.12500000000E+03 0.  0.
        -13    1    3    3    0    0 -0.28603230885E+02  0.50033839287E+01  0.25965058987E+02  0.38953486622E+02  0.10566000000E+00 0. -1.
         23    2    1    0    0    0 -0.82034603489E+01 -0.18106764923E+01 -0.27321041058E+02  0.96416532829E+02  0.92082208961E+02 0.  0.
         13    1    3    3    0    0  0.20399770536E+02 -0.68140604210E+01 -0.53286100044E+02  0.57463046207E+02  0.10566000000E+00 0.  1.
         22    1    1    0    0    0  0.82034603489E+01  0.18106764923E+01  0.27321041058E+02  0.28583467171E+02  0.00000000000E+00 0.  1.
</event>
<event>
 5    1  0.1751020E-003  0.9118800E+02  0.7818608E-02  0.1130116E+00
         25   -1    0    0    0    0  0.00000000000E+00  0.00000000000E+00  0.99999998245E-14  0.12500000000E+03  0.12500000000E+03 0.  0.
        -13    1    3    3    0    0 -0.22311801855E+02 -0.30146582537E+02 -0.42221962984E+02  0.56474226537E+02  0.10566000000E+00 0. -1.
         23    2    1    0    0    0  0.58584106571E+01 -0.24331090902E+02 -0.16847998596E+02  0.94830843290E+02  0.89903897704E+02 0.  0.
         13    1    3    3    0    0  0.28170212512E+02  0.58154916348E+01  0.25373964388E+02  0.38356616753E+02  0.10566000000E+00 0.  1.
         22    1    1    0    0    0 -0.58584106571E+01  0.24331090902E+02  0.16847998596E+02  0.30169156710E+02  0.00000000000E+00 0. -1.
</event>
<event>
 5    1  0.1751020E-003  0.9118800E+02  0.7818608E-02  0.1130116E+00
         25   -1    0    0    0    0  0.00000000000E+00  0.00000000000E+00  0.99999998245E-14  0.12500000000E+03  0.12500000000E+03 0.  0.
        -13    1    3    3    0    0  0.16878810393E+02  0.56488004017E+02  0.38732848496E+01  0.59083012260E+02  0.10566000000E+00 0.  1.
         23    2    1    0    0    0  0.19664334784E+02  0.21798172020E+02 -0.55161451461E+01  0.95129040471E+02  0.90317551549E+02 0.  0.
         13    1    3    3    0    0  0.27855243908E+01 -0.34689831997E+02 -0.93894299957E+01  0.36046028211E+02  0.10566000000E+00 0. -1.
         22    1    1    0    0    0 -0.19664334784E+02 -0.21798172020E+02  0.55161451461E+01  0.29870959529E+02  0.00000000000E+00 0.  1.
</event>
<event>
 5    1  0.1751020E-003  0.9118800E+02  0.7818608E-02  0.1130116E+00
         25   -1    0    0    0    0  0.00000000000E+00  0.00000000000E+00  0.99999998245E-14  0.12500000000E+03  0.12500000000E+03 0.  0.
        -13    1    3    3    0    0 -0.21531096912E+02  0.20744111061E+02  0.18757172020E+02  0.35295168851E+02  0.10566000000E+00 0. -1.
         23    2    1    0    0    0  0.31000439412E+02  0.15140981785E+02  0.32864447652E+01  0.90343437961E+02  0.83431765476E+02 0.  0.
         13    1    3    3    0    0  0.52531536324E+02 -0.56031292758E+01 -0.15470727255E+02  0.55048269111E+02  0.10566000000E+00 0.  1.
         22    1    1    0    0    0 -0.31000439412E+02 -0.15140981785E+02 -0.32864447652E+01  0.34656562039E+02  0.00000000000E+00 0.  1.
</event>
<event>
 5    1  0.1751020E-003  0.9118800E+02  0.7818608E-02  0.1130116E+00
         25   -1    0    0    0    0  0.00000000000E+00  0.00000000000E+00  0.99999998245E-14  0.12500000000E+03  0.12500000000E+03 0.  0.
        -13    1    3    3    0    0 -0.22230197358E+02 -0.41453231976E+02 -0.34904506563E+02  0.58573781321E+02  0.10566000000E+00 0. -1.
         23    2    1    0    0    0 -0.19673664835E+02 -0.73088864915E+01 -0.20309513303E+02  0.95794705268E+02  0.91234183928E+02 0.  0.
         13    1    3    3    0    0  0.25565325234E+01  0.34144345485E+02  0.14594993259E+02  0.37220923946E+02  0.10566000000E+00 0.  1.
         22    1    1    0    0    0  0.19673664835E+02  0.73088864915E+01  0.20309513303E+02  0.29205294732E+02  0.00000000000E+00 0. -1.
</event>
<event>
 5    1  0.1751020E-003  0.9118800E+02  0.7818608E-02  0.1130116E+00
         25   -1    0    0    0    0  0.00000000000E+00  0.00000000000E+00  0.99999998245E-14  0.12500000000E+03  0.12500000000E+03 0.  0.
        -13    1    3    3    0    0 -0.27713861365E+02  0.50996155061E+01  0.25887211378E+02  0.38265167804E+02  0.10566000000E+00 0. -1.
         23    2    1    0    0    0  0.39476756166E+01  0.25868189739E+02 -0.15680441824E+02  0.94493875387E+02  0.89434159283E+02 0.  0.
         13    1    3    3    0    0  0.31661536982E+02  0.20768574232E+02 -0.41567653202E+02  0.56228707583E+02  0.10566000000E+00 0.  1.
         22    1    1    0    0    0 -0.39476756166E+01 -0.25868189739E+02  0.15680441824E+02  0.30506124613E+02  0.00000000000E+00 0.  1.
</event>
<event>
 5    1  0.1751020E-003  0.9118800E+02  0.7818608E-02  0.1130116E+00
         25   -1    0    0    0    0  0.00000000000E+00  0.00000000000E+00  0.99999998245E-14  0.12500000000E+03  0.12500000000E+03 0.  0.
        -13    1    3    3    0    0  0.17173900149E+02 -0.96192261998E+01  0.23657574787E+02  0.30776035610E+02  0.10566000000E+00 0. -1.
         23    2    1    0    0    0 -0.96872756000E+01  0.12686889698E+02 -0.27789434945E+02  0.92952329674E+02  0.87252979424E+02 0.  0.
         13    1    3    3    0    0 -0.26861175749E+02  0.22306115898E+02 -0.51447009732E+02  0.62176294064E+02  0.10566000000E+00 0.  1.
         22    1    1    0    0    0  0.96872756000E+01 -0.12686889698E+02  0.27789434945E+02  0.32047670326E+02  0.00000000000E+00 0.  1.
</event>
<event>
 5    1  0.1751020E-003  0.9118800E+02  0.7818608E-02  0.1130116E+00
         25   -1    0    0    0    0  0.00000000000E+00  0.00000000000E+00  0.99999998245E-14  0.12500000000E+03  0.12500000000E+03 0.  0.
        -13    1    3    3    0    0  0.52871887458E+02 -0.74935899939E+01  0.20022159688E+02  0.57030591940E+02  0.10566000000E+00 0.  1.
         23    2    1    0    0    0  0.24931074215E+02 -0.18486907616E+02 -0.14254453507E+01  0.93929819614E+02  0.88642286205E+02 0.  0.
         13    1    3    3    0    0 -0.27940813243E+02 -0.10993317623E+02 -0.21447605039E+02  0.36899227674E+02  0.10566000000E+00 0. -1.
         22    1    1    0    0    0 -0.24931074215E+02  0.18486907616E+02  0.14254453507E+01  0.31070180386E+02  0.00000000000E+00 0.  1.
</event>
<event>
 5    1  0.1751020E-003  0.9118800E+02  0.7818608E-02  0.1130116E+00
         25   -1    0    0    0    0  0.00000000000E+00  0.00000000000E+00  0.99999998245E-14  0.12500000000E+03  0.12500000000E+03 0.  0.
        -13    1    3    3    0    0 -0.16856972829E+02  0.48981127739E+02  0.73649462766E+01  0.52321716383E+02  0.10566000000E+00 0. -1.
         23    2    1    0    0    0  0.36196306981E+01  0.29606304842E+02 -0.17931750298E+02  0.90197950038E+02  0.83213505572E+02 0.  0.
         13    1    3    3    0    0  0.20476603527E+02 -0.19374822897E+02 -0.25296696574E+02  0.37876233655E+02  0.10566000000E+00 0.  1.
         22    1    1    0    0    0 -0.36196306981E+01 -0.29606304842E+02  0.17931750298E+02  0.34802049962E+02  0.00000000000E+00 0. -1.
</event>
<event>
 5    1  0.1751020E-003  0.9118800E+02  0.7818608E-02  0.1130116E+00
         25   -1    0    0    0    0  0.00000000000E+00  0.00000000000E+00  0.99999998245E-14  0.12500000000E+03  0.12500000000E+03 0.  0.
        -13    1    3    3    0    0  0.53736963428E+01  0.84718917864E+00 -0.61258560250E+02  0.61499729348E+02  0.10566000000E+00 0. -1.
         23    2    1    0    0    0 -0.24426383389E+01 -0.57335035825E+01 -0.28997594307E+02  0.95340262628E+02  0.90609412629E+02 0.  0.
         13    1    3    3    0    0 -0.78163346817E+01 -0.65806927612E+01  0.32260965943E+02  0.33840533280E+02  0.10566000000E+00 0.  1.
         22    1    1    0    0    0  0.24426383389E+01  0.57335035825E+01  0.28997594307E+02  0.29659737372E+02  0.00000000000E+00 0. -1.
</event>
<event>
 5    1  0.1751020E-003  0.9118800E+02  0.7818608E-02  0.1130116E+00
         25   -1    0    0    0    0  0.00000000000E+00  0.00000000000E+00  0.99999998245E-14  0.12500000000E+03  0.12500000000E+03 0.  0.
        -13    1    3    3    0    0 -0.10826155477E+02 -0.44755450146E+02 -0.34035682477E+02  0.57259888281E+02  0.10566000000E+00 0. -1.
         23    2    1    0    0    0 -0.22327529453E+02 -0.15964542333E+02 -0.13846544849E+02  0.94257326277E+02  0.89102926828E+02 0.  0.
         13    1    3    3    0    0 -0.11501373977E+02  0.28790907813E+02  0.20189137628E+02  0.36997437996E+02  0.10566000000E+00 0.  1.
         22    1    1    0    0    0  0.22327529453E+02  0.15964542333E+02  0.13846544849E+02  0.30742673723E+02  0.00000000000E+00 0. -1.
</event>
<event>
 5    1  0.1751020E-003  0.9118800E+02  0.7818608E-02  0.1130116E+00
         25   -1    0    0    0    0  0.00000000000E+00  0.00000000000E+00  0.99999998245E-14  0.12500000000E+03  0.12500000000E+03 0.  0.
        -13    1    3    3    0    0 -0.91398553681E+01  0.12707839879E+02  0.36963027362E+02  0.40141035193E+02  0.10566000000E+00 0.  1.
         23    2    1    0    0    0 -0.19439712029E+02  0.25430249142E+01 -0.18851850803E+02  0.97801440145E+02  0.93943387400E+02 0.  0.
         13    1    3    3    0    0 -0.10299856661E+02 -0.10164814965E+02 -0.55814878166E+02  0.57660404952E+02  0.10566000000E+00 0. -1.
         22    1    1    0    0    0  0.19439712029E+02 -0.25430249142E+01  0.18851850803E+02  0.27198559855E+02  0.00000000000E+00 0. -1.
</event>
<event>
 5    1  0.1751020E-003  0.9118800E+02  0.7818608E-02  0.1130116E+00
         25   -1    0    0    0    0  0.00000000000E+00  0.00000000000E+00  0.99999998245E-14  0.12500000000E+03  0.12500000000E+03 0.  0.
        -13    1    3    3    0    0  0.10922568490E+02  0.37833156949E+01 -0.33036139427E+02  0.35000195033E+02  0.10566000000E+00 0.  1.
         23    2    1    0    0    0 -0.16269598995E+02  0.65506568942E+01  0.22246819450E+02  0.96671005438E+02  0.92427005575E+02 0.  0.
         13    1    3    3    0    0 -0.27192167485E+02  0.27673411992E+01  0.55282958877E+02  0.61670810406E+02  0.10566000000E+00 0. -1.
         22    1    1    0    0    0  0.16269598995E+02 -0.65506568942E+01 -0.22246819450E+02  0.28328994562E+02  0.00000000000E+00 0. -1.
</event>
<event>
 5    1  0.1751020E-003  0.9118800E+02  0.7818608E-02  0.1130116E+00
         25   -1    0    0    0    0  0.00000000000E+00  0.00000000000E+00  0.99999998245E-14  0.12500000000E+03  0.12500000000E+03 0.  0.
        -13    1    3    3    0    0  0.50875843040E+02 -0.93114722991E+01  0.14993374136E+02  0.53850416465E+02  0.10566000000E+00 0. -1.
         23    2    1    0    0    0  0.15143719841E+02  0.15208728225E+02  0.17569587671E+02  0.97263236026E+02  0.93224508615E+02 0.  0.
         13    1    3    3    0    0 -0.35732123199E+02  0.24520200524E+02  0.25762135357E+01  0.43412819561E+02  0.10566000000E+00 0.  1.
         22    1    1    0    0    0 -0.15143719841E+02 -0.15208728225E+02 -0.17569587671E+02  0.27736763974E+02  0.00000000000E+00 0. -1.
</event>
<event>
 5    1  0.1751020E-003  0.9118800E+02  0.7818608E-02  0.1130116E+00
         25   -1    0    0    0    0  0.00000000000E+00  0.00000000000E+00  0.99999998245E-14  0.12500000000E+03  0.12500000000E+03 0.  0.
        -13    1    3    3    0    0 -0.41906991673E+02 -0.33483295078E+02  0.29533303950E+02  0.61233603573E+02  0.10566000000E+00 0.  1.
         23    2    1    0    0    0 -0.24766558153E+02 -0.11784006333E+02  0.75694764328E+01  0.96547545247E+02  0.92259884629E+02 0.  0.
         13    1    3    3    0    0  0.17140433520E+02  0.21699288745E+02 -0.21963827517E+02  0.35313941674E+02  0.10566000000E+00 0. -1.
         22    1    1    0    0    0  0.24766558153E+02  0.11784006333E+02 -0.75694764328E+01  0.28452454753E+02  0.00000000000E+00 0.  1.
</event>
<event>
 5    1  0.1751020E-003  0.9118800E+02  0.7818608E-02  0.1130116E+00
         25   -1    0    0    0    0  0.00000000000E+00  0.00000000000E+00  0.99999998245E-14  0.12500000000E+03  0.12500000000E+03 0.  0.
        -13    1    3    3    0    0 -0.30732801165E+02  0.18843650280E+02 -0.21732002921E+02  0.42093697133E+02  0.10566000000E+00 0. -1.
         23    2    1    0    0    0  0.19883269020E+02  0.35791463600E+01 -0.22226535218E+02  0.94963796122E+02  0.90088562152E+02 0.  0.
         13    1    3    3    0    0  0.50616070185E+02 -0.15264503920E+02 -0.49453229677E+00  0.52870098989E+02  0.10566000000E+00 0.  1.
         22    1    1    0    0    0 -0.19883269020E+02 -0.35791463600E+01  0.22226535218E+02  0.30036203878E+02  0.00000000000E+00 0.  1.
</event>
<event>
 5    1  0.1751020E-003  0.9118800E+02  0.7818608E-02  0.1130116E+00
         25   -1    0    0    0    0  0.00000000000E+00  0.00000000000E+00  0.99999998245E-14  0.12500000000E+03  0.12500000000E+03 0.  0.
        -13    1    3    3    0    0  0.16624325499E+02 -0.12146392658E+02  0.34365921513E+02  0.40061587317E+02  0.10566000000E+00 0. -1.
         23    2    1    0    0    0 -0.15473459172E+01 -0.25766203822E+02 -0.15525302232E+02  0.94878138368E+02  0.89969631499E+02 0.  0.
         13    1    3    3    0    0 -0.18171671416E+02 -0.13619811164E+02 -0.49891223746E+02  0.54816551051E+02  0.10566000000E+00 0.  1.
         22    1    1    0    0    0  0.15473459172E+01  0.25766203822E+02  0.15525302232E+02  0.30121861632E+02  0.00000000000E+00 0.  1.
</event>
<event>
 5    1  0.1751020E-003  0.9118800E+02  0.7818608E-02  0.1130116E+00
         25   -1    0    0    0    0  0.00000000000E+00  0.00000000000E+00  0.99999998245E-14  0.12500000000E+03  0.12500000000E+03 0.  0.
        -13    1    3    3    0    0 -0.19789040153E+02  0.20289040517E+02 -0.20701572841E+02  0.35097258545E+02  0.10566000000E+00 0.  1.
         23    2    1    0    0    0  0.27069720696E+02 -0.11629563724E+02  0.23647957759E+00  0.95536930683E+02  0.90880320591E+02 0.  0.
         13    1    3    3    0    0  0.46858760850E+02 -0.31918604240E+02  0.20938052419E+02  0.60439672138E+02  0.10566000000E+00 0. -1.
         22    1    1    0    0    0 -0.27069720696E+02  0.11629563724E+02 -0.23647957759E+00  0.29463069317E+02  0.00000000000E+00 0. -1.
</event>
<event>
 5    1  0.1751020E-003  0.9118800E+02  0.7818608E-02  0.1130116E+00
         25   -1    0    0    0    0  0.00000000000E+00  0.00000000000E+00  0.99999998245E-14  0.12500000000E+03  0.12500000000E+03 0.  0.
        -13    1    3    3    0    0  0.22731596472E+02 -0.18978445724E+01 -0.32014644772E+02  0.39309997916E+02  0.10566000000E+00 0. -1.
         23    2    1    0    0    0 -0.26687682925E+02 -0.10686375516E+02 -0.69063576106E+01  0.95434330432E+02  0.90739090849E+02 0.  0.
         13    1    3    3    0    0 -0.49419279396E+02 -0.87885309433E+01  0.25108287162E+02  0.56124332517E+02  0.10566000000E+00 0.  1.
         22    1    1    0    0    0  0.26687682925E+02  0.10686375516E+02  0.69063576106E+01  0.29565669568E+02  0.00000000000E+00 0.  1.
</event>
<event>
 5    1  0.1751020E-003  0.9118800E+02  0.7818608E-02  0.1130116E+00
         25   -1    0    0    0    0  0.00000000000E+00  0.00000000000E+00  0.99999998245E-14  0.12500000000E+03  0.12500000000E+03 0.  0.
        -13    1    3    3    0    0 -0.29773652770E+02  0.20147897465E+02 -0.39839213769E+02  0.53661739529E+02  0.10566000000E+00 0. -1.
         23    2    1    0    0    0 -0.28647863161E+02 -0.52581421868E+01 -0.72766793019E+01  0.94978371387E+02  0.90108783404E+02 0.  0.
         13    1    3    3    0    0  0.11257896094E+01 -0.25406039652E+02  0.32562534467E+02  0.41316631857E+02  0.10566000000E+00 0.  1.
         22    1    1    0    0    0  0.28647863161E+02  0.52581421868E+01  0.72766793019E+01  0.30021628613E+02  0.00000000000E+00 0. -1.
</event>
<event>
 5    1  0.1751020E-003  0.9118800E+02  0.7818608E-02  0.1130116E+00
         25   -1    0    0    0    0  0.00000000000E+00  0.00000000000E+00  0.99999998245E-14  0.12500000000E+03  0.12500000000E+03 0.  0.
        -13    1    3    3    0    0  0.29673536364E+02  0.51047018916E+02  0.13704788645E+02  0.60614761374E+02  0.10566000000E+00 0.  1.
         23    2    1    0    0    0  0.66330752558E+01  0.23281003671E+02  0.14643960794E+02  0.96707803072E+02  0.92476757988E+02 0.  0.
         13    1    3    3    0    0 -0.23040461109E+02 -0.27766015245E+02  0.93917214865E+00  0.36093041698E+02  0.10566000000E+00 0. -1.
         22    1    1    0    0    0 -0.66330752558E+01 -0.23281003671E+02 -0.14643960794E+02  0.28292196928E+02  0.00000000000E+00 0.  1.
</event>
<event>
 5    1  0.1751020E-003  0.9118800E+02  0.7818608E-02  0.1130116E+00
         25   -1    0    0    0    0  0.00000000000E+00  0.00000000000E+00  0.99999998245E-14  0.12500000000E+03  0.12500000000E+03 0.  0.
        -13    1    3    3    0    0 -0.23241788712E+01 -0.43766377670E+02  0.36979536704E+02  0.57344528254E+02  0.10566000000E+00 0.  1.
         23    2    1    0    0    0 -0.11807921301E+02 -0.26134814360E+02  0.38352551151E+01  0.96066201272E+02  0.91605405506E+02 0.  0.
         13    1    3    3    0    0 -0.94837424294E+01  0.17631563311E+02 -0.33144281588E+02  0.38721673018E+02  0.10566000000E+00 0. -1.
         22    1    1    0    0    0  0.11807921301E+02  0.26134814360E+02 -0.38352551151E+01  0.28933798728E+02  0.00000000000E+00 0.  1.
</event>
<event>
 5    1  0.1751020E-003  0.9118800E+02  0.7818608E-02  0.1130116E+00
         25   -1    0    0    0    0  0.00000000000E+00  0.00000000000E+00  0.99999998245E-14  0.12500000000E+03  0.12500000000E+03 0.  0.
        -13    1    3    3    0    0  0.33932881056E+02  0.23770753475E+02 -0.26250849045E+02  0.49046991520E+02  0.10566000000E+00 0. -1.
         23    2    1    0    0    0  0.18222445715E+01 -0.99976517298E+01 -0.27520985208E+02  0.95662681748E+02  0.91053118766E+02 0.  0.
         13    1    3    3    0    0 -0.32110636485E+02 -0.33768405205E+02 -0.12701361634E+01  0.46615690228E+02  0.10566000000E+00 0.  1.
         22    1    1    0    0    0 -0.18222445715E+01  0.99976517298E+01  0.27520985208E+02  0.29337318252E+02  0.00000000000E+00 0. -1.
</event>
<event>
 5    1  0.1751020E-003  0.9118800E+02  0.7818608E-02  0.1130116E+00
         25   -1    0    0    0    0  0.00000000000E+00  0.00000000000E+00  0.99999998245E-14  0.12500000000E+03  0.12500000000E+03 0.  0.
        -13    1    3    3    0    0  0.16134276119E+02  0.26941111046E+02 -0.18025194935E+02  0.36208523123E+02  0.10566000000E+00 0. -1.
         23    2    1    0    0    0 -0.11715092929E+02 -0.25214871215E+02 -0.50371380965E+01  0.96743922903E+02  0.92525567957E+02 0.  0.
         13    1    3    3    0    0 -0.27849369048E+02 -0.52155982261E+02  0.12988056839E+02  0.60535399780E+02  0.10566000000E+00 0.  1.
         22    1    1    0    0    0  0.11715092929E+02  0.25214871215E+02  0.50371380965E+01  0.28256077097E+02  0.00000000000E+00 0.  1.
</event>
<event>
 5    1  0.1751020E-003  0.9118800E+02  0.7818608E-02  0.1130116E+00
         25   -1    0    0    0    0  0.00000000000E+00  0.00000000000E+00  0.99999998245E-14  0.12500000000E+03  0.12500000000E+03 0.  0.
        -13    1    3    3    0    0 -0.34606126426E+01 -0.55411909682E-01  0.40610432670E+02  0.40757788410E+02  0.10566000000E+00 0.  1.
         23    2    1    0    0    0  0.17530814058E+02 -0.23916217780E+02 -0.35178682607E+01  0.95138815972E+02  0.90331079885E+02 0.  0.
         13    1    3    3    0    0  0.20991426701E+02 -0.23860805870E+02 -0.44128300931E+02  0.54381027563E+02  0.10566000000E+00 0. -1.
         22    1    1    0    0    0 -0.17530814058E+02  0.23916217780E+02  0.35178682607E+01  0.29861184028E+02  0.00000000000E+00 0. -1.
</event>
<event>
 5    1  0.1751020E-003  0.9118800E+02  0.7818608E-02  0.1130116E+00
         25   -1    0    0    0    0  0.00000000000E+00  0.00000000000E+00  0.99999998245E-14  0.12500000000E+03  0.12500000000E+03 0.  0.
        -13    1    3    3    0    0  0.15870034638E+02 -0.33554774864E+01 -0.54778460227E+02  0.57129747920E+02  0.10566000000E+00 0. -1.
         23    2    1    0    0    0 -0.89658778572E+01 -0.10244195196E+02 -0.25166875846E+02  0.96387028452E+02  0.92042148567E+02 0.  0.
         13    1    3    3    0    0 -0.24835912495E+02 -0.68887177096E+01  0.29611584381E+02  0.39257280531E+02  0.10566000000E+00 0.  1.
         22    1    1    0    0    0  0.89658778572E+01  0.10244195196E+02  0.25166875846E+02  0.28612971548E+02  0.00000000000E+00 0. -1.
</event>
<event>
 5    1  0.1751020E-003  0.9118800E+02  0.7818608E-02  0.1130116E+00
         25   -1    0    0    0    0  0.00000000000E+00  0.00000000000E+00  0.99999998245E-14  0.12500000000E+03  0.12500000000E+03 0.  0.
        -13    1    3    3    0    0  0.21444286868E+02 -0.34204653799E+02 -0.19363506536E+02  0.44774684032E+02  0.10566000000E+00 0. -1.
         23    2    1    0    0    0  0.21875468602E+02 -0.14609334514E+01  0.19544336469E+02  0.95629069795E+02  0.91006963737E+02 0.  0.
         13    1    3    3    0    0  0.43118173442E+00  0.32743720347E+02  0.38907843006E+02  0.50854385762E+02  0.10566000000E+00 0.  1.
         22    1    1    0    0    0 -0.21875468602E+02  0.14609334514E+01 -0.19544336469E+02  0.29370930205E+02  0.00000000000E+00 0. -1.
</event>
<event>
 5    1  0.1751020E-003  0.9118800E+02  0.7818608E-02  0.1130116E+00
         25   -1    0    0    0    0  0.00000000000E+00  0.00000000000E+00  0.99999998245E-14  0.12500000000E+03  0.12500000000E+03 0.  0.
        -13    1    3    3    0    0 -0.23640512658E+02 -0.29350311564E+02 -0.22016618438E+02  0.43646961854E+02  0.10566000000E+00 0.  1.
         23    2    1    0    0    0  0.31857322026E+00 -0.22409767131E+02  0.21587735382E+02  0.93882007284E+02  0.88574837403E+02 0.  0.
         13    1    3    3    0    0  0.23959085879E+02  0.69405444332E+01  0.43604353820E+02  0.50235045429E+02  0.10566000000E+00 0. -1.
         22    1    1    0    0    0 -0.31857322026E+00  0.22409767131E+02 -0.21587735382E+02  0.31117992716E+02  0.00000000000E+00 0.  1.
</event>
<event>
 5    1  0.1751020E-003  0.9118800E+02  0.7818608E-02  0.1130116E+00
         25   -1    0    0    0    0  0.00000000000E+00  0.00000000000E+00  0.99999998245E-14  0.12500000000E+03  0.12500000000E+03 0.  0.
        -13    1    3    3    0    0  0.81708972143E+01  0.13070057527E+02 -0.32842086237E+02  0.36279522564E+02  0.10566000000E+00 0.  1.
         23    2    1    0    0    0  0.43355835497E+01 -0.26152347402E+02  0.11933730020E+02  0.95928425025E+02  0.91417209847E+02 0.  0.
         13    1    3    3    0    0 -0.38353136646E+01 -0.39222404929E+02  0.44775816257E+02  0.59648902461E+02  0.10566000000E+00 0. -1.
         22    1    1    0    0    0 -0.43355835497E+01  0.26152347402E+02 -0.11933730020E+02  0.29071574975E+02  0.00000000000E+00 0. -1.
</event>
<event>
 5    1  0.1751020E-003  0.9118800E+02  0.7818608E-02  0.1130116E+00
         25   -1    0    0    0    0  0.00000000000E+00  0.00000000000E+00  0.99999998245E-14  0.12500000000E+03  0.12500000000E+03 0.  0.
        -13    1    3    3    0    0  0.34590167846E+02 -0.29696290761E+01  0.46349299566E+01  0.35025592760E+02  0.10566000000E+00 0.  1.
         23    2    1    0    0    0 -0.24712940267E+02  0.13173128721E+01  0.15959294698E+02  0.95552354643E+02  0.90901532774E+02 0.  0.
         13    1    3    3    0    0 -0.59303108113E+02  0.42869419482E+01  0.11324364741E+02  0.60526761882E+02  0.10566000000E+00 0. -1.
         22    1    1    0    0    0  0.24712940267E+02 -0.13173128721E+01 -0.15959294698E+02  0.29447645357E+02  0.00000000000E+00 0. -1.
</event>
<event>
 5    1  0.1751020E-003  0.9118800E+02  0.7818608E-02  0.1130116E+00
         25   -1    0    0    0    0  0.00000000000E+00  0.00000000000E+00  0.99999998245E-14  0.12500000000E+03  0.12500000000E+03 0.  0.
        -13    1    3    3    0    0 -0.28741734191E+02 -0.10388661402E+02  0.27941173379E+01  0.30689246093E+02  0.10566000000E+00 0.  1.
         23    2    1    0    0    0  0.31721411907E+02  0.43733140549E+01  0.15556367261E+01  0.92940775823E+02  0.87236425624E+02 0.  0.
         13    1    3    3    0    0  0.60463146098E+02  0.14761975457E+02 -0.12384806118E+01  0.62251529730E+02  0.10566000000E+00 0. -1.
         22    1    1    0    0    0 -0.31721411907E+02 -0.43733140549E+01 -0.15556367261E+01  0.32059224177E+02  0.00000000000E+00 0. -1.
</event>
<event>
 5    1  0.1751020E-003  0.9118800E+02  0.7818608E-02  0.1130116E+00
         25   -1    0    0    0    0  0.00000000000E+00  0.00000000000E+00  0.99999998245E-14  0.12500000000E+03  0.12500000000E+03 0.  0.
        -13    1    3    3    0    0  0.37039170545E+02  0.23804414617E+02  0.27962702164E+02  0.52158165098E+02  0.10566000000E+00 0. -1.
         23    2    1    0    0    0  0.28859665720E+02 -0.77000216440E+01 -0.94158433034E-01  0.95130625976E+02  0.90319745870E+02 0.  0.
         13    1    3    3    0    0 -0.81795048257E+01 -0.31504436261E+02 -0.28056860598E+02  0.42972460879E+02  0.10566000000E+00 0.  1.
         22    1    1    0    0    0 -0.28859665720E+02  0.77000216440E+01  0.94158433034E-01  0.29869374024E+02  0.00000000000E+00 0.  1.
</event>
<event>
 5    1  0.1751020E-003  0.9118800E+02  0.7818608E-02  0.1130116E+00
         25   -1    0    0    0    0  0.00000000000E+00  0.00000000000E+00  0.99999998245E-14  0.12500000000E+03  0.12500000000E+03 0.  0.
        -13    1    3    3    0    0  0.54716948181E+02  0.12085605555E+02  0.17022490527E+02  0.58564346044E+02  0.10566000000E+00 0. -1.
         23    2    1    0    0    0  0.26608922730E+02 -0.10045838378E+02  0.74205895240E+01  0.95605803524E+02  0.90975001407E+02 0.  0.
         13    1    3    3    0    0 -0.28108025450E+02 -0.22131443933E+02 -0.96019010033E+01  0.37041457479E+02  0.10566000000E+00 0.  1.
         22    1    1    0    0    0 -0.26608922730E+02  0.10045838378E+02 -0.74205895240E+01  0.29394196476E+02  0.00000000000E+00 0. -1.
</event>
<event>
 5    1  0.1751020E-003  0.9118800E+02  0.7818608E-02  0.1130116E+00
         25   -1    0    0    0    0  0.00000000000E+00  0.00000000000E+00  0.99999998245E-14  0.12500000000E+03  0.12500000000E+03 0.  0.
        -13    1    3    3    0    0  0.21794733748E+02 -0.23974164755E+02 -0.72217908882E+01  0.33195427735E+02  0.10566000000E+00 0. -1.
         23    2    1    0    0    0 -0.29152141334E+02  0.76378276346E+01  0.51793694037E+01  0.94422072949E+02  0.89333746351E+02 0.  0.
         13    1    3    3    0    0 -0.50946875082E+02  0.31611992390E+02  0.12401160292E+02  0.61226645213E+02  0.10566000000E+00 0.  1.
         22    1    1    0    0    0  0.29152141334E+02 -0.76378276346E+01 -0.51793694037E+01  0.30577927051E+02  0.00000000000E+00 0.  1.
</event>
<event>
 5    1  0.1751020E-003  0.9118800E+02  0.7818608E-02  0.1130116E+00
         25   -1    0    0    0    0  0.00000000000E+00  0.00000000000E+00  0.99999998245E-14  0.12500000000E+03  0.12500000000E+03 0.  0.
        -13    1    3    3    0    0 -0.70520871480E+01  0.65415811636E-01 -0.60480665008E+02  0.60890542913E+02  0.10566000000E+00 0. -1.
         23    2    1    0    0    0 -0.51502764874E+01 -0.96257088006E+01 -0.24996896464E+02  0.97723188408E+02  0.93839208767E+02 0.  0.
         13    1    3    3    0    0  0.19018106606E+01 -0.96911246123E+01  0.35483768544E+02  0.36832645495E+02  0.10566000000E+00 0.  1.
         22    1    1    0    0    0  0.51502764874E+01  0.96257088006E+01  0.24996896464E+02  0.27276811592E+02  0.00000000000E+00 0. -1.
</event>
<event>
 5    1  0.1751020E-003  0.9118800E+02  0.7818608E-02  0.1130116E+00
         25   -1    0    0    0    0  0.00000000000E+00  0.00000000000E+00  0.99999998245E-14  0.12500000000E+03  0.12500000000E+03 0.  0.
        -13    1    3    3    0    0 -0.25944120174E+02  0.50599956776E+02 -0.10188797254E+01  0.56872684808E+02  0.10566000000E+00 0. -1.
         23    2    1    0    0    0  0.44859443450E+01  0.25732760018E+02 -0.97311304484E+01  0.97125396243E+02  0.93039502690E+02 0.  0.
         13    1    3    3    0    0  0.30430064519E+02 -0.24867196758E+02 -0.87122507229E+01  0.40252711435E+02  0.10566000000E+00 0.  1.
         22    1    1    0    0    0 -0.44859443450E+01 -0.25732760018E+02  0.97311304484E+01  0.27874603757E+02  0.00000000000E+00 0. -1.
</event>
<event>
 5    1  0.1751020E-003  0.9118800E+02  0.7818608E-02  0.1130116E+00
         25   -1    0    0    0    0  0.00000000000E+00  0.00000000000E+00  0.99999998245E-14  0.12500000000E+03  0.12500000000E+03 0.  0.
        -13    1    3    3    0    0 -0.39558742882E+02  0.11130058037E+02  0.37158816873E+02  0.55403620511E+02  0.10566000000E+00 0.  1.
         23    2    1    0    0    0 -0.18745472417E+02  0.22059751050E+02  0.44090556364E+01  0.95717494572E+02  0.91128336115E+02 0.  0.
         13    1    3    3    0    0  0.20813270465E+02  0.10929693013E+02 -0.32749761236E+02  0.40313874062E+02  0.10566000000E+00 0. -1.
         22    1    1    0    0    0  0.18745472417E+02 -0.22059751050E+02 -0.44090556364E+01  0.29282505428E+02  0.00000000000E+00 0.  1.
</event>
<event>
 5    1  0.1751020E-003  0.9118800E+02  0.7818608E-02  0.1130116E+00
         25   -1    0    0    0    0  0.00000000000E+00  0.00000000000E+00  0.99999998245E-14  0.12500000000E+03  0.12500000000E+03 0.  0.
        -13    1    3    3    0    0 -0.26589196015E+02  0.15072601099E+02  0.33993249928E+02  0.45713464683E+02  0.10566000000E+00 0.  1.
         23    2    1    0    0    0 -0.25293886393E+02 -0.92956549812E+01 -0.10191634629E+02  0.96189250152E+02  0.91773158048E+02 0.  0.
         13    1    3    3    0    0  0.12953096218E+01 -0.24368256080E+02 -0.44184884557E+02  0.50475785469E+02  0.10566000000E+00 0. -1.
         22    1    1    0    0    0  0.25293886393E+02  0.92956549812E+01  0.10191634629E+02  0.28810749848E+02  0.00000000000E+00 0. -1.
</event>
<event>
 5    1  0.1751020E-003  0.9118800E+02  0.7818608E-02  0.1130116E+00
         25   -1    0    0    0    0  0.00000000000E+00  0.00000000000E+00  0.99999998245E-14  0.12500000000E+03  0.12500000000E+03 0.  0.
        -13    1    3    3    0    0 -0.28952139748E+02  0.29684051469E+02  0.63633524006E+01  0.41950837005E+02  0.10566000000E+00 0. -1.
         23    2    1    0    0    0  0.34965995505E+01 -0.21141975568E+02 -0.41807696813E+01  0.10316681025E+03  0.10083006776E+03 0.  0.
         13    1    3    3    0    0  0.32448739299E+02 -0.50826027037E+02 -0.10544122082E+02  0.61215973250E+02  0.10566000000E+00 0.  1.
         22    1    1    0    0    0 -0.34965995505E+01  0.21141975568E+02  0.41807696813E+01  0.21833189746E+02  0.00000000000E+00 0.  1.
</event>
<event>
 5    1  0.1751020E-003  0.9118800E+02  0.7818608E-02  0.1130116E+00
         25   -1    0    0    0    0  0.00000000000E+00  0.00000000000E+00  0.99999998245E-14  0.12500000000E+03  0.12500000000E+03 0.  0.
        -13    1    3    3    0    0  0.24900119811E+02  0.21737652303E+02 -0.37942996743E+02  0.50321204876E+02  0.10566000000E+00 0.  1.
         23    2    1    0    0    0  0.12590739719E+02  0.18093525283E+02  0.10605355829E+02  0.10053827569E+03  0.97517018634E+02 0.  0.
         13    1    3    3    0    0 -0.12309380092E+02 -0.36441270208E+01  0.48548352571E+02  0.50217070817E+02  0.10566000000E+00 0. -1.
         22    1    1    0    0    0 -0.12590739719E+02 -0.18093525283E+02 -0.10605355829E+02  0.24461724307E+02  0.00000000000E+00 0.  1.
</event>
<event>
 5    1  0.1751020E-003  0.9118800E+02  0.7818608E-02  0.1130116E+00
         25   -1    0    0    0    0  0.00000000000E+00  0.00000000000E+00  0.99999998245E-14  0.12500000000E+03  0.12500000000E+03 0.  0.
        -13    1    3    3    0    0  0.11987929991E+02  0.37264200893E+02 -0.46725108216E+02  0.60955541467E+02  0.10566000000E+00 0. -1.
         23    2    1    0    0    0 -0.31112479118E+01  0.21890345574E+02 -0.21093652932E+02  0.94441706741E+02  0.89361214658E+02 0.  0.
         13    1    3    3    0    0 -0.15099177903E+02 -0.15373855320E+02  0.25631455284E+02  0.33486165274E+02  0.10566000000E+00 0.  1.
         22    1    1    0    0    0  0.31112479118E+01 -0.21890345574E+02  0.21093652932E+02  0.30558293259E+02  0.00000000000E+00 0. -1.
</event>
<event>
 5    1  0.1751020E-003  0.9118800E+02  0.7818608E-02  0.1130116E+00
         25   -1    0    0    0    0  0.00000000000E+00  0.00000000000E+00  0.99999998245E-14  0.12500000000E+03  0.12500000000E+03 0.  0.
        -13    1    3    3    0    0 -0.50706006292E+02 -0.15863216225E+02 -0.17587922842E+02  0.55965050675E+02  0.10566000000E+00 0. -1.
         23    2    1    0    0    0 -0.37641301103E+02 -0.74359149645E+01  0.79055419481E+01  0.85825289107E+02  0.76363094992E+02 0.  0.
         13    1    3    3    0    0  0.13064705189E+02  0.84273012604E+01  0.25493464790E+02  0.29860238432E+02  0.10566000000E+00 0.  1.
         22    1    1    0    0    0  0.37641301103E+02  0.74359149645E+01 -0.79055419481E+01  0.39174710893E+02  0.00000000000E+00 0.  1.
</event>
<event>
 5    1  0.1751020E-003  0.9118800E+02  0.7818608E-02  0.1130116E+00
         25   -1    0    0    0    0  0.00000000000E+00  0.00000000000E+00  0.99999998245E-14  0.12500000000E+03  0.12500000000E+03 0.  0.
        -13    1    3    3    0    0 -0.26444579037E+02  0.39582044706E+02  0.29579090209E+02  0.56044515925E+02  0.10566000000E+00 0.  1.
         23    2    1    0    0    0  0.70580269067E+00  0.30436804749E+02  0.42986313070E+01  0.94253041259E+02  0.89096915292E+02 0.  0.
         13    1    3    3    0    0  0.27150381728E+02 -0.91452399579E+01 -0.25280458902E+02  0.38208525334E+02  0.10566000000E+00 0. -1.
         22    1    1    0    0    0 -0.70580269067E+00 -0.30436804749E+02 -0.42986313070E+01  0.30746958741E+02  0.00000000000E+00 0.  1.
</event>
<event>
 5    1  0.1751020E-003  0.9118800E+02  0.7818608E-02  0.1130116E+00
         25   -1    0    0    0    0  0.00000000000E+00  0.00000000000E+00  0.99999998245E-14  0.12500000000E+03  0.12500000000E+03 0.  0.
        -13    1    3    3    0    0  0.41274053633E+02  0.30525222806E+02 -0.32803948192E+02  0.60921645674E+02  0.10566000000E+00 0.  1.
         23    2    1    0    0    0  0.18342877009E+02  0.69775247093E+01 -0.21996230724E+02  0.95521513707E+02  0.90859113064E+02 0.  0.
         13    1    3    3    0    0 -0.22931176624E+02 -0.23547698097E+02  0.10807717468E+02  0.34599868033E+02  0.10566000000E+00 0. -1.
         22    1    1    0    0    0 -0.18342877009E+02 -0.69775247093E+01  0.21996230724E+02  0.29478486293E+02  0.00000000000E+00 0.  1.
</event>
<event>
 5    1  0.1751020E-003  0.9118800E+02  0.7818608E-02  0.1130116E+00
         25   -1    0    0    0    0  0.00000000000E+00  0.00000000000E+00  0.99999998245E-14  0.12500000000E+03  0.12500000000E+03 0.  0.
        -13    1    3    3    0    0 -0.22539877953E+02  0.20558700980E+02 -0.53510258302E+02  0.61595983568E+02  0.10566000000E+00 0.  1.
         23    2    1    0    0    0 -0.63189045545E+01  0.10033668033E+02 -0.33680997125E+02  0.89292681194E+02  0.81842350275E+02 0.  0.
         13    1    3    3    0    0  0.16220973398E+02 -0.10525032947E+02  0.19829261177E+02  0.27696697626E+02  0.10566000000E+00 0. -1.
         22    1    1    0    0    0  0.63189045545E+01 -0.10033668033E+02  0.33680997125E+02  0.35707318806E+02  0.00000000000E+00 0.  1.
</event>
<event>
 5    1  0.1751020E-003  0.9118800E+02  0.7818608E-02  0.1130116E+00
         25   -1    0    0    0    0  0.00000000000E+00  0.00000000000E+00  0.99999998245E-14  0.12500000000E+03  0.12500000000E+03 0.  0.
        -13    1    3    3    0    0 -0.38035618524E+02 -0.13079926797E+02 -0.18753627762E+02  0.44379077050E+02  0.10566000000E+00 0.  1.
         23    2    1    0    0    0 -0.89785770360E+01  0.27237780916E+02 -0.57471266281E+01  0.95750367194E+02  0.91173416073E+02 0.  0.
         13    1    3    3    0    0  0.29057041488E+02  0.40317707713E+02  0.13006501134E+02  0.51371290144E+02  0.10566000000E+00 0. -1.
         22    1    1    0    0    0  0.89785770360E+01 -0.27237780916E+02  0.57471266281E+01  0.29249632806E+02  0.00000000000E+00 0. -1.
</event>
<event>
 5    1  0.1751020E-003  0.9118800E+02  0.7818608E-02  0.1130116E+00
         25   -1    0    0    0    0  0.00000000000E+00  0.00000000000E+00  0.99999998245E-14  0.12500000000E+03  0.12500000000E+03 0.  0.
        -13    1    3    3    0    0 -0.58606234270E+01  0.24373371439E+02  0.54526546804E+02  0.60013028691E+02  0.10566000000E+00 0. -1.
         23    2    1    0    0    0 -0.49910091149E+01  0.21250162158E+02  0.17933635077E+02  0.96749427779E+02  0.92533004624E+02 0.  0.
         13    1    3    3    0    0  0.86961431211E+00 -0.31232092808E+01 -0.36592911727E+02  0.36736399088E+02  0.10566000000E+00 0.  1.
         22    1    1    0    0    0  0.49910091149E+01 -0.21250162158E+02 -0.17933635077E+02  0.28250572221E+02  0.00000000000E+00 0. -1.
</event>
<event>
 5    1  0.1751020E-003  0.9118800E+02  0.7818608E-02  0.1130116E+00
         25   -1    0    0    0    0  0.00000000000E+00  0.00000000000E+00  0.99999998245E-14  0.12500000000E+03  0.12500000000E+03 0.  0.
        -13    1    3    3    0    0 -0.30200144862E+02 -0.26004101026E+02 -0.37310896989E+02  0.54592822037E+02  0.10566000000E+00 0.  1.
         23    2    1    0    0    0 -0.56954685810E+01  0.58799964002E+01 -0.27943014531E+02  0.95882569119E+02  0.91354486917E+02 0.  0.
         13    1    3    3    0    0  0.24504676281E+02  0.31884097426E+02  0.93678824583E+01  0.41289747082E+02  0.10566000000E+00 0. -1.
         22    1    1    0    0    0  0.56954685810E+01 -0.58799964002E+01  0.27943014531E+02  0.29117430881E+02  0.00000000000E+00 0.  1.
</event>
<event>
 5    1  0.1751020E-003  0.9118800E+02  0.7818608E-02  0.1130116E+00
         25   -1    0    0    0    0  0.00000000000E+00  0.00000000000E+00  0.99999998245E-14  0.12500000000E+03  0.12500000000E+03 0.  0.
        -13    1    3    3    0    0 -0.54002800525E+02 -0.27662436084E+01 -0.17488286003E+02  0.56831381117E+02  0.10566000000E+00 0.  1.
         23    2    1    0    0    0 -0.41513306464E+02 -0.63911667137E+01 -0.28803608047E+02  0.74070151560E+02  0.53782319494E+02 0.  0.
         13    1    3    3    0    0  0.12489494061E+02 -0.36249231053E+01 -0.11315322044E+02  0.17238770444E+02  0.10566000000E+00 0. -1.
         22    1    1    0    0    0  0.41513306464E+02  0.63911667137E+01  0.28803608047E+02  0.50929848440E+02  0.00000000000E+00 0.  1.
</event>
<event>
 5    1  0.1751020E-003  0.9118800E+02  0.7818608E-02  0.1130116E+00
         25   -1    0    0    0    0  0.00000000000E+00  0.00000000000E+00  0.99999998245E-14  0.12500000000E+03  0.12500000000E+03 0.  0.
        -13    1    3    3    0    0 -0.20563111848E+02 -0.32817118572E+02  0.11962843603E+02  0.40533019026E+02  0.10566000000E+00 0. -1.
         23    2    1    0    0    0  0.76547637523E+01 -0.83378511450E+00 -0.26154543381E+02  0.97735540622E+02  0.93855661286E+02 0.  0.
         13    1    3    3    0    0  0.28217875600E+02  0.31983333458E+02 -0.38117386984E+02  0.57202521596E+02  0.10566000000E+00 0.  1.
         22    1    1    0    0    0 -0.76547637523E+01  0.83378511450E+00  0.26154543381E+02  0.27264459378E+02  0.00000000000E+00 0.  1.
</event>
<event>
 5    1  0.1751020E-003  0.9118800E+02  0.7818608E-02  0.1130116E+00
         25   -1    0    0    0    0  0.00000000000E+00  0.00000000000E+00  0.99999998245E-14  0.12500000000E+03  0.12500000000E+03 0.  0.
        -13    1    3    3    0    0  0.43675499889E+02 -0.48622650366E+01  0.14156818648E+02  0.46169444334E+02  0.10566000000E+00 0.  1.
         23    2    1    0    0    0 -0.90223471526E+01  0.17951306411E+02  0.46907802307E+01  0.10436857811E+03  0.10230906376E+03 0.  0.
         13    1    3    3    0    0 -0.52697847041E+02  0.22813571448E+02 -0.94660384173E+01  0.58199133777E+02  0.10566000000E+00 0. -1.
         22    1    1    0    0    0  0.90223471526E+01 -0.17951306411E+02 -0.46907802307E+01  0.20631421890E+02  0.00000000000E+00 0. -1.
</event>
<event>
 5    1  0.1751020E-003  0.9118800E+02  0.7818608E-02  0.1130116E+00
         25   -1    0    0    0    0  0.00000000000E+00  0.00000000000E+00  0.99999998245E-14  0.12500000000E+03  0.12500000000E+03 0.  0.
        -13    1    3    3    0    0 -0.51820440667E+02  0.14063616599E+02  0.78304067606E+01  0.54262969112E+02  0.10566000000E+00 0. -1.
         23    2    1    0    0    0 -0.18488351791E+02  0.14388109027E+02 -0.17190258056E+02  0.95942439791E+02  0.91436371033E+02 0.  0.
         13    1    3    3    0    0  0.33332088876E+02  0.32449242821E+00 -0.25020664817E+02  0.41679470679E+02  0.10566000000E+00 0.  1.
         22    1    1    0    0    0  0.18488351791E+02 -0.14388109027E+02  0.17190258056E+02  0.29057560209E+02  0.00000000000E+00 0. -1.
</event>
<event>
 5    1  0.1751020E-003  0.9118800E+02  0.7818608E-02  0.1130116E+00
         25   -1    0    0    0    0  0.00000000000E+00  0.00000000000E+00  0.99999998245E-14  0.12500000000E+03  0.12500000000E+03 0.  0.
        -13    1    3    3    0    0 -0.44139128968E+02 -0.23538883653E+02 -0.32706039151E+02  0.59766528347E+02  0.10566000000E+00 0.  1.
         23    2    1    0    0    0 -0.25425419446E+02  0.11075280506E+01 -0.13443231276E+02  0.96218077905E+02  0.91812414608E+02 0.  0.
         13    1    3    3    0    0  0.18713709522E+02  0.24646411703E+02  0.19262807875E+02  0.36451549558E+02  0.10566000000E+00 0. -1.
         22    1    1    0    0    0  0.25425419446E+02 -0.11075280506E+01  0.13443231276E+02  0.28781922095E+02  0.00000000000E+00 0.  1.
</event>
<event>
 5    1  0.1751020E-003  0.9118800E+02  0.7818608E-02  0.1130116E+00
         25   -1    0    0    0    0  0.00000000000E+00  0.00000000000E+00  0.99999998245E-14  0.12500000000E+03  0.12500000000E+03 0.  0.
        -13    1    3    3    0    0 -0.21277669675E+02 -0.20184636852E+02  0.16546942799E+02  0.33674489925E+02  0.10566000000E+00 0. -1.
         23    2    1    0    0    0  0.28594322368E+02  0.97483270017E+01  0.13474367331E+02  0.91920947323E+02  0.85762677377E+02 0.  0.
         13    1    3    3    0    0  0.49871992043E+02  0.29932963853E+02 -0.30725754683E+01  0.58246457399E+02  0.10566000000E+00 0.  1.
         22    1    1    0    0    0 -0.28594322368E+02 -0.97483270017E+01 -0.13474367331E+02  0.33079052677E+02  0.00000000000E+00 0.  1.
</event>
<event>
 5    1  0.1751020E-003  0.9118800E+02  0.7818608E-02  0.1130116E+00
         25   -1    0    0    0    0  0.00000000000E+00  0.00000000000E+00  0.99999998245E-14  0.12500000000E+03  0.12500000000E+03 0.  0.
        -13    1    3    3    0    0 -0.17856214977E+02 -0.41344302595E+02 -0.34319533381E+02  0.56621880099E+02  0.10566000000E+00 0.  1.
         23    2    1    0    0    0 -0.23243265114E+02 -0.68731811631E+01 -0.14796356782E+02  0.96602426750E+02  0.92334211902E+02 0.  0.
         13    1    3    3    0    0 -0.53870501371E+01  0.34471121432E+02  0.19523176599E+02  0.39980546651E+02  0.10566000000E+00 0. -1.
         22    1    1    0    0    0  0.23243265114E+02  0.68731811631E+01  0.14796356782E+02  0.28397573250E+02  0.00000000000E+00 0.  1.
</event>
<event>
 5    1  0.1751020E-003  0.9118800E+02  0.7818608E-02  0.1130116E+00
         25   -1    0    0    0    0  0.00000000000E+00  0.00000000000E+00  0.99999998245E-14  0.12500000000E+03  0.12500000000E+03 0.  0.
        -13    1    3    3    0    0  0.28161183732E+02  0.30756100049E+02 -0.12779828920E+02  0.43615652588E+02  0.10566000000E+00 0. -1.
         23    2    1    0    0    0  0.11035567491E+02  0.71311993399E+01  0.28180680780E+02  0.93906776895E+02  0.88609786275E+02 0.  0.
         13    1    3    3    0    0 -0.17125616241E+02 -0.23624900709E+02  0.40960509700E+02  0.50291124307E+02  0.10566000000E+00 0.  1.
         22    1    1    0    0    0 -0.11035567491E+02 -0.71311993399E+01 -0.28180680780E+02  0.31093223105E+02  0.00000000000E+00 0. -1.
</event>
<event>
 5    1  0.1751020E-003  0.9118800E+02  0.7818608E-02  0.1130116E+00
         25   -1    0    0    0    0  0.00000000000E+00  0.00000000000E+00  0.99999998245E-14  0.12500000000E+03  0.12500000000E+03 0.  0.
        -13    1    3    3    0    0 -0.30185344482E+02 -0.29668947247E+02 -0.18712180242E+02  0.46276973817E+02  0.10566000000E+00 0.  1.
         23    2    1    0    0    0 -0.51323418322E+01  0.13710727229E+02 -0.24246792424E+02  0.96676301148E+02  0.92434167313E+02 0.  0.
         13    1    3    3    0    0  0.25053002649E+02  0.43379674476E+02 -0.55346121821E+01  0.50399327331E+02  0.10566000000E+00 0. -1.
         22    1    1    0    0    0  0.51323418322E+01 -0.13710727229E+02  0.24246792424E+02  0.28323698852E+02  0.00000000000E+00 0. -1.
</event>
<event>
 5    1  0.1751020E-003  0.9118800E+02  0.7818608E-02  0.1130116E+00
         25   -1    0    0    0    0  0.00000000000E+00  0.00000000000E+00  0.99999998245E-14  0.12500000000E+03  0.12500000000E+03 0.  0.
        -13    1    3    3    0    0  0.53007015045E+02  0.24095726807E+01  0.24694398741E+02  0.58526696282E+02  0.10566000000E+00 0. -1.
         23    2    1    0    0    0  0.16586884605E+02 -0.47160466741E+01  0.23750496471E+02  0.95649498816E+02  0.91035019109E+02 0.  0.
         13    1    3    3    0    0 -0.36420130440E+02 -0.71256193548E+01 -0.94390227068E+00  0.37122802534E+02  0.10566000000E+00 0.  1.
         22    1    1    0    0    0 -0.16586884605E+02  0.47160466741E+01 -0.23750496471E+02  0.29350501184E+02  0.00000000000E+00 0. -1.
</event>
<event>
 5    1  0.1751020E-003  0.9118800E+02  0.7818608E-02  0.1130116E+00
         25   -1    0    0    0    0  0.00000000000E+00  0.00000000000E+00  0.99999998245E-14  0.12500000000E+03  0.12500000000E+03 0.  0.
        -13    1    3    3    0    0  0.45538302674E+02 -0.14108964112E+02  0.14131420283E+02  0.49724320830E+02  0.10566000000E+00 0. -1.
         23    2    1    0    0    0  0.12460185359E+02  0.18644252451E+02  0.17729011502E+02  0.96413600830E+02  0.92078228738E+02 0.  0.
         13    1    3    3    0    0 -0.33078117315E+02  0.32753216564E+02  0.35975912195E+01  0.46689280001E+02  0.10566000000E+00 0.  1.
         22    1    1    0    0    0 -0.12460185359E+02 -0.18644252451E+02 -0.17729011502E+02  0.28586399170E+02  0.00000000000E+00 0. -1.
</event>
<event>
 5    1  0.1751020E-003  0.9118800E+02  0.7818608E-02  0.1130116E+00
         25   -1    0    0    0    0  0.00000000000E+00  0.00000000000E+00  0.99999998245E-14  0.12500000000E+03  0.12500000000E+03 0.  0.
        -13    1    3    3    0    0 -0.37742476163E+02  0.17647847293E+02  0.22147752538E+02  0.47185539390E+02  0.10566000000E+00 0. -1.
         23    2    1    0    0    0 -0.20513173555E+02 -0.20734090380E+02 -0.21231139030E+01  0.95756190299E+02  0.91181399280E+02 0.  0.
         13    1    3    3    0    0  0.17229302608E+02 -0.38381937673E+02 -0.24270866441E+02  0.48570650909E+02  0.10566000000E+00 0.  1.
         22    1    1    0    0    0  0.20513173555E+02  0.20734090380E+02  0.21231139030E+01  0.29243809701E+02  0.00000000000E+00 0. -1.
</event>
<event>
 5    1  0.1751020E-003  0.9118800E+02  0.7818608E-02  0.1130116E+00
         25   -1    0    0    0    0  0.00000000000E+00  0.00000000000E+00  0.99999998245E-14  0.12500000000E+03  0.12500000000E+03 0.  0.
        -13    1    3    3    0    0 -0.51546343239E+02  0.29185315919E+02 -0.19229678258E+02  0.62278406022E+02  0.10566000000E+00 0.  1.
         23    2    1    0    0    0 -0.28570170124E+02  0.18902686448E+02 -0.81194763931E+01  0.89793579098E+02  0.82603842371E+02 0.  0.
         13    1    3    3    0    0  0.22976173115E+02 -0.10282629472E+02  0.11110201865E+02  0.27515173076E+02  0.10566000000E+00 0. -1.
         22    1    1    0    0    0  0.28570170124E+02 -0.18902686448E+02  0.81194763931E+01  0.35206420902E+02  0.00000000000E+00 0.  1.
</event>
<event>
 5    1  0.1751020E-003  0.9118800E+02  0.7818608E-02  0.1130116E+00
         25   -1    0    0    0    0  0.00000000000E+00  0.00000000000E+00  0.99999998245E-14  0.12500000000E+03  0.12500000000E+03 0.  0.
        -13    1    3    3    0    0 -0.14918161733E+02  0.29177504405E+02  0.27218473391E+02  0.42599703879E+02  0.10566000000E+00 0. -1.
         23    2    1    0    0    0  0.27288022784E+02  0.12274226397E+02  0.10455990317E+01  0.95060292279E+02  0.90222353492E+02 0.  0.
         13    1    3    3    0    0  0.42206184517E+02 -0.16903278009E+02 -0.26172874359E+02  0.52460588399E+02  0.10566000000E+00 0.  1.
         22    1    1    0    0    0 -0.27288022784E+02 -0.12274226397E+02 -0.10455990317E+01  0.29939707721E+02  0.00000000000E+00 0.  1.
</event>
<event>
 5    1  0.1751020E-003  0.9118800E+02  0.7818608E-02  0.1130116E+00
         25   -1    0    0    0    0  0.00000000000E+00  0.00000000000E+00  0.99999998245E-14  0.12500000000E+03  0.12500000000E+03 0.  0.
        -13    1    3    3    0    0  0.26526570598E+02  0.16041702525E+02 -0.70094549597E+01  0.31782680668E+02  0.10566000000E+00 0. -1.
         23    2    1    0    0    0 -0.75476158822E+00 -0.34155822919E+02  0.58358454717E+01  0.90340989675E+02  0.83428097298E+02 0.  0.
         13    1    3    3    0    0 -0.27281332186E+02 -0.50197525444E+02  0.12845300431E+02  0.58558309007E+02  0.10566000000E+00 0.  1.
         22    1    1    0    0    0  0.75476158822E+00  0.34155822919E+02 -0.58358454717E+01  0.34659010325E+02  0.00000000000E+00 0. -1.
</event>
<event>
 5    1  0.1751020E-003  0.9118800E+02  0.7818608E-02  0.1130116E+00
         25   -1    0    0    0    0  0.00000000000E+00  0.00000000000E+00  0.99999998245E-14  0.12500000000E+03  0.12500000000E+03 0.  0.
        -13    1    3    3    0    0 -0.50722736679E+01 -0.61210776641E+02 -0.10486969157E+02  0.62309508289E+02  0.10566000000E+00 0. -1.
         23    2    1    0    0    0  0.12356116218E+00 -0.29722839073E+02 -0.27355649246E+01  0.95151285699E+02  0.90348333824E+02 0.  0.
         13    1    3    3    0    0  0.51958348301E+01  0.31487937567E+02  0.77514042324E+01  0.32841777410E+02  0.10566000000E+00 0.  1.
         22    1    1    0    0    0 -0.12356116218E+00  0.29722839073E+02  0.27355649246E+01  0.29848714301E+02  0.00000000000E+00 0. -1.
</event>
<event>
 5    1  0.1751020E-003  0.9118800E+02  0.7818608E-02  0.1130116E+00
         25   -1    0    0    0    0  0.00000000000E+00  0.00000000000E+00  0.99999998245E-14  0.12500000000E+03  0.12500000000E+03 0.  0.
        -13    1    3    3    0    0 -0.49783181326E+01 -0.42101983782E+02 -0.39019342718E+02  0.57618408170E+02  0.10566000000E+00 0.  1.
         23    2    1    0    0    0 -0.57566380150E+01 -0.28487834714E+02 -0.34254245868E+01  0.95735189364E+02  0.91152604686E+02 0.  0.
         13    1    3    3    0    0 -0.77831988241E+00  0.13614149068E+02  0.35593918131E+02  0.38116781195E+02  0.10566000000E+00 0. -1.
         22    1    1    0    0    0  0.57566380150E+01  0.28487834714E+02  0.34254245868E+01  0.29264810636E+02  0.00000000000E+00 0.  1.
</event>
<event>
 5    1  0.1751020E-003  0.9118800E+02  0.7818608E-02  0.1130116E+00
         25   -1    0    0    0    0  0.00000000000E+00  0.00000000000E+00  0.99999998245E-14  0.12500000000E+03  0.12500000000E+03 0.  0.
        -13    1    3    3    0    0 -0.39176821145E+02  0.16139659922E+02 -0.43090999699E+02  0.60433081640E+02  0.10566000000E+00 0. -1.
         23    2    1    0    0    0 -0.12934167867E+02  0.17462602885E+02 -0.21326025916E+02  0.94552757443E+02  0.89516419504E+02 0.  0.
         13    1    3    3    0    0  0.26242653278E+02  0.13229429633E+01  0.21764973783E+02  0.34119675803E+02  0.10566000000E+00 0.  1.
         22    1    1    0    0    0  0.12934167867E+02 -0.17462602885E+02  0.21326025916E+02  0.30447242557E+02  0.00000000000E+00 0. -1.
</event>
<event>
 5    1  0.1751020E-003  0.9118800E+02  0.7818608E-02  0.1130116E+00
         25   -1    0    0    0    0  0.00000000000E+00  0.00000000000E+00  0.99999998245E-14  0.12500000000E+03  0.12500000000E+03 0.  0.
        -13    1    3    3    0    0 -0.29324554308E+02  0.53224565846E+02 -0.75997523115E+00  0.60773124169E+02  0.10566000000E+00 0.  1.
         23    2    1    0    0    0 -0.15422236222E+02  0.26398549952E+02  0.99788712392E+01  0.92839361311E+02  0.87090988787E+02 0.  0.
         13    1    3    3    0    0  0.13902318086E+02 -0.26826015894E+02  0.10738846470E+02  0.32066237142E+02  0.10566000000E+00 0. -1.
         22    1    1    0    0    0  0.15422236222E+02 -0.26398549952E+02 -0.99788712392E+01  0.32160638689E+02  0.00000000000E+00 0.  1.
</event>
<event>
 5    1  0.1751020E-003  0.9118800E+02  0.7818608E-02  0.1130116E+00
         25   -1    0    0    0    0  0.00000000000E+00  0.00000000000E+00  0.99999998245E-14  0.12500000000E+03  0.12500000000E+03 0.  0.
        -13    1    3    3    0    0 -0.18515741823E+02 -0.27790499579E+02 -0.85718043761E+00  0.33404947006E+02  0.10566000000E+00 0. -1.
         23    2    1    0    0    0  0.89938916591E+01  0.26684359401E+02 -0.10009817271E+02  0.95114525843E+02  0.90297460987E+02 0.  0.
         13    1    3    3    0    0  0.27509633482E+02  0.54474858980E+02 -0.91526368330E+01  0.61709578837E+02  0.10566000000E+00 0.  1.
         22    1    1    0    0    0 -0.89938916591E+01 -0.26684359401E+02  0.10009817271E+02  0.29885474157E+02  0.00000000000E+00 0. -1.
</event>
<event>
 5    1  0.1751020E-003  0.9118800E+02  0.7818608E-02  0.1130116E+00
         25   -1    0    0    0    0  0.00000000000E+00  0.00000000000E+00  0.99999998245E-14  0.12500000000E+03  0.12500000000E+03 0.  0.
        -13    1    3    3    0    0  0.23812262553E+02 -0.22055190716E+02  0.22428789852E+02  0.39452719345E+02  0.10566000000E+00 0. -1.
         23    2    1    0    0    0 -0.27821188868E+02 -0.76086984151E+01  0.98141615430E+01  0.94533155589E+02  0.89489043448E+02 0.  0.
         13    1    3    3    0    0 -0.51633451421E+02  0.14446492301E+02 -0.12614628309E+02  0.55080436244E+02  0.10566000000E+00 0.  1.
         22    1    1    0    0    0  0.27821188868E+02  0.76086984151E+01 -0.98141615430E+01  0.30466844411E+02  0.00000000000E+00 0.  1.
</event>
<event>
 5    1  0.1751020E-003  0.9118800E+02  0.7818608E-02  0.1130116E+00
         25   -1    0    0    0    0  0.00000000000E+00  0.00000000000E+00  0.99999998245E-14  0.12500000000E+03  0.12500000000E+03 0.  0.
        -13    1    3    3    0    0 -0.18259635859E+02  0.32378693783E+02  0.36678808341E+02  0.52222028476E+02  0.10566000000E+00 0. -1.
         23    2    1    0    0    0 -0.13021021078E+02  0.26135703911E+02 -0.55905019897E+01  0.95269952551E+02  0.90512364557E+02 0.  0.
         13    1    3    3    0    0  0.52386147804E+01 -0.62429898725E+01 -0.42269310330E+02  0.43047924075E+02  0.10566000000E+00 0.  1.
         22    1    1    0    0    0  0.13021021078E+02 -0.26135703911E+02  0.55905019897E+01  0.29730047449E+02  0.00000000000E+00 0. -1.
</event>
<event>
 5    1  0.1751020E-003  0.9118800E+02  0.7818608E-02  0.1130116E+00
         25   -1    0    0    0    0  0.00000000000E+00  0.00000000000E+00  0.99999998245E-14  0.12500000000E+03  0.12500000000E+03 0.  0.
        -13    1    3    3    0    0 -0.17952708738E+01 -0.26856984071E+01 -0.39017029165E+02  0.39150679462E+02  0.10566000000E+00 0.  1.
         23    2    1    0    0    0  0.17596661344E+02 -0.94654913250E+01  0.16968401437E+02  0.98786174186E+02  0.95244651012E+02 0.  0.
         13    1    3    3    0    0  0.19391932218E+02 -0.67797929179E+01  0.55985430602E+02  0.59635494724E+02  0.10566000000E+00 0. -1.
         22    1    1    0    0    0 -0.17596661344E+02  0.94654913250E+01 -0.16968401437E+02  0.26213825814E+02  0.00000000000E+00 0. -1.
</event>
<event>
 5    1  0.1751020E-003  0.9118800E+02  0.7818608E-02  0.1130116E+00
         25   -1    0    0    0    0  0.00000000000E+00  0.00000000000E+00  0.99999998245E-14  0.12500000000E+03  0.12500000000E+03 0.  0.
        -13    1    3    3    0    0  0.23138150686E+02 -0.21051789292E+02  0.54035430603E+02  0.62437094536E+02  0.10566000000E+00 0. -1.
         23    2    1    0    0    0  0.99134418347E+01 -0.97762193939E+01  0.27826042044E+02  0.93885061297E+02  0.88579147232E+02 0.  0.
         13    1    3    3    0    0 -0.13224708852E+02  0.11275569898E+02 -0.26209388559E+02  0.31447966761E+02  0.10566000000E+00 0.  1.
         22    1    1    0    0    0 -0.99134418347E+01  0.97762193939E+01 -0.27826042044E+02  0.31114938703E+02  0.00000000000E+00 0. -1.
</event>
<event>
 5    1  0.1751020E-003  0.9118800E+02  0.7818608E-02  0.1130116E+00
         25   -1    0    0    0    0  0.00000000000E+00  0.00000000000E+00  0.99999998245E-14  0.12500000000E+03  0.12500000000E+03 0.  0.
        -13    1    3    3    0    0 -0.48189566121E+02  0.75237582971E+01 -0.95394001959E+01  0.49697611028E+02  0.10566000000E+00 0.  1.
         23    2    1    0    0    0 -0.24501834888E+02  0.26858634310E+01 -0.33282822364E+02  0.83583819107E+02  0.72601341426E+02 0.  0.
         13    1    3    3    0    0  0.23687731232E+02 -0.48378948661E+01 -0.23743422168E+02  0.33886208079E+02  0.10566000000E+00 0. -1.
         22    1    1    0    0    0  0.24501834888E+02 -0.26858634310E+01  0.33282822364E+02  0.41416180893E+02  0.00000000000E+00 0. -1.
</event>
<event>
 5    1  0.1751020E-003  0.9118800E+02  0.7818608E-02  0.1130116E+00
         25   -1    0    0    0    0  0.00000000000E+00  0.00000000000E+00  0.99999998245E-14  0.12500000000E+03  0.12500000000E+03 0.  0.
        -13    1    3    3    0    0  0.69604686740E+01 -0.15457085574E+02  0.54885237969E+02  0.57443625665E+02  0.10566000000E+00 0. -1.
         23    2    1    0    0    0 -0.12058688712E+02  0.19079041487E+01  0.26803510177E+02  0.95546982676E+02  0.90894145406E+02 0.  0.
         13    1    3    3    0    0 -0.19019157386E+02  0.17364989722E+02 -0.28081727792E+02  0.38103357011E+02  0.10566000000E+00 0.  1.
         22    1    1    0    0    0  0.12058688712E+02 -0.19079041487E+01 -0.26803510177E+02  0.29453017324E+02  0.00000000000E+00 0. -1.
</event>
<event>
 5    1  0.1751020E-003  0.9118800E+02  0.7818608E-02  0.1130116E+00
         25   -1    0    0    0    0  0.00000000000E+00  0.00000000000E+00  0.99999998245E-14  0.12500000000E+03  0.12500000000E+03 0.  0.
        -13    1    3    3    0    0  0.21832577588E+02  0.77546869425E+01 -0.56698392645E+02  0.61249616376E+02  0.10566000000E+00 0.  1.
         23    2    1    0    0    0  0.31072292336E+01  0.86983341143E+01 -0.27874110686E+02  0.95635362485E+02  0.91015606470E+02 0.  0.
         13    1    3    3    0    0 -0.18725348354E+02  0.94364717178E+00  0.28824281959E+02  0.34385746109E+02  0.10566000000E+00 0. -1.
         22    1    1    0    0    0 -0.31072292336E+01 -0.86983341143E+01  0.27874110686E+02  0.29364637515E+02  0.00000000000E+00 0.  1.
</event>
<event>
 5    1  0.1751020E-003  0.9118800E+02  0.7818608E-02  0.1130116E+00
         25   -1    0    0    0    0  0.00000000000E+00  0.00000000000E+00  0.99999998245E-14  0.12500000000E+03  0.12500000000E+03 0.  0.
        -13    1    3    3    0    0 -0.24638075133E+02 -0.20855387376E+02 -0.37476421095E+01  0.32496736979E+02  0.10566000000E+00 0.  1.
         23    2    1    0    0    0  0.21573580710E+02  0.20651237039E+02  0.30359918302E+01  0.94981501998E+02  0.90113126122E+02 0.  0.
         13    1    3    3    0    0  0.46211655843E+02  0.41506624415E+02  0.67836339397E+01  0.62484765019E+02  0.10566000000E+00 0. -1.
         22    1    1    0    0    0 -0.21573580710E+02 -0.20651237039E+02 -0.30359918302E+01  0.30018498002E+02  0.00000000000E+00 0. -1.
</event>
<event>
 5    1  0.1751020E-003  0.9118800E+02  0.7818608E-02  0.1130116E+00
         25   -1    0    0    0    0  0.00000000000E+00  0.00000000000E+00  0.99999998245E-14  0.12500000000E+03  0.12500000000E+03 0.  0.
        -13    1    3    3    0    0  0.19417883586E+02 -0.69018772300E+00 -0.28197858998E+02  0.34244137866E+02  0.10566000000E+00 0.  1.
         23    2    1    0    0    0 -0.74452772005E+01 -0.89793427842E+01  0.26667618292E+02  0.95892911262E+02  0.91368636936E+02 0.  0.
         13    1    3    3    0    0 -0.26863160786E+02 -0.82891550612E+01  0.54865477290E+02  0.61648773397E+02  0.10566000000E+00 0. -1.
         22    1    1    0    0    0  0.74452772005E+01  0.89793427842E+01 -0.26667618292E+02  0.29107088738E+02  0.00000000000E+00 0. -1.
</event>
<event>
 5    1  0.1751020E-003  0.9118800E+02  0.7818608E-02  0.1130116E+00
         25   -1    0    0    0    0  0.00000000000E+00  0.00000000000E+00  0.99999998245E-14  0.12500000000E+03  0.12500000000E+03 0.  0.
        -13    1    3    3    0    0  0.37772188760E+01  0.45461484055E+00  0.51237966791E+02  0.51379124769E+02  0.10566000000E+00 0.  1.
         23    2    1    0    0    0  0.24014470506E+02  0.11826388367E+02  0.15285540653E+02  0.94174588266E+02  0.88986780291E+02 0.  0.
         13    1    3    3    0    0  0.20237251630E+02  0.11371773526E+02 -0.35952426139E+02  0.42795463498E+02  0.10566000000E+00 0. -1.
         22    1    1    0    0    0 -0.24014470506E+02 -0.11826388367E+02 -0.15285540653E+02  0.30825411734E+02  0.00000000000E+00 0. -1.
</event>
<event>
 5    1  0.1751020E-003  0.9118800E+02  0.7818608E-02  0.1130116E+00
         25   -1    0    0    0    0  0.00000000000E+00  0.00000000000E+00  0.99999998245E-14  0.12500000000E+03  0.12500000000E+03 0.  0.
        -13    1    3    3    0    0 -0.21921406764E+02  0.17656200594E+02 -0.28451875217E+02  0.40022616873E+02  0.10566000000E+00 0. -1.
         23    2    1    0    0    0  0.11191659334E+02  0.18296695987E+02  0.17950042129E+02  0.97031690521E+02  0.92913522322E+02 0.  0.
         13    1    3    3    0    0  0.33113066098E+02  0.64049539276E+00  0.46401917346E+02  0.57009073648E+02  0.10566000000E+00 0.  1.
         22    1    1    0    0    0 -0.11191659334E+02 -0.18296695987E+02 -0.17950042129E+02  0.27968309479E+02  0.00000000000E+00 0. -1.
</event>
<event>
 5    1  0.1751020E-003  0.9118800E+02  0.7818608E-02  0.1130116E+00
         25   -1    0    0    0    0  0.00000000000E+00  0.00000000000E+00  0.99999998245E-14  0.12500000000E+03  0.12500000000E+03 0.  0.
        -13    1    3    3    0    0 -0.47520616850E+02  0.23385162457E+02 -0.51428731041E+01  0.53212171134E+02  0.10566000000E+00 0. -1.
         23    2    1    0    0    0 -0.65538914692E+01  0.28389531835E+02  0.42949840222E+01  0.95548923636E+02  0.90896814626E+02 0.  0.
         13    1    3    3    0    0  0.40966725381E+02  0.50043693784E+01  0.94378571263E+01  0.42336752503E+02  0.10566000000E+00 0.  1.
         22    1    1    0    0    0  0.65538914692E+01 -0.28389531835E+02 -0.42949840222E+01  0.29451076364E+02  0.00000000000E+00 0. -1.
</event>
<event>
 5    1  0.1751020E-003  0.9118800E+02  0.7818608E-02  0.1130116E+00
         25   -1    0    0    0    0  0.00000000000E+00  0.00000000000E+00  0.99999998245E-14  0.12500000000E+03  0.12500000000E+03 0.  0.
        -13    1    3    3    0    0 -0.37402062076E+01 -0.94258843894E+01  0.58303504973E+02  0.59178934556E+02  0.10566000000E+00 0.  1.
         23    2    1    0    0    0  0.35172416277E+01 -0.17344752374E+02  0.23636137895E+02  0.95472412253E+02  0.90791536297E+02 0.  0.
         13    1    3    3    0    0  0.72574478354E+01 -0.79188679842E+01 -0.34667367078E+02  0.36293477697E+02  0.10566000000E+00 0. -1.
         22    1    1    0    0    0 -0.35172416277E+01  0.17344752374E+02 -0.23636137895E+02  0.29527587747E+02  0.00000000000E+00 0.  1.
</event>
<event>
 5    1  0.1751020E-003  0.9118800E+02  0.7818608E-02  0.1130116E+00
         25   -1    0    0    0    0  0.00000000000E+00  0.00000000000E+00  0.99999998245E-14  0.12500000000E+03  0.12500000000E+03 0.  0.
        -13    1    3    3    0    0 -0.26797064654E+02 -0.26717133596E+02  0.13821299386E+02  0.40285572882E+02  0.10566000000E+00 0. -1.
         23    2    1    0    0    0 -0.13664356688E+02  0.10231750851E+02 -0.24516349050E+02  0.95126019015E+02  0.90313369739E+02 0.  0.
         13    1    3    3    0    0  0.13132707966E+02  0.36948884447E+02 -0.38337648435E+02  0.54840446133E+02  0.10566000000E+00 0.  1.
         22    1    1    0    0    0  0.13664356688E+02 -0.10231750851E+02  0.24516349050E+02  0.29873980985E+02  0.00000000000E+00 0.  1.
</event>
<event>
 5    1  0.1751020E-003  0.9118800E+02  0.7818608E-02  0.1130116E+00
         25   -1    0    0    0    0  0.00000000000E+00  0.00000000000E+00  0.99999998245E-14  0.12500000000E+03  0.12500000000E+03 0.  0.
        -13    1    3    3    0    0 -0.61114220195E+02 -0.60346083635E+01 -0.19168957088E+00  0.61411825547E+02  0.10566000000E+00 0. -1.
         23    2    1    0    0    0 -0.28947046136E+02  0.45179764131E+01 -0.37977935391E+01  0.95457372719E+02  0.90770827802E+02 0.  0.
         13    1    3    3    0    0  0.32167174058E+02  0.10552584777E+02 -0.36061039682E+01  0.34045547172E+02  0.10566000000E+00 0.  1.
         22    1    1    0    0    0  0.28947046136E+02 -0.45179764131E+01  0.37977935391E+01  0.29542627281E+02  0.00000000000E+00 0. -1.
</event>
<event>
 5    1  0.1751020E-003  0.9118800E+02  0.7818608E-02  0.1130116E+00
         25   -1    0    0    0    0  0.00000000000E+00  0.00000000000E+00  0.99999998245E-14  0.12500000000E+03  0.12500000000E+03 0.  0.
        -13    1    3    3    0    0  0.38666843067E+02 -0.94598353990E+01 -0.13755148448E+02  0.42116843560E+02  0.10566000000E+00 0.  1.
         23    2    1    0    0    0  0.21278728456E+01  0.15483606998E+02  0.21312796693E+02  0.98570750457E+02  0.94961505960E+02 0.  0.
         13    1    3    3    0    0 -0.36538970222E+02  0.24943442397E+02  0.35067945141E+02  0.56453906897E+02  0.10566000000E+00 0. -1.
         22    1    1    0    0    0 -0.21278728456E+01 -0.15483606998E+02 -0.21312796693E+02  0.26429249543E+02  0.00000000000E+00 0. -1.
</event>
<event>
 5    1  0.1751020E-003  0.9118800E+02  0.7818608E-02  0.1130116E+00
         25   -1    0    0    0    0  0.00000000000E+00  0.00000000000E+00  0.99999998245E-14  0.12500000000E+03  0.12500000000E+03 0.  0.
        -13    1    3    3    0    0 -0.30239311438E+02  0.14691087842E+02 -0.28430203895E+02  0.44028759644E+02  0.10566000000E+00 0.  1.
         23    2    1    0    0    0  0.15373173097E+02  0.24255599448E+02 -0.63977248121E+01  0.95578928666E+02  0.90938067753E+02 0.  0.
         13    1    3    3    0    0  0.45612484535E+02  0.95645116058E+01  0.22032479083E+02  0.51550169023E+02  0.10566000000E+00 0. -1.
         22    1    1    0    0    0 -0.15373173097E+02 -0.24255599448E+02  0.63977248121E+01  0.29421071334E+02  0.00000000000E+00 0. -1.
</event>
<event>
 5    1  0.1751020E-003  0.9118800E+02  0.7818608E-02  0.1130116E+00
         25   -1    0    0    0    0  0.00000000000E+00  0.00000000000E+00  0.99999998245E-14  0.12500000000E+03  0.12500000000E+03 0.  0.
        -13    1    3    3    0    0  0.29759991499E+02 -0.18834634443E+01 -0.29724681322E+02  0.42104303489E+02  0.10566000000E+00 0.  1.
         23    2    1    0    0    0 -0.14118617437E+02 -0.24286128914E+02 -0.97960939975E+01  0.95249119785E+02  0.90483589375E+02 0.  0.
         13    1    3    3    0    0 -0.43878608936E+02 -0.22402665470E+02  0.19928587325E+02  0.53144816296E+02  0.10566000000E+00 0. -1.
         22    1    1    0    0    0  0.14118617437E+02  0.24286128914E+02  0.97960939975E+01  0.29750880215E+02  0.00000000000E+00 0. -1.
</event>
<event>
 4    1  0.1751020E-003  0.9118800E+02  0.7818608E-02  0.1130116E+00
         25   -1    0    0    0    0  0.00000000000E+00  0.00000000000E+00  0.99999998245E-14  0.12500000000E+03  0.12500000000E+03 0.  0.
        -13    1    1    0    0    0 -0.14868207385E+02 -0.13835770907E+02  0.18504829416E+02  0.27476026335E+02  0.10566000000E+00 0.  1.
         13    1    1    0    0    0  0.15354543297E+02 -0.35602413346E+02  0.10544645979E+02  0.40180773496E+02  0.10566000000E+00 0. -1.
         22    1    1    0    0    0 -0.48633591257E+00  0.49438184253E+02 -0.29049475395E+02  0.57343200168E+02  0.00000000000E+00 0.  1.
</event>
<event>
 5    1  0.1751020E-003  0.9118800E+02  0.7818608E-02  0.1130116E+00
         25   -1    0    0    0    0  0.00000000000E+00  0.00000000000E+00  0.99999998245E-14  0.12500000000E+03  0.12500000000E+03 0.  0.
        -13    1    3    3    0    0  0.38117210460E+02  0.94094444965E+01  0.56430167940E+01  0.39665024663E+02  0.10566000000E+00 0.  1.
         23    2    1    0    0    0 -0.17019207585E+02  0.13739613246E+02  0.18392441530E+02  0.96421821184E+02  0.92089387532E+02 0.  0.
         13    1    3    3    0    0 -0.55136418044E+02  0.43301687498E+01  0.12749424736E+02  0.56756796521E+02  0.10566000000E+00 0. -1.
         22    1    1    0    0    0  0.17019207585E+02 -0.13739613246E+02 -0.18392441530E+02  0.28578178816E+02  0.00000000000E+00 0. -1.
</event>
<event>
 5    1  0.1751020E-003  0.9118800E+02  0.7818608E-02  0.1130116E+00
         25   -1    0    0    0    0  0.00000000000E+00  0.00000000000E+00  0.99999998245E-14  0.12500000000E+03  0.12500000000E+03 0.  0.
        -13    1    3    3    0    0  0.29192629597E+02 -0.18140235814E+02  0.38552446735E+02  0.51648621390E+02  0.10566000000E+00 0.  1.
         23    2    1    0    0    0 -0.10105923297E+02 -0.20341891482E+02  0.17784715654E+02  0.96151805158E+02  0.91722141762E+02 0.  0.
         13    1    3    3    0    0 -0.39298552894E+02 -0.22016556680E+01 -0.20767731081E+02  0.44503183768E+02  0.10566000000E+00 0. -1.
         22    1    1    0    0    0  0.10105923297E+02  0.20341891482E+02 -0.17784715654E+02  0.28848194842E+02  0.00000000000E+00 0.  1.
</event>
<event>
 5    1  0.1751020E-003  0.9118800E+02  0.7818608E-02  0.1130116E+00
         25   -1    0    0    0    0  0.00000000000E+00  0.00000000000E+00  0.99999998245E-14  0.12500000000E+03  0.12500000000E+03 0.  0.
        -13    1    3    3    0    0 -0.45375288941E+02  0.13376394847E+01 -0.73024245916E+01  0.45978720022E+02  0.10566000000E+00 0. -1.
         23    2    1    0    0    0  0.73300341747E+01 -0.87282630824E+01 -0.20776316769E+02  0.10130258841E+03  0.98491863132E+02 0.  0.
         13    1    3    3    0    0  0.52705323116E+02 -0.10065902567E+02 -0.13473892178E+02  0.55323868391E+02  0.10566000000E+00 0.  1.
         22    1    1    0    0    0 -0.73300341747E+01  0.87282630824E+01  0.20776316769E+02  0.23697411587E+02  0.00000000000E+00 0.  1.
</event>
<event>
 5    1  0.1751020E-003  0.9118800E+02  0.7818608E-02  0.1130116E+00
         25   -1    0    0    0    0  0.00000000000E+00  0.00000000000E+00  0.99999998245E-14  0.12500000000E+03  0.12500000000E+03 0.  0.
        -13    1    3    3    0    0  0.12519650207E+02  0.15271428518E+02 -0.36862081949E+02  0.41818445929E+02  0.10566000000E+00 0.  1.
         23    2    1    0    0    0  0.25115858487E+02  0.10624718535E+02  0.13945751294E+02  0.94370357974E+02  0.89261354984E+02 0.  0.
         13    1    3    3    0    0  0.12596208280E+02 -0.46467099828E+01  0.50807833243E+02  0.52551912045E+02  0.10566000000E+00 0. -1.
         22    1    1    0    0    0 -0.25115858487E+02 -0.10624718535E+02 -0.13945751294E+02  0.30629642026E+02  0.00000000000E+00 0. -1.
</event>
<event>
 5    1  0.1751020E-003  0.9118800E+02  0.7818608E-02  0.1130116E+00
         25   -1    0    0    0    0  0.00000000000E+00  0.00000000000E+00  0.99999998245E-14  0.12500000000E+03  0.12500000000E+03 0.  0.
        -13    1    3    3    0    0  0.13807018777E+02  0.13317736782E+02  0.25319781708E+02  0.31766309044E+02  0.10566000000E+00 0. -1.
         23    2    1    0    0    0 -0.14880423695E+02 -0.13532910466E+02 -0.23261116935E+02  0.94248638468E+02  0.89090738110E+02 0.  0.
         13    1    3    3    0    0 -0.28687442472E+02 -0.26850647248E+02 -0.48580898643E+02  0.62482329424E+02  0.10566000000E+00 0.  1.
         22    1    1    0    0    0  0.14880423695E+02  0.13532910466E+02  0.23261116935E+02  0.30751361532E+02  0.00000000000E+00 0.  1.
</event>
<event>
 5    1  0.1751020E-003  0.9118800E+02  0.7818608E-02  0.1130116E+00
         25   -1    0    0    0    0  0.00000000000E+00  0.00000000000E+00  0.99999998245E-14  0.12500000000E+03  0.12500000000E+03 0.  0.
        -13    1    3    3    0    0  0.91847483619E+01 -0.14815605369E+02 -0.57623463600E+02  0.60202462459E+02  0.10566000000E+00 0. -1.
         23    2    1    0    0    0  0.76992571742E+01  0.49503138157E+01 -0.25014797639E+02  0.98363103244E+02  0.94687780684E+02 0.  0.
         13    1    3    3    0    0 -0.14854911877E+01  0.19765919185E+02  0.32608665961E+02  0.38160640784E+02  0.10566000000E+00 0.  1.
         22    1    1    0    0    0 -0.76992571742E+01 -0.49503138157E+01  0.25014797639E+02  0.26636896756E+02  0.00000000000E+00 0. -1.
</event>
<event>
 5    1  0.1751020E-003  0.9118800E+02  0.7818608E-02  0.1130116E+00
         25   -1    0    0    0    0  0.00000000000E+00  0.00000000000E+00  0.99999998245E-14  0.12500000000E+03  0.12500000000E+03 0.  0.
        -13    1    3    3    0    0 -0.48971872196E+01  0.38574657534E+02 -0.26197705263E+02  0.46886219421E+02  0.10566000000E+00 0.  1.
         23    2    1    0    0    0 -0.28014281653E+02  0.89215389301E+01  0.42836171157E+01  0.95289005250E+02  0.90538673022E+02 0.  0.
         13    1    3    3    0    0 -0.23117094434E+02 -0.29653118604E+02  0.30481322379E+02  0.48402785829E+02  0.10566000000E+00 0. -1.
         22    1    1    0    0    0  0.28014281653E+02 -0.89215389301E+01 -0.42836171157E+01  0.29710994750E+02  0.00000000000E+00 0.  1.
</event>
<event>
 5    1  0.1751020E-003  0.9118800E+02  0.7818608E-02  0.1130116E+00
         25   -1    0    0    0    0  0.00000000000E+00  0.00000000000E+00  0.99999998245E-14  0.12500000000E+03  0.12500000000E+03 0.  0.
        -13    1    3    3    0    0  0.35714761655E+02  0.49204237344E+02  0.10517410968E+02  0.61702741189E+02  0.10566000000E+00 0. -1.
         23    2    1    0    0    0  0.14433440205E+02  0.24678351987E+02 -0.16101615472E+01  0.96365442676E+02  0.92012828829E+02 0.  0.
         13    1    3    3    0    0 -0.21281321451E+02 -0.24525885357E+02 -0.12127572515E+02  0.34662701487E+02  0.10566000000E+00 0.  1.
         22    1    1    0    0    0 -0.14433440205E+02 -0.24678351987E+02  0.16101615472E+01  0.28634557324E+02  0.00000000000E+00 0. -1.
</event>
<event>
 5    1  0.1751020E-003  0.9118800E+02  0.7818608E-02  0.1130116E+00
         25   -1    0    0    0    0  0.00000000000E+00  0.00000000000E+00  0.99999998245E-14  0.12500000000E+03  0.12500000000E+03 0.  0.
        -13    1    3    3    0    0  0.43520440462E+02 -0.34444298245E+02 -0.74512264166E+01  0.55999735345E+02  0.10566000000E+00 0.  1.
         23    2    1    0    0    0  0.10699491326E+02 -0.20543668328E+02  0.14321659802E+02  0.97767090451E+02  0.93897670966E+02 0.  0.
         13    1    3    3    0    0 -0.32820949135E+02  0.13900629917E+02  0.21772886219E+02  0.41767355106E+02  0.10566000000E+00 0. -1.
         22    1    1    0    0    0 -0.10699491326E+02  0.20543668328E+02 -0.14321659802E+02  0.27232909549E+02  0.00000000000E+00 0.  1.
</event>
<event>
 5    1  0.1751020E-003  0.9118800E+02  0.7818608E-02  0.1130116E+00
         25   -1    0    0    0    0  0.00000000000E+00  0.00000000000E+00  0.99999998245E-14  0.12500000000E+03  0.12500000000E+03 0.  0.
        -13    1    3    3    0    0  0.50647471968E+01  0.15747681533E+02  0.23772291833E+02  0.28961598037E+02  0.10566000000E+00 0.  1.
         23    2    1    0    0    0 -0.24954257052E+02  0.36989709078E+02 -0.10423688593E+02  0.79178533344E+02  0.64572698069E+02 0.  0.
         13    1    3    3    0    0 -0.30019004249E+02  0.21242027545E+02 -0.34195980426E+02  0.50216935307E+02  0.10566000000E+00 0. -1.
         22    1    1    0    0    0  0.24954257052E+02 -0.36989709078E+02  0.10423688593E+02  0.45821466656E+02  0.00000000000E+00 0. -1.
</event>
<event>
 5    1  0.1751020E-003  0.9118800E+02  0.7818608E-02  0.1130116E+00
         25   -1    0    0    0    0  0.00000000000E+00  0.00000000000E+00  0.99999998245E-14  0.12500000000E+03  0.12500000000E+03 0.  0.
        -13    1    3    3    0    0 -0.25814946967E+02 -0.50812269668E+01  0.20961649433E+02  0.33639742350E+02  0.10566000000E+00 0.  1.
         23    2    1    0    0    0  0.33283477272E+01 -0.14065317869E+02 -0.29242294598E+02  0.92380636752E+02  0.86430082657E+02 0.  0.
         13    1    3    3    0    0  0.29143294694E+02 -0.89840909020E+01 -0.50203944031E+02  0.58740894403E+02  0.10566000000E+00 0. -1.
         22    1    1    0    0    0 -0.33283477272E+01  0.14065317869E+02  0.29242294598E+02  0.32619363248E+02  0.00000000000E+00 0. -1.
</event>
<event>
 5    1  0.1751020E-003  0.9118800E+02  0.7818608E-02  0.1130116E+00
         25   -1    0    0    0    0  0.00000000000E+00  0.00000000000E+00  0.99999998245E-14  0.12500000000E+03  0.12500000000E+03 0.  0.
        -13    1    3    3    0    0 -0.14410918808E+02 -0.10951613324E+02  0.44184072128E+02  0.47747835648E+02  0.10566000000E+00 0. -1.
         23    2    1    0    0    0  0.15925832213E+02  0.16136005582E+02  0.16908954775E+02  0.96717221505E+02  0.92489487923E+02 0.  0.
         13    1    3    3    0    0  0.30336751021E+02  0.27087618907E+02 -0.27275117352E+02  0.48969385856E+02  0.10566000000E+00 0.  1.
         22    1    1    0    0    0 -0.15925832213E+02 -0.16136005582E+02 -0.16908954775E+02  0.28282778495E+02  0.00000000000E+00 0. -1.
</event>
<event>
 5    1  0.1751020E-003  0.9118800E+02  0.7818608E-02  0.1130116E+00
         25   -1    0    0    0    0  0.00000000000E+00  0.00000000000E+00  0.99999998245E-14  0.12500000000E+03  0.12500000000E+03 0.  0.
        -13    1    3    3    0    0  0.45737099643E+02 -0.21784206932E+02  0.26020670866E+02  0.56951913329E+02  0.10566000000E+00 0.  1.
         23    2    1    0    0    0  0.17527732565E+02  0.34961991427E+01  0.24252733144E+02  0.94872937709E+02  0.89962405633E+02 0.  0.
         13    1    3    3    0    0 -0.28209367078E+02  0.25280406075E+02 -0.17679377225E+01  0.37921024381E+02  0.10566000000E+00 0. -1.
         22    1    1    0    0    0 -0.17527732565E+02 -0.34961991427E+01 -0.24252733144E+02  0.30127062291E+02  0.00000000000E+00 0.  1.
</event>
<event>
 5    1  0.1751020E-003  0.9118800E+02  0.7818608E-02  0.1130116E+00
         25   -1    0    0    0    0  0.00000000000E+00  0.00000000000E+00  0.99999998245E-14  0.12500000000E+03  0.12500000000E+03 0.  0.
        -13    1    3    3    0    0  0.18366243336E+02 -0.39224117617E+02  0.31154217497E+02  0.53352101449E+02  0.10566000000E+00 0. -1.
         23    2    1    0    0    0  0.27261585128E+02 -0.38408276712E+01  0.90032516893E+01  0.96034425228E+02  0.91562035293E+02 0.  0.
         13    1    3    3    0    0  0.88953417916E+01  0.35383289946E+02 -0.22150965807E+02  0.42682323780E+02  0.10566000000E+00 0.  1.
         22    1    1    0    0    0 -0.27261585128E+02  0.38408276712E+01 -0.90032516893E+01  0.28965574772E+02  0.00000000000E+00 0. -1.
</event>
<event>
 5    1  0.1751020E-003  0.9118800E+02  0.7818608E-02  0.1130116E+00
         25   -1    0    0    0    0  0.00000000000E+00  0.00000000000E+00  0.99999998245E-14  0.12500000000E+03  0.12500000000E+03 0.  0.
        -13    1    3    3    0    0 -0.30732203044E+02 -0.36106115992E+02 -0.35035142610E+02  0.58954154202E+02  0.10566000000E+00 0. -1.
         23    2    1    0    0    0 -0.20347641750E+02 -0.44368844262E+01 -0.21903155283E+02  0.94776487968E+02  0.89828291713E+02 0.  0.
         13    1    3    3    0    0  0.10384561294E+02  0.31669231566E+02  0.13131987327E+02  0.35822333766E+02  0.10566000000E+00 0.  1.
         22    1    1    0    0    0  0.20347641750E+02  0.44368844262E+01  0.21903155283E+02  0.30223512032E+02  0.00000000000E+00 0. -1.
</event>
<event>
 5    1  0.1751020E-003  0.9118800E+02  0.7818608E-02  0.1130116E+00
         25   -1    0    0    0    0  0.00000000000E+00  0.00000000000E+00  0.99999998245E-14  0.12500000000E+03  0.12500000000E+03 0.  0.
        -13    1    3    3    0    0  0.12462309468E+02  0.32988133025E+02 -0.19680902171E+02  0.40384095286E+02  0.10566000000E+00 0. -1.
         23    2    1    0    0    0 -0.87016123488E+01  0.14745117703E+02 -0.44226121019E+02  0.77575466961E+02  0.61391096588E+02 0.  0.
         13    1    3    3    0    0 -0.21163921817E+02 -0.18243015322E+02 -0.24545218849E+02  0.37191371675E+02  0.10566000000E+00 0.  1.
         22    1    1    0    0    0  0.87016123488E+01 -0.14745117703E+02  0.44226121019E+02  0.47424533039E+02  0.00000000000E+00 0. -1.
</event>
<event>
 5    1  0.1751020E-003  0.9118800E+02  0.7818608E-02  0.1130116E+00
         25   -1    0    0    0    0  0.00000000000E+00  0.00000000000E+00  0.99999998245E-14  0.12500000000E+03  0.12500000000E+03 0.  0.
        -13    1    3    3    0    0  0.10017969147E+02  0.30852856035E+02  0.17306283275E+02  0.36766520588E+02  0.10566000000E+00 0.  1.
         23    2    1    0    0    0  0.11531214747E+02 -0.68222256325E+01 -0.26947654537E+02  0.94905353280E+02  0.90007434804E+02 0.  0.
         13    1    3    3    0    0  0.15132456004E+01 -0.37675081667E+02 -0.44253937812E+02  0.58138832692E+02  0.10566000000E+00 0. -1.
         22    1    1    0    0    0 -0.11531214747E+02  0.68222256325E+01  0.26947654537E+02  0.30094646720E+02  0.00000000000E+00 0. -1.
</event>
<event>
 5    1  0.1751020E-003  0.9118800E+02  0.7818608E-02  0.1130116E+00
         25   -1    0    0    0    0  0.00000000000E+00  0.00000000000E+00  0.99999998245E-14  0.12500000000E+03  0.12500000000E+03 0.  0.
        -13    1    3    3    0    0 -0.38265535543E+02 -0.44276020559E+01  0.22810875781E+02  0.44768315674E+02  0.10566000000E+00 0.  1.
         23    2    1    0    0    0  0.16256876621E-01 -0.25416511035E+02 -0.81707367648E+01  0.98302430134E+02  0.94607650502E+02 0.  0.
         13    1    3    3    0    0  0.38281792420E+02 -0.20988908979E+02 -0.30981612546E+02  0.53534114460E+02  0.10566000000E+00 0. -1.
         22    1    1    0    0    0 -0.16256876621E-01  0.25416511035E+02  0.81707367648E+01  0.26697569866E+02  0.00000000000E+00 0. -1.
</event>
<event>
 5    1  0.1751020E-003  0.9118800E+02  0.7818608E-02  0.1130116E+00
         25   -1    0    0    0    0  0.00000000000E+00  0.00000000000E+00  0.99999998245E-14  0.12500000000E+03  0.12500000000E+03 0.  0.
        -13    1    3    3    0    0 -0.25388128803E+02 -0.16396849088E+02 -0.15684559116E+02  0.34050408262E+02  0.10566000000E+00 0. -1.
         23    2    1    0    0    0  0.18440515493E+02  0.23194608757E+02  0.75474113681E+00  0.95358607974E+02  0.90634717375E+02 0.  0.
         13    1    3    3    0    0  0.43828644296E+02  0.39591457845E+02  0.16439300253E+02  0.61308199712E+02  0.10566000000E+00 0.  1.
         22    1    1    0    0    0 -0.18440515493E+02 -0.23194608757E+02 -0.75474113681E+00  0.29641392026E+02  0.00000000000E+00 0.  1.
</event>
<event>
 5    1  0.1751020E-003  0.9118800E+02  0.7818608E-02  0.1130116E+00
         25   -1    0    0    0    0  0.00000000000E+00  0.00000000000E+00  0.99999998245E-14  0.12500000000E+03  0.12500000000E+03 0.  0.
        -13    1    3    3    0    0 -0.11624214287E+02 -0.53069809173E+02 -0.27864664700E+02  0.61057167527E+02  0.10566000000E+00 0. -1.
         23    2    1    0    0    0 -0.36942451285E+01 -0.28183548330E+02 -0.42684099013E+01  0.96256667441E+02  0.91864938144E+02 0.  0.
         13    1    3    3    0    0  0.79299691582E+01  0.24886260844E+02  0.23596254799E+02  0.35199499914E+02  0.10566000000E+00 0.  1.
         22    1    1    0    0    0  0.36942451285E+01  0.28183548330E+02  0.42684099013E+01  0.28743332559E+02  0.00000000000E+00 0. -1.
</event>
<event>
 5    1  0.1751020E-003  0.9118800E+02  0.7818608E-02  0.1130116E+00
         25   -1    0    0    0    0  0.00000000000E+00  0.00000000000E+00  0.99999998245E-14  0.12500000000E+03  0.12500000000E+03 0.  0.
        -13    1    3    3    0    0 -0.36312172498E+02  0.37138444052E+01 -0.22327019687E+01  0.36569969017E+02  0.10566000000E+00 0.  1.
         23    2    1    0    0    0  0.21901652843E+02  0.97273759966E+01 -0.15343537220E+02  0.96544273415E+02  0.92255451621E+02 0.  0.
         13    1    3    3    0    0  0.58213825341E+02  0.60135315914E+01 -0.13110835252E+02  0.59974304398E+02  0.10566000000E+00 0. -1.
         22    1    1    0    0    0 -0.21901652843E+02 -0.97273759966E+01  0.15343537220E+02  0.28455726585E+02  0.00000000000E+00 0. -1.
</event>
<event>
 5    1  0.1751020E-003  0.9118800E+02  0.7818608E-02  0.1130116E+00
         25   -1    0    0    0    0  0.00000000000E+00  0.00000000000E+00  0.99999998245E-14  0.12500000000E+03  0.12500000000E+03 0.  0.
        -13    1    3    3    0    0  0.56064821959E+02 -0.19987771686E+02  0.80550429626E+01  0.60063883985E+02  0.10566000000E+00 0. -1.
         23    2    1    0    0    0  0.34805634063E+02 -0.24210645553E+01 -0.34385396776E+01  0.89941231180E+02  0.82826975044E+02 0.  0.
         13    1    3    3    0    0 -0.21259187896E+02  0.17566707131E+02 -0.11493582640E+02  0.29877347194E+02  0.10566000000E+00 0.  1.
         22    1    1    0    0    0 -0.34805634063E+02  0.24210645553E+01  0.34385396776E+01  0.35058768820E+02  0.00000000000E+00 0. -1.
</event>
<event>
 5    1  0.1751020E-003  0.9118800E+02  0.7818608E-02  0.1130116E+00
         25   -1    0    0    0    0  0.00000000000E+00  0.00000000000E+00  0.99999998245E-14  0.12500000000E+03  0.12500000000E+03 0.  0.
        -13    1    3    3    0    0  0.10087132920E+02  0.58261666637E+01  0.52616519914E+02  0.53890665244E+02  0.10566000000E+00 0.  1.
         23    2    1    0    0    0  0.15151451133E+02 -0.17321139084E+02  0.18274872005E+02  0.95613620886E+02  0.90985741858E+02 0.  0.
         13    1    3    3    0    0  0.50643182135E+01 -0.23147305748E+02 -0.34341647909E+02  0.41722955642E+02  0.10566000000E+00 0. -1.
         22    1    1    0    0    0 -0.15151451133E+02  0.17321139084E+02 -0.18274872005E+02  0.29386379114E+02  0.00000000000E+00 0.  1.
</event>
<event>
 5    1  0.1751020E-003  0.9118800E+02  0.7818608E-02  0.1130116E+00
         25   -1    0    0    0    0  0.00000000000E+00  0.00000000000E+00  0.99999998245E-14  0.12500000000E+03  0.12500000000E+03 0.  0.
        -13    1    3    3    0    0  0.27588978740E+02  0.10541270756E+02 -0.49923130805E+02  0.58005174687E+02  0.10566000000E+00 0.  1.
         23    2    1    0    0    0  0.23695821087E+02 -0.60782897631E+01 -0.16628526101E+02  0.95420523606E+02  0.90720068902E+02 0.  0.
         13    1    3    3    0    0 -0.38931576532E+01 -0.16619560519E+02  0.33294604703E+02  0.37415348919E+02  0.10566000000E+00 0. -1.
         22    1    1    0    0    0 -0.23695821087E+02  0.60782897631E+01  0.16628526101E+02  0.29579476394E+02  0.00000000000E+00 0.  1.
</event>
<event>
 5    1  0.1751020E-003  0.9118800E+02  0.7818608E-02  0.1130116E+00
         25   -1    0    0    0    0  0.00000000000E+00  0.00000000000E+00  0.99999998245E-14  0.12500000000E+03  0.12500000000E+03 0.  0.
        -13    1    3    3    0    0 -0.30061275478E+02  0.15287222728E+02  0.18481194800E+02  0.38457056405E+02  0.10566000000E+00 0. -1.
         23    2    1    0    0    0  0.12284262020E+02 -0.23572153704E+02  0.15444399192E+01  0.98374170092E+02  0.94702389215E+02 0.  0.
         13    1    3    3    0    0  0.42345537498E+02 -0.38859376432E+02 -0.16936754880E+02  0.59917113687E+02  0.10566000000E+00 0.  1.
         22    1    1    0    0    0 -0.12284262020E+02  0.23572153704E+02 -0.15444399192E+01  0.26625829908E+02  0.00000000000E+00 0.  1.
</event>
<event>
 5    1  0.1751020E-003  0.9118800E+02  0.7818608E-02  0.1130116E+00
         25   -1    0    0    0    0  0.00000000000E+00  0.00000000000E+00  0.99999998245E-14  0.12500000000E+03  0.12500000000E+03 0.  0.
        -13    1    3    3    0    0 -0.43370609520E+02 -0.46879038540E+01 -0.43698063565E+02  0.61745592038E+02  0.10566000000E+00 0.  1.
         23    2    1    0    0    0 -0.33323003245E+02  0.24432006248E+01 -0.31984948878E+02  0.78746040933E+02  0.63729979079E+02 0.  0.
         13    1    3    3    0    0  0.10047606275E+02  0.71311044788E+01  0.11713114687E+02  0.17000448896E+02  0.10566000000E+00 0. -1.
         22    1    1    0    0    0  0.33323003245E+02 -0.24432006248E+01  0.31984948878E+02  0.46253959067E+02  0.00000000000E+00 0.  1.
</event>
<event>
 5    1  0.1751020E-003  0.9118800E+02  0.7818608E-02  0.1130116E+00
         25   -1    0    0    0    0  0.00000000000E+00  0.00000000000E+00  0.99999998245E-14  0.12500000000E+03  0.12500000000E+03 0.  0.
        -13    1    3    3    0    0  0.25288765110E+02  0.38189426802E+02  0.13794155299E+02  0.47835591820E+02  0.10566000000E+00 0.  1.
         23    2    1    0    0    0  0.26879104307E+02 -0.90608687644E+01  0.83861768211E+01  0.95421062345E+02  0.90720811209E+02 0.  0.
         13    1    3    3    0    0  0.15903391965E+01 -0.47250295567E+02 -0.54079784780E+01  0.47585470526E+02  0.10566000000E+00 0. -1.
         22    1    1    0    0    0 -0.26879104307E+02  0.90608687644E+01 -0.83861768211E+01  0.29578937655E+02  0.00000000000E+00 0.  1.
</event>
<event>
 5    1  0.1751020E-003  0.9118800E+02  0.7818608E-02  0.1130116E+00
         25   -1    0    0    0    0  0.00000000000E+00  0.00000000000E+00  0.99999998245E-14  0.12500000000E+03  0.12500000000E+03 0.  0.
        -13    1    3    3    0    0 -0.15635056224E+01  0.34831473143E+02 -0.46926511484E+01  0.35181077442E+02  0.10566000000E+00 0. -1.
         23    2    1    0    0    0 -0.18837347155E+02 -0.22194344906E+02 -0.78500619463E+01  0.94849410185E+02  0.89929708919E+02 0.  0.
         13    1    3    3    0    0 -0.17273841532E+02 -0.57025818049E+02 -0.31574107979E+01  0.59668332743E+02  0.10566000000E+00 0.  1.
         22    1    1    0    0    0  0.18837347155E+02  0.22194344906E+02  0.78500619463E+01  0.30150589815E+02  0.00000000000E+00 0.  1.
</event>
<event>
 5    1  0.1751020E-003  0.9118800E+02  0.7818608E-02  0.1130116E+00
         25   -1    0    0    0    0  0.00000000000E+00  0.00000000000E+00  0.99999998245E-14  0.12500000000E+03  0.12500000000E+03 0.  0.
        -13    1    3    3    0    0 -0.22974600498E+02  0.18020042146E+02  0.42558928811E+02  0.51612283156E+02  0.10566000000E+00 0. -1.
         23    2    1    0    0    0  0.71043764488E+01  0.25297939445E+02  0.90915199369E+01  0.97195078859E+02  0.93133075299E+02 0.  0.
         13    1    3    3    0    0  0.30078976947E+02  0.72778972995E+01 -0.33467408875E+02  0.45582795703E+02  0.10566000000E+00 0.  1.
         22    1    1    0    0    0 -0.71043764488E+01 -0.25297939445E+02 -0.90915199369E+01  0.27804921141E+02  0.00000000000E+00 0. -1.
</event>
<event>
 5    1  0.1751020E-003  0.9118800E+02  0.7818608E-02  0.1130116E+00
         25   -1    0    0    0    0  0.00000000000E+00  0.00000000000E+00  0.99999998245E-14  0.12500000000E+03  0.12500000000E+03 0.  0.
        -13    1    3    3    0    0  0.41331186467E+00  0.21450450672E+01  0.39353627738E+02  0.39414353036E+02  0.10566000000E+00 0.  1.
         23    2    1    0    0    0 -0.19670695667E+02  0.19938877025E+02 -0.97263616648E+01  0.95350426710E+02  0.90623433380E+02 0.  0.
         13    1    3    3    0    0 -0.20084007532E+02  0.17793831957E+02 -0.49079989403E+02  0.55936073674E+02  0.10566000000E+00 0. -1.
         22    1    1    0    0    0  0.19670695667E+02 -0.19938877025E+02  0.97263616648E+01  0.29649573290E+02  0.00000000000E+00 0. -1.
</event>
<event>
 5    1  0.1751020E-003  0.9118800E+02  0.7818608E-02  0.1130116E+00
         25   -1    0    0    0    0  0.00000000000E+00  0.00000000000E+00  0.99999998245E-14  0.12500000000E+03  0.12500000000E+03 0.  0.
        -13    1    3    3    0    0 -0.46115925541E+02  0.31850193400E+01  0.29374079328E+01  0.46319137148E+02  0.10566000000E+00 0. -1.
         23    2    1    0    0    0  0.63809911376E-01  0.19460212369E+02  0.18952579339E+02  0.97835607852E+02  0.93988839566E+02 0.  0.
         13    1    3    3    0    0  0.46179735453E+02  0.16275193029E+02  0.16015171406E+02  0.51516470704E+02  0.10566000000E+00 0.  1.
         22    1    1    0    0    0 -0.63809911376E-01 -0.19460212369E+02 -0.18952579339E+02  0.27164392148E+02  0.00000000000E+00 0.  1.
</event>
<event>
 5    1  0.1751020E-003  0.9118800E+02  0.7818608E-02  0.1130116E+00
         25   -1    0    0    0    0  0.00000000000E+00  0.00000000000E+00  0.99999998245E-14  0.12500000000E+03  0.12500000000E+03 0.  0.
        -13    1    3    3    0    0  0.15423523144E+02  0.40863317118E+02  0.15481032307E+02  0.46339715983E+02  0.10566000000E+00 0. -1.
         23    2    1    0    0    0 -0.14475067046E+02  0.23895341371E+01  0.25025497080E+02  0.95991157494E+02  0.91502947349E+02 0.  0.
         13    1    3    3    0    0 -0.29898590191E+02 -0.38473782981E+02  0.95444647733E+01  0.49651441511E+02  0.10566000000E+00 0.  1.
         22    1    1    0    0    0  0.14475067046E+02 -0.23895341371E+01 -0.25025497080E+02  0.29008842506E+02  0.00000000000E+00 0. -1.
</event>
<event>
 5    1  0.1751020E-003  0.9118800E+02  0.7818608E-02  0.1130116E+00
         25   -1    0    0    0    0  0.00000000000E+00  0.00000000000E+00  0.99999998245E-14  0.12500000000E+03  0.12500000000E+03 0.  0.
        -13    1    3    3    0    0  0.32289823552E+02  0.28595625871E+02  0.12637715148E+02  0.44945139139E+02  0.10566000000E+00 0.  1.
         23    2    1    0    0    0 -0.10357385389E+02  0.22231247698E+02 -0.15083950919E+02  0.96207129673E+02  0.91797507691E+02 0.  0.
         13    1    3    3    0    0 -0.42647208941E+02 -0.63643781734E+01 -0.27721666067E+02  0.51261990535E+02  0.10566000000E+00 0. -1.
         22    1    1    0    0    0  0.10357385389E+02 -0.22231247698E+02  0.15083950919E+02  0.28792870327E+02  0.00000000000E+00 0.  1.
</event>
<event>
 5    1  0.1751020E-003  0.9118800E+02  0.7818608E-02  0.1130116E+00
         25   -1    0    0    0    0  0.00000000000E+00  0.00000000000E+00  0.99999998245E-14  0.12500000000E+03  0.12500000000E+03 0.  0.
        -13    1    3    3    0    0  0.33841843442E+02 -0.54695810518E+01  0.37695244524E+02  0.50952225743E+02  0.10566000000E+00 0.  1.
         23    2    1    0    0    0  0.13919728532E+02 -0.27281154171E+02  0.69400685196E+01  0.93596421122E+02  0.88170886808E+02 0.  0.
         13    1    3    3    0    0 -0.19922114910E+02 -0.21811573119E+02 -0.30755176005E+02  0.42644195379E+02  0.10566000000E+00 0. -1.
         22    1    1    0    0    0 -0.13919728532E+02  0.27281154171E+02 -0.69400685196E+01  0.31403578878E+02  0.00000000000E+00 0.  1.
</event>
<event>
 5    1  0.1751020E-003  0.9118800E+02  0.7818608E-02  0.1130116E+00
         25   -1    0    0    0    0  0.00000000000E+00  0.00000000000E+00  0.99999998245E-14  0.12500000000E+03  0.12500000000E+03 0.  0.
        -13    1    3    3    0    0  0.23590456918E+02 -0.41286823046E+01  0.54317334300E+02  0.59362779961E+02  0.10566000000E+00 0.  1.
         23    2    1    0    0    0  0.99043095180E+00  0.67143169266E+01  0.29838796059E+02  0.94399072636E+02  0.89301557428E+02 0.  0.
         13    1    3    3    0    0 -0.22600025966E+02  0.10842999231E+02 -0.24478538240E+02  0.35036292675E+02  0.10566000000E+00 0. -1.
         22    1    1    0    0    0 -0.99043095180E+00 -0.67143169266E+01 -0.29838796059E+02  0.30600927364E+02  0.00000000000E+00 0.  1.
</event>
<event>
 5    1  0.1751020E-003  0.9118800E+02  0.7818608E-02  0.1130116E+00
         25   -1    0    0    0    0  0.00000000000E+00  0.00000000000E+00  0.99999998245E-14  0.12500000000E+03  0.12500000000E+03 0.  0.
        -13    1    3    3    0    0  0.20963903257E+02 -0.23960459946E+02  0.83184237574E+01  0.32905869058E+02  0.10566000000E+00 0. -1.
         23    2    1    0    0    0 -0.18150427307E+02  0.12424716684E+02  0.27606319949E+02  0.89702400971E+02  0.82465751938E+02 0.  0.
         13    1    3    3    0    0 -0.39114330564E+02  0.36385176630E+02  0.19287896191E+02  0.56796531913E+02  0.10566000000E+00 0.  1.
         22    1    1    0    0    0  0.18150427307E+02 -0.12424716684E+02 -0.27606319949E+02  0.35297599029E+02  0.00000000000E+00 0.  1.
</event>
<event>
 5    1  0.1751020E-003  0.9118800E+02  0.7818608E-02  0.1130116E+00
         25   -1    0    0    0    0  0.00000000000E+00  0.00000000000E+00  0.99999998245E-14  0.12500000000E+03  0.12500000000E+03 0.  0.
        -13    1    3    3    0    0 -0.19564861900E+02 -0.11807542950E+02 -0.21672543065E+02  0.31494637299E+02  0.10566000000E+00 0.  1.
         23    2    1    0    0    0  0.16705516378E+02 -0.17519537419E+00  0.26969175843E+02  0.93275539145E+02  0.87714792289E+02 0.  0.
         13    1    3    3    0    0  0.36270378278E+02  0.11632347575E+02  0.48641718908E+02  0.61780901846E+02  0.10566000000E+00 0. -1.
         22    1    1    0    0    0 -0.16705516378E+02  0.17519537419E+00 -0.26969175843E+02  0.31724460855E+02  0.00000000000E+00 0. -1.
</event>
<event>
 5    1  0.1751020E-003  0.9118800E+02  0.7818608E-02  0.1130116E+00
         25   -1    0    0    0    0  0.00000000000E+00  0.00000000000E+00  0.99999998245E-14  0.12500000000E+03  0.12500000000E+03 0.  0.
        -13    1    3    3    0    0  0.18413086170E+01 -0.41762204562E+02  0.46811417659E+01  0.42064193794E+02  0.10566000000E+00 0.  1.
         23    2    1    0    0    0 -0.11484350555E+02 -0.15737404943E+01 -0.27441432937E+02  0.95210753476E+02  0.90430572093E+02 0.  0.
         13    1    3    3    0    0 -0.13325659172E+02  0.40188464067E+02 -0.32122574703E+02  0.53146559682E+02  0.10566000000E+00 0. -1.
         22    1    1    0    0    0  0.11484350555E+02  0.15737404943E+01  0.27441432937E+02  0.29789246524E+02  0.00000000000E+00 0. -1.
</event>
<event>
 5    1  0.1751020E-003  0.9118800E+02  0.7818608E-02  0.1130116E+00
         25   -1    0    0    0    0  0.00000000000E+00  0.00000000000E+00  0.99999998245E-14  0.12500000000E+03  0.12500000000E+03 0.  0.
        -13    1    3    3    0    0  0.33518394611E+02 -0.36246904789E+02 -0.78270367621E+01  0.49985943551E+02  0.10566000000E+00 0.  1.
         23    2    1    0    0    0  0.23653272933E+02  0.10679135623E+02 -0.76697389298E+01  0.97938105141E+02  0.94125056629E+02 0.  0.
         13    1    3    3    0    0 -0.98651216787E+01  0.46926040413E+02  0.15729783224E+00  0.47952161591E+02  0.10566000000E+00 0. -1.
         22    1    1    0    0    0 -0.23653272933E+02 -0.10679135623E+02  0.76697389298E+01  0.27061894859E+02  0.00000000000E+00 0. -1.
</event>
<event>
 5    1  0.1751020E-003  0.9118800E+02  0.7818608E-02  0.1130116E+00
         25   -1    0    0    0    0  0.00000000000E+00  0.00000000000E+00  0.99999998245E-14  0.12500000000E+03  0.12500000000E+03 0.  0.
        -13    1    3    3    0    0  0.57873907941E+02 -0.40691134087E+01 -0.19254303209E+02  0.61128440683E+02  0.10566000000E+00 0.  1.
         23    2    1    0    0    0  0.25881738895E+02 -0.10965115538E+02 -0.74326619300E+01  0.95925223468E+02  0.91412832070E+02 0.  0.
         13    1    3    3    0    0 -0.31992169046E+02 -0.68960021295E+01  0.11821641279E+02  0.34796782785E+02  0.10566000000E+00 0. -1.
         22    1    1    0    0    0 -0.25881738895E+02  0.10965115538E+02  0.74326619300E+01  0.29074776532E+02  0.00000000000E+00 0.  1.
</event>
<event>
 5    1  0.1751020E-003  0.9118800E+02  0.7818608E-02  0.1130116E+00
         25   -1    0    0    0    0  0.00000000000E+00  0.00000000000E+00  0.99999998245E-14  0.12500000000E+03  0.12500000000E+03 0.  0.
        -13    1    3    3    0    0  0.41183657853E+01  0.56681166171E+02 -0.21373588441E+02  0.60717023825E+02  0.10566000000E+00 0.  1.
         23    2    1    0    0    0 -0.82395717160E+01  0.24619632544E+02 -0.12391740429E+02  0.96232447453E+02  0.91831976257E+02 0.  0.
         13    1    3    3    0    0 -0.12357937501E+02 -0.32061533626E+02  0.89818480123E+01  0.35515423629E+02  0.10566000000E+00 0. -1.
         22    1    1    0    0    0  0.82395717160E+01 -0.24619632544E+02  0.12391740429E+02  0.28767552547E+02  0.00000000000E+00 0.  1.
</event>
<event>
 5    1  0.1751020E-003  0.9118800E+02  0.7818608E-02  0.1130116E+00
         25   -1    0    0    0    0  0.00000000000E+00  0.00000000000E+00  0.99999998245E-14  0.12500000000E+03  0.12500000000E+03 0.  0.
        -13    1    3    3    0    0  0.63680276012E+01 -0.14062037363E+02 -0.54297685674E+02  0.56449468589E+02  0.10566000000E+00 0.  1.
         23    2    1    0    0    0 -0.93580072951E+01 -0.20759361476E+02 -0.20336175205E+02  0.94469958870E+02  0.89400725486E+02 0.  0.
         13    1    3    3    0    0 -0.15726034896E+02 -0.66973241133E+01  0.33961510469E+02  0.38020490281E+02  0.10566000000E+00 0. -1.
         22    1    1    0    0    0  0.93580072951E+01  0.20759361476E+02  0.20336175205E+02  0.30530041130E+02  0.00000000000E+00 0. -1.
</event>
<event>
 5    1  0.1751020E-003  0.9118800E+02  0.7818608E-02  0.1130116E+00
         25   -1    0    0    0    0  0.00000000000E+00  0.00000000000E+00  0.99999998245E-14  0.12500000000E+03  0.12500000000E+03 0.  0.
        -13    1    3    3    0    0 -0.15605222097E+02  0.31309576997E+02  0.13694288698E+02  0.37568035288E+02  0.10566000000E+00 0. -1.
         23    2    1    0    0    0  0.28790506375E+02 -0.44507261188E+01  0.17352056289E+01  0.95815874882E+02  0.91263183818E+02 0.  0.
         13    1    3    3    0    0  0.44395728472E+02 -0.35760303116E+02 -0.11959083069E+02  0.58247839594E+02  0.10566000000E+00 0.  1.
         22    1    1    0    0    0 -0.28790506375E+02  0.44507261188E+01 -0.17352056289E+01  0.29184125118E+02  0.00000000000E+00 0.  1.
</event>
<event>
 5    1  0.1751020E-003  0.9118800E+02  0.7818608E-02  0.1130116E+00
         25   -1    0    0    0    0  0.00000000000E+00  0.00000000000E+00  0.99999998245E-14  0.12500000000E+03  0.12500000000E+03 0.  0.
        -13    1    3    3    0    0 -0.47334159143E+02  0.19116215813E+02  0.28498295321E+02  0.58464658803E+02  0.10566000000E+00 0.  1.
         23    2    1    0    0    0 -0.12150061363E+02  0.41512543692E+01  0.25045893152E+02  0.96854775401E+02  0.92675206232E+02 0.  0.
         13    1    3    3    0    0  0.35184097780E+02 -0.14964961444E+02 -0.34524021684E+01  0.38390116597E+02  0.10566000000E+00 0. -1.
         22    1    1    0    0    0  0.12150061363E+02 -0.41512543692E+01 -0.25045893152E+02  0.28145224599E+02  0.00000000000E+00 0.  1.
</event>
<event>
 5    1  0.1751020E-003  0.9118800E+02  0.7818608E-02  0.1130116E+00
         25   -1    0    0    0    0  0.00000000000E+00  0.00000000000E+00  0.99999998245E-14  0.12500000000E+03  0.12500000000E+03 0.  0.
        -13    1    3    3    0    0 -0.28726839363E+02 -0.22826878409E+02 -0.30109126129E+02  0.47464389999E+02  0.10566000000E+00 0.  1.
         23    2    1    0    0    0  0.12959953489E+02  0.10073966498E+01 -0.26334443153E+02  0.95632021884E+02  0.91011018404E+02 0.  0.
         13    1    3    3    0    0  0.41686792851E+02  0.23834275059E+02  0.37746829761E+01  0.48167631885E+02  0.10566000000E+00 0. -1.
         22    1    1    0    0    0 -0.12959953489E+02 -0.10073966498E+01  0.26334443153E+02  0.29367978116E+02  0.00000000000E+00 0. -1.
</event>
<event>
 5    1  0.1751020E-003  0.9118800E+02  0.7818608E-02  0.1130116E+00
         25   -1    0    0    0    0  0.00000000000E+00  0.00000000000E+00  0.99999998245E-14  0.12500000000E+03  0.12500000000E+03 0.  0.
        -13    1    3    3    0    0  0.36420608276E+02 -0.28391462268E+01  0.32303298134E+02  0.48765107330E+02  0.10566000000E+00 0. -1.
         23    2    1    0    0    0 -0.29548817016E+01 -0.22991472112E+02  0.19206816033E+02  0.94896164732E+02  0.89994673081E+02 0.  0.
         13    1    3    3    0    0 -0.39375489978E+02 -0.20152325885E+02 -0.13096482101E+02  0.46131057402E+02  0.10566000000E+00 0.  1.
         22    1    1    0    0    0  0.29548817016E+01  0.22991472112E+02 -0.19206816033E+02  0.30103835268E+02  0.00000000000E+00 0.  1.
</event>
<event>
 5    1  0.1751020E-003  0.9118800E+02  0.7818608E-02  0.1130116E+00
         25   -1    0    0    0    0  0.00000000000E+00  0.00000000000E+00  0.99999998245E-14  0.12500000000E+03  0.12500000000E+03 0.  0.
        -13    1    3    3    0    0  0.90673645667E+01 -0.29253484910E+02  0.20819332462E+02  0.37032948138E+02  0.10566000000E+00 0. -1.
         23    2    1    0    0    0  0.16423831507E+02  0.25006883787E+02  0.16928309929E+01  0.95034150189E+02  0.90186127244E+02 0.  0.
         13    1    3    3    0    0  0.73564669402E+01  0.54260368697E+02 -0.19126501469E+02  0.58001202052E+02  0.10566000000E+00 0.  1.
         22    1    1    0    0    0 -0.16423831507E+02 -0.25006883787E+02 -0.16928309929E+01  0.29965849811E+02  0.00000000000E+00 0.  1.
</event>
<event>
 5    1  0.1751020E-003  0.9118800E+02  0.7818608E-02  0.1130116E+00
         25   -1    0    0    0    0  0.00000000000E+00  0.00000000000E+00  0.99999998245E-14  0.12500000000E+03  0.12500000000E+03 0.  0.
        -13    1    3    3    0    0  0.11826828280E+02 -0.77455082376E+01 -0.37782195194E+02  0.40340701564E+02  0.10566000000E+00 0. -1.
         23    2    1    0    0    0 -0.24948386338E+02 -0.11071910060E+02  0.54190677879E+01  0.97172397356E+02  0.93102627992E+02 0.  0.
         13    1    3    3    0    0 -0.36775214618E+02 -0.33264018227E+01  0.43201262981E+02  0.56831695791E+02  0.10566000000E+00 0.  1.
         22    1    1    0    0    0  0.24948386338E+02  0.11071910060E+02 -0.54190677879E+01  0.27827602644E+02  0.00000000000E+00 0.  1.
</event>
<event>
 5    1  0.1751020E-003  0.9118800E+02  0.7818608E-02  0.1130116E+00
         25   -1    0    0    0    0  0.00000000000E+00  0.00000000000E+00  0.99999998245E-14  0.12500000000E+03  0.12500000000E+03 0.  0.
        -13    1    3    3    0    0 -0.37380828691E+02 -0.23794186129E+01 -0.29746506999E+02  0.47831515021E+02  0.10566000000E+00 0.  1.
         23    2    1    0    0    0 -0.22646668746E+02  0.89820440522E+01  0.15067303320E+02  0.96354365952E+02  0.91997779800E+02 0.  0.
         13    1    3    3    0    0  0.14734159944E+02  0.11361462665E+02  0.44813810319E+02  0.48522850931E+02  0.10566000000E+00 0. -1.
         22    1    1    0    0    0  0.22646668746E+02 -0.89820440522E+01 -0.15067303320E+02  0.28645634048E+02  0.00000000000E+00 0. -1.
</event>
<event>
 5    1  0.1751020E-003  0.9118800E+02  0.7818608E-02  0.1130116E+00
         25   -1    0    0    0    0  0.00000000000E+00  0.00000000000E+00  0.99999998245E-14  0.12500000000E+03  0.12500000000E+03 0.  0.
        -13    1    3    3    0    0  0.27168356507E+02 -0.14117621389E+02  0.23223236337E+02  0.38428592207E+02  0.10566000000E+00 0. -1.
         23    2    1    0    0    0 -0.11534329910E+01 -0.55637428643E+00 -0.27167375118E+02  0.97802459103E+02  0.93944743205E+02 0.  0.
         13    1    3    3    0    0 -0.28321789498E+02  0.13561247103E+02 -0.50390611456E+02  0.59373866897E+02  0.10566000000E+00 0.  1.
         22    1    1    0    0    0  0.11534329910E+01  0.55637428643E+00  0.27167375118E+02  0.27197540897E+02  0.00000000000E+00 0.  1.
</event>
<event>
 5    1  0.1751020E-003  0.9118800E+02  0.7818608E-02  0.1130116E+00
         25   -1    0    0    0    0  0.00000000000E+00  0.00000000000E+00  0.99999998245E-14  0.12500000000E+03  0.12500000000E+03 0.  0.
        -13    1    3    3    0    0 -0.87450018908E+01 -0.11379020982E+01  0.43538785950E+02  0.44423044980E+02  0.10566000000E+00 0.  1.
         23    2    1    0    0    0 -0.27647802062E+02  0.79649831980E+01 -0.35839308411E+01  0.96005406082E+02  0.91522409936E+02 0.  0.
         13    1    3    3    0    0 -0.18902800171E+02  0.91028852962E+01 -0.47122716791E+02  0.51582361102E+02  0.10566000000E+00 0. -1.
         22    1    1    0    0    0  0.27647802062E+02 -0.79649831980E+01  0.35839308411E+01  0.28994593918E+02  0.00000000000E+00 0. -1.
</event>
<event>
 5    1  0.1751020E-003  0.9118800E+02  0.7818608E-02  0.1130116E+00
         25   -1    0    0    0    0  0.00000000000E+00  0.00000000000E+00  0.99999998245E-14  0.12500000000E+03  0.12500000000E+03 0.  0.
        -13    1    3    3    0    0  0.15782846408E+02 -0.13765508965E+02 -0.26923338936E+02  0.34109600134E+02  0.10566000000E+00 0. -1.
         23    2    1    0    0    0 -0.73799557410E+01 -0.18390630877E+01  0.28580997506E+02  0.95424345853E+02  0.90725335289E+02 0.  0.
         13    1    3    3    0    0 -0.23162802149E+02  0.11926445877E+02  0.55504336442E+02  0.61314745719E+02  0.10566000000E+00 0.  1.
         22    1    1    0    0    0  0.73799557410E+01  0.18390630877E+01 -0.28580997506E+02  0.29575654147E+02  0.00000000000E+00 0.  1.
</event>
<event>
 5    1  0.1751020E-003  0.9118800E+02  0.7818608E-02  0.1130116E+00
         25   -1    0    0    0    0  0.00000000000E+00  0.00000000000E+00  0.99999998245E-14  0.12500000000E+03  0.12500000000E+03 0.  0.
        -13    1    3    3    0    0  0.29777097846E+01 -0.22070485442E+02 -0.47357741641E+02  0.52332971830E+02  0.10566000000E+00 0.  1.
         23    2    1    0    0    0 -0.11522453454E+02  0.11610386189E+02 -0.24492805335E+02  0.95547232486E+02  0.90894488950E+02 0.  0.
         13    1    3    3    0    0 -0.14500163239E+02  0.33680871631E+02  0.22864936306E+02  0.43214260656E+02  0.10566000000E+00 0. -1.
         22    1    1    0    0    0  0.11522453454E+02 -0.11610386189E+02  0.24492805335E+02  0.29452767514E+02  0.00000000000E+00 0.  1.
</event>
<event>
 5    1  0.1751020E-003  0.9118800E+02  0.7818608E-02  0.1130116E+00
         25   -1    0    0    0    0  0.00000000000E+00  0.00000000000E+00  0.99999998245E-14  0.12500000000E+03  0.12500000000E+03 0.  0.
        -13    1    3    3    0    0 -0.34884368655E+02  0.19716431389E+02 -0.16914282619E+02  0.43494378530E+02  0.10566000000E+00 0.  1.
         23    2    1    0    0    0  0.81804510601E+01  0.27321187347E+02  0.99225034121E+01  0.94803590751E+02  0.89865998507E+02 0.  0.
         13    1    3    3    0    0  0.43064819715E+02  0.76047559581E+01  0.26836786031E+02  0.51309212221E+02  0.10566000000E+00 0. -1.
         22    1    1    0    0    0 -0.81804510601E+01 -0.27321187347E+02 -0.99225034121E+01  0.30196409249E+02  0.00000000000E+00 0. -1.
</event>
<event>
 5    1  0.1751020E-003  0.9118800E+02  0.7818608E-02  0.1130116E+00
         25   -1    0    0    0    0  0.00000000000E+00  0.00000000000E+00  0.99999998245E-14  0.12500000000E+03  0.12500000000E+03 0.  0.
        -13    1    3    3    0    0 -0.43608063704E+02 -0.49027482458E+01 -0.13068146970E+02  0.45787419556E+02  0.10566000000E+00 0.  1.
         23    2    1    0    0    0 -0.11069369309E+02  0.27961344712E+02  0.30729514197E+01  0.94770696908E+02  0.89820232837E+02 0.  0.
         13    1    3    3    0    0  0.32538694395E+02  0.32864092958E+02  0.16141098389E+02  0.48983277352E+02  0.10566000000E+00 0. -1.
         22    1    1    0    0    0  0.11069369309E+02 -0.27961344712E+02 -0.30729514197E+01  0.30229303092E+02  0.00000000000E+00 0.  1.
</event>
<event>
 5    1  0.1751020E-003  0.9118800E+02  0.7818608E-02  0.1130116E+00
         25   -1    0    0    0    0  0.00000000000E+00  0.00000000000E+00  0.99999998245E-14  0.12500000000E+03  0.12500000000E+03 0.  0.
        -13    1    3    3    0    0 -0.22102785354E+02 -0.30245421631E+02 -0.35790007349E+02  0.51809790968E+02  0.10566000000E+00 0.  1.
         23    2    1    0    0    0  0.12260806941E+02 -0.24583465053E+02 -0.79362451288E+01  0.96405277976E+02  0.92066929427E+02 0.  0.
         13    1    3    3    0    0  0.34363592295E+02  0.56619565781E+01  0.27853762220E+02  0.44595487009E+02  0.10566000000E+00 0. -1.
         22    1    1    0    0    0 -0.12260806941E+02  0.24583465053E+02  0.79362451288E+01  0.28594722024E+02  0.00000000000E+00 0.  1.
</event>
<event>
 5    1  0.1751020E-003  0.9118800E+02  0.7818608E-02  0.1130116E+00
         25   -1    0    0    0    0  0.00000000000E+00  0.00000000000E+00  0.99999998245E-14  0.12500000000E+03  0.12500000000E+03 0.  0.
        -13    1    3    3    0    0  0.12652644336E+02 -0.31135357121E+02 -0.10715001198E+02  0.35274952678E+02  0.10566000000E+00 0.  1.
         23    2    1    0    0    0  0.14367567474E+01  0.23729869371E+02  0.14992787230E+02  0.96893868299E+02  0.92727919607E+02 0.  0.
         13    1    3    3    0    0 -0.11215887588E+02  0.54865226492E+02  0.25707788428E+02  0.61618915620E+02  0.10566000000E+00 0. -1.
         22    1    1    0    0    0 -0.14367567474E+01 -0.23729869371E+02 -0.14992787230E+02  0.28106131701E+02  0.00000000000E+00 0. -1.
</event>
<event>
 5    1  0.1751020E-003  0.9118800E+02  0.7818608E-02  0.1130116E+00
         25   -1    0    0    0    0  0.00000000000E+00  0.00000000000E+00  0.99999998245E-14  0.12500000000E+03  0.12500000000E+03 0.  0.
        -13    1    3    3    0    0 -0.59500726127E+02  0.70435832242E+01 -0.15743502226E+02  0.61950121071E+02  0.10566000000E+00 0.  1.
         23    2    1    0    0    0 -0.26651278111E+02 -0.16321668859E+01 -0.10405735201E+02  0.96342820816E+02  0.91982091757E+02 0.  0.
         13    1    3    3    0    0  0.32849448016E+02 -0.86757501101E+01  0.53377670250E+01  0.34392699745E+02  0.10566000000E+00 0. -1.
         22    1    1    0    0    0  0.26651278111E+02  0.16321668859E+01  0.10405735201E+02  0.28657179184E+02  0.00000000000E+00 0.  1.
</event>
<event>
 5    1  0.1751020E-003  0.9118800E+02  0.7818608E-02  0.1130116E+00
         25   -1    0    0    0    0  0.00000000000E+00  0.00000000000E+00  0.99999998245E-14  0.12500000000E+03  0.12500000000E+03 0.  0.
        -13    1    3    3    0    0 -0.32741706805E+01  0.85324621247E+01 -0.33956605789E+02  0.35165115445E+02  0.10566000000E+00 0. -1.
         23    2    1    0    0    0 -0.19452195795E+02 -0.84351358119E+00  0.22855562263E+02  0.94975407368E+02  0.90104671587E+02 0.  0.
         13    1    3    3    0    0 -0.16178025114E+02 -0.93759757059E+01  0.56812168052E+02  0.59810291922E+02  0.10566000000E+00 0.  1.
         22    1    1    0    0    0  0.19452195795E+02  0.84351358119E+00 -0.22855562263E+02  0.30024592632E+02  0.00000000000E+00 0.  1.
</event>
<event>
 5    1  0.1751020E-003  0.9118800E+02  0.7818608E-02  0.1130116E+00
         25   -1    0    0    0    0  0.00000000000E+00  0.00000000000E+00  0.99999998245E-14  0.12500000000E+03  0.12500000000E+03 0.  0.
        -13    1    3    3    0    0 -0.85013218832E+01  0.20112354142E+02  0.29449839895E+02  0.36661744323E+02  0.10566000000E+00 0.  1.
         23    2    1    0    0    0  0.94746924761E+01 -0.27114301696E+02 -0.20449968909E+01  0.96205258010E+02  0.91794959025E+02 0.  0.
         13    1    3    3    0    0  0.17976014359E+02 -0.47226655838E+02 -0.31494836786E+02  0.59543513687E+02  0.10566000000E+00 0. -1.
         22    1    1    0    0    0 -0.94746924761E+01  0.27114301696E+02  0.20449968909E+01  0.28794741990E+02  0.00000000000E+00 0. -1.
</event>
<event>
 5    1  0.1751020E-003  0.9118800E+02  0.7818608E-02  0.1130116E+00
         25   -1    0    0    0    0  0.00000000000E+00  0.00000000000E+00  0.99999998245E-14  0.12500000000E+03  0.12500000000E+03 0.  0.
        -13    1    3    3    0    0 -0.29880293627E+02 -0.39133867081E+02  0.20013909174E+02  0.53149404742E+02  0.10566000000E+00 0.  1.
         23    2    1    0    0    0 -0.13391437132E+02 -0.16807552854E+02 -0.15703945029E+02  0.98383495517E+02  0.94714697272E+02 0.  0.
         13    1    3    3    0    0  0.16488856495E+02  0.22326314227E+02 -0.35717854202E+02  0.45234090776E+02  0.10566000000E+00 0. -1.
         22    1    1    0    0    0  0.13391437132E+02  0.16807552854E+02  0.15703945029E+02  0.26616504483E+02  0.00000000000E+00 0.  1.
</event>
<event>
 5    1  0.1751020E-003  0.9118800E+02  0.7818608E-02  0.1130116E+00
         25   -1    0    0    0    0  0.00000000000E+00  0.00000000000E+00  0.99999998245E-14  0.12500000000E+03  0.12500000000E+03 0.  0.
        -13    1    3    3    0    0 -0.33514930758E+02  0.37198388494E+01 -0.94325278496E+01  0.35015304232E+02  0.10566000000E+00 0. -1.
         23    2    1    0    0    0  0.12691518920E+02  0.74166326318E+01  0.27189966080E+02  0.94090853335E+02  0.88869079740E+02 0.  0.
         13    1    3    3    0    0  0.46206449679E+02  0.36967937824E+01  0.36622493930E+02  0.59075549103E+02  0.10566000000E+00 0.  1.
         22    1    1    0    0    0 -0.12691518920E+02 -0.74166326318E+01 -0.27189966080E+02  0.30909146665E+02  0.00000000000E+00 0.  1.
</event>
<event>
 5    1  0.1751020E-003  0.9118800E+02  0.7818608E-02  0.1130116E+00
         25   -1    0    0    0    0  0.00000000000E+00  0.00000000000E+00  0.99999998245E-14  0.12500000000E+03  0.12500000000E+03 0.  0.
        -13    1    3    3    0    0  0.22329277667E+02 -0.31345161544E+01  0.27686479076E+02  0.35706779753E+02  0.10566000000E+00 0.  1.
         23    2    1    0    0    0 -0.12484373045E+02  0.24312082570E+02 -0.11947519753E+02  0.95172493274E+02  0.90377670464E+02 0.  0.
         13    1    3    3    0    0 -0.34813650712E+02  0.27446598725E+02 -0.39633998828E+02  0.59465713522E+02  0.10566000000E+00 0. -1.
         22    1    1    0    0    0  0.12484373045E+02 -0.24312082570E+02  0.11947519753E+02  0.29827506726E+02  0.00000000000E+00 0. -1.
</event>
<event>
 5    1  0.1751020E-003  0.9118800E+02  0.7818608E-02  0.1130116E+00
         25   -1    0    0    0    0  0.00000000000E+00  0.00000000000E+00  0.99999998245E-14  0.12500000000E+03  0.12500000000E+03 0.  0.
        -13    1    3    3    0    0 -0.41496264907E+02 -0.13956102387E+02 -0.18972504577E+02  0.47714566843E+02  0.10566000000E+00 0. -1.
         23    2    1    0    0    0  0.31555107438E+01  0.12232370597E+01 -0.28894105465E+02  0.95908370833E+02  0.91389784485E+02 0.  0.
         13    1    3    3    0    0  0.44651775651E+02  0.15179339446E+02 -0.99216008877E+01  0.48193803990E+02  0.10566000000E+00 0.  1.
         22    1    1    0    0    0 -0.31555107438E+01 -0.12232370597E+01  0.28894105465E+02  0.29091629167E+02  0.00000000000E+00 0.  1.
</event>
<event>
 5    1  0.1751020E-003  0.9118800E+02  0.7818608E-02  0.1130116E+00
         25   -1    0    0    0    0  0.00000000000E+00  0.00000000000E+00  0.99999998245E-14  0.12500000000E+03  0.12500000000E+03 0.  0.
        -13    1    3    3    0    0 -0.44956448361E+02 -0.13842951121E+02  0.46263976587E+01  0.47266523717E+02  0.10566000000E+00 0. -1.
         23    2    1    0    0    0 -0.13827892384E+02  0.22723576200E+02  0.11941263140E+02  0.95842405990E+02  0.91299515319E+02 0.  0.
         13    1    3    3    0    0  0.31128555977E+02  0.36566527321E+02  0.73148654817E+01  0.48575882273E+02  0.10566000000E+00 0.  1.
         22    1    1    0    0    0  0.13827892384E+02 -0.22723576200E+02 -0.11941263140E+02  0.29157594010E+02  0.00000000000E+00 0. -1.
</event>
<event>
 5    1  0.1751020E-003  0.9118800E+02  0.7818608E-02  0.1130116E+00
         25   -1    0    0    0    0  0.00000000000E+00  0.00000000000E+00  0.99999998245E-14  0.12500000000E+03  0.12500000000E+03 0.  0.
        -13    1    3    3    0    0  0.31183793325E+02 -0.16272505018E+02 -0.33502588675E+02  0.48576311075E+02  0.10566000000E+00 0.  1.
         23    2    1    0    0    0  0.82111749949E+00  0.71393452516E+01 -0.37215972616E+02  0.87096529152E+02  0.78416403182E+02 0.  0.
         13    1    3    3    0    0 -0.30362675826E+02  0.23411850269E+02 -0.37133839415E+01  0.38520218077E+02  0.10566000000E+00 0. -1.
         22    1    1    0    0    0 -0.82111749949E+00 -0.71393452516E+01  0.37215972616E+02  0.37903470848E+02  0.00000000000E+00 0.  1.
</event>
<event>
 5    1  0.1751020E-003  0.9118800E+02  0.7818608E-02  0.1130116E+00
         25   -1    0    0    0    0  0.00000000000E+00  0.00000000000E+00  0.99999998245E-14  0.12500000000E+03  0.12500000000E+03 0.  0.
        -13    1    3    3    0    0  0.80092806713E+01  0.31534287605E+02  0.89012193219E+01  0.33731331742E+02  0.10566000000E+00 0. -1.
         23    2    1    0    0    0  0.76864587657E+01 -0.28885893650E+02  0.75616053274E+01  0.94167316441E+02  0.88976564950E+02 0.  0.
         13    1    3    3    0    0 -0.32282190556E+00 -0.60420181255E+02 -0.13396139945E+01  0.60435984699E+02  0.10566000000E+00 0.  1.
         22    1    1    0    0    0 -0.76864587657E+01  0.28885893650E+02 -0.75616053274E+01  0.30832683559E+02  0.00000000000E+00 0.  1.
</event>
<event>
 5    1  0.1751020E-003  0.9118800E+02  0.7818608E-02  0.1130116E+00
         25   -1    0    0    0    0  0.00000000000E+00  0.00000000000E+00  0.99999998245E-14  0.12500000000E+03  0.12500000000E+03 0.  0.
        -13    1    3    3    0    0  0.39928774071E+01  0.18054430119E+02 -0.20649308402E+02  0.27718416594E+02  0.10566000000E+00 0.  1.
         23    2    1    0    0    0  0.37191167735E+02 -0.14115638666E+02  0.10981392851E+02  0.83732274095E+02  0.72856492666E+02 0.  0.
         13    1    3    3    0    0  0.33198290328E+02 -0.32170068785E+02  0.31630701253E+02  0.56013857501E+02  0.10566000000E+00 0. -1.
         22    1    1    0    0    0 -0.37191167735E+02  0.14115638666E+02 -0.10981392851E+02  0.41267725905E+02  0.00000000000E+00 0. -1.
</event>
<event>
 5    1  0.1751020E-003  0.9118800E+02  0.7818608E-02  0.1130116E+00
         25   -1    0    0    0    0  0.00000000000E+00  0.00000000000E+00  0.99999998245E-14  0.12500000000E+03  0.12500000000E+03 0.  0.
        -13    1    3    3    0    0 -0.29998356350E+01 -0.25352419326E+02 -0.54020110466E+02  0.59748871774E+02  0.10566000000E+00 0. -1.
         23    2    1    0    0    0  0.10941345131E+02 -0.15510256137E+02 -0.22760056201E+02  0.95363852528E+02  0.90641950178E+02 0.  0.
         13    1    3    3    0    0  0.13941180766E+02  0.98421631888E+01  0.31260054265E+02  0.35614980754E+02  0.10566000000E+00 0.  1.
         22    1    1    0    0    0 -0.10941345131E+02  0.15510256137E+02  0.22760056201E+02  0.29636147472E+02  0.00000000000E+00 0. -1.
</event>
<event>
 5    1  0.1751020E-003  0.9118800E+02  0.7818608E-02  0.1130116E+00
         25   -1    0    0    0    0  0.00000000000E+00  0.00000000000E+00  0.99999998245E-14  0.12500000000E+03  0.12500000000E+03 0.  0.
        -13    1    3    3    0    0 -0.19155536840E+02  0.43017976461E+02  0.20975562072E+02  0.51550618412E+02  0.10566000000E+00 0. -1.
         23    2    1    0    0    0  0.12358994638E+02  0.12879771351E+02  0.23802043603E+02  0.95248184287E+02  0.90482297008E+02 0.  0.
         13    1    3    3    0    0  0.31514531478E+02 -0.30138205109E+02  0.28264815306E+01  0.43697565875E+02  0.10566000000E+00 0.  1.
         22    1    1    0    0    0 -0.12358994638E+02 -0.12879771351E+02 -0.23802043603E+02  0.29751815713E+02  0.00000000000E+00 0. -1.
</event>
<event>
 5    1  0.1751020E-003  0.9118800E+02  0.7818608E-02  0.1130116E+00
         25   -1    0    0    0    0  0.00000000000E+00  0.00000000000E+00  0.99999998245E-14  0.12500000000E+03  0.12500000000E+03 0.  0.
        -13    1    3    3    0    0 -0.14450410587E+02  0.29776799860E+02  0.22802366969E+02  0.40192428135E+02  0.10566000000E+00 0. -1.
         23    2    1    0    0    0 -0.13319541840E+02 -0.22575354561E+02 -0.30865988950E+01  0.98607123667E+02  0.95009372784E+02 0.  0.
         13    1    3    3    0    0  0.11308687470E+01 -0.52352154420E+02 -0.25888965864E+02  0.58414695532E+02  0.10566000000E+00 0.  1.
         22    1    1    0    0    0  0.13319541840E+02  0.22575354561E+02  0.30865988950E+01  0.26392876333E+02  0.00000000000E+00 0.  1.
</event>
<event>
 5    1  0.1751020E-003  0.9118800E+02  0.7818608E-02  0.1130116E+00
         25   -1    0    0    0    0  0.00000000000E+00  0.00000000000E+00  0.99999998245E-14  0.12500000000E+03  0.12500000000E+03 0.  0.
        -13    1    3    3    0    0 -0.12461136081E+02  0.38804595416E+02 -0.54231236792E+01  0.41115665777E+02  0.10566000000E+00 0.  1.
         23    2    1    0    0    0 -0.13491182778E+02 -0.54945321607E+01  0.25834011373E+02  0.95341981860E+02  0.90611784360E+02 0.  0.
         13    1    3    3    0    0 -0.10300466964E+01 -0.44299127576E+02  0.31257135052E+02  0.54226316083E+02  0.10566000000E+00 0. -1.
         22    1    1    0    0    0  0.13491182778E+02  0.54945321607E+01 -0.25834011373E+02  0.29658018140E+02  0.00000000000E+00 0. -1.
</event>
<event>
 5    1  0.1751020E-003  0.9118800E+02  0.7818608E-02  0.1130116E+00
         25   -1    0    0    0    0  0.00000000000E+00  0.00000000000E+00  0.99999998245E-14  0.12500000000E+03  0.12500000000E+03 0.  0.
        -13    1    3    3    0    0 -0.21174386979E+02  0.31249399368E+02 -0.89184178461E+01  0.38786969019E+02  0.10566000000E+00 0. -1.
         23    2    1    0    0    0  0.17145139501E+02 -0.97306211024E+01 -0.21019757532E+02  0.96182106214E+02  0.91763427102E+02 0.  0.
         13    1    3    3    0    0  0.38319526480E+02 -0.40980020471E+02 -0.12101339686E+02  0.57395137195E+02  0.10566000000E+00 0.  1.
         22    1    1    0    0    0 -0.17145139501E+02  0.97306211024E+01  0.21019757532E+02  0.28817893786E+02  0.00000000000E+00 0.  1.
</event>
<event>
 5    1  0.1751020E-003  0.9118800E+02  0.7818608E-02  0.1130116E+00
         25   -1    0    0    0    0  0.00000000000E+00  0.00000000000E+00  0.99999998245E-14  0.12500000000E+03  0.12500000000E+03 0.  0.
        -13    1    3    3    0    0  0.36410541485E+02 -0.30904151914E+01 -0.15097256918E+01  0.36572785415E+02  0.10566000000E+00 0.  1.
         23    2    1    0    0    0 -0.15565385636E+02  0.20901983075E+02 -0.14361325589E+02  0.95243961972E+02  0.90476463752E+02 0.  0.
         13    1    3    3    0    0 -0.51975927121E+02  0.23992398266E+02 -0.12851599897E+02  0.58671176557E+02  0.10566000000E+00 0. -1.
         22    1    1    0    0    0  0.15565385636E+02 -0.20901983075E+02  0.14361325589E+02  0.29756038028E+02  0.00000000000E+00 0. -1.
</event>
<event>
 5    1  0.1751020E-003  0.9118800E+02  0.7818608E-02  0.1130116E+00
         25   -1    0    0    0    0  0.00000000000E+00  0.00000000000E+00  0.99999998245E-14  0.12500000000E+03  0.12500000000E+03 0.  0.
        -13    1    3    3    0    0 -0.10881526617E+02  0.45600736588E+02 -0.15394910067E+02  0.49344191339E+02  0.10566000000E+00 0. -1.
         23    2    1    0    0    0 -0.27803732871E+02  0.37015091668E+01 -0.11451023756E+02  0.94703553397E+02  0.89726742665E+02 0.  0.
         13    1    3    3    0    0 -0.16922206254E+02 -0.41899227421E+02  0.39438863115E+01  0.45359362058E+02  0.10566000000E+00 0.  1.
         22    1    1    0    0    0  0.27803732871E+02 -0.37015091668E+01  0.11451023756E+02  0.30296446603E+02  0.00000000000E+00 0.  1.
</event>
<event>
 5    1  0.1751020E-003  0.9118800E+02  0.7818608E-02  0.1130116E+00
         25   -1    0    0    0    0  0.00000000000E+00  0.00000000000E+00  0.99999998245E-14  0.12500000000E+03  0.12500000000E+03 0.  0.
        -13    1    3    3    0    0 -0.70532933515E+01  0.28755815437E+02 -0.99532754680E+01  0.31236592726E+02  0.10566000000E+00 0.  1.
         23    2    1    0    0    0  0.62245292586E+01 -0.30376946192E+02  0.48278330770E+01  0.93618292005E+02  0.88201887742E+02 0.  0.
         13    1    3    3    0    0  0.13277822610E+02 -0.59132761629E+02  0.14781108545E+02  0.62381699279E+02  0.10566000000E+00 0. -1.
         22    1    1    0    0    0 -0.62245292586E+01  0.30376946192E+02 -0.48278330770E+01  0.31381707995E+02  0.00000000000E+00 0. -1.
</event>
<event>
 5    1  0.1751020E-003  0.9118800E+02  0.7818608E-02  0.1130116E+00
         25   -1    0    0    0    0  0.00000000000E+00  0.00000000000E+00  0.99999998245E-14  0.12500000000E+03  0.12500000000E+03 0.  0.
        -13    1    3    3    0    0 -0.38632664815E+02  0.39895739174E+02  0.17728130737E+01  0.55563538631E+02  0.10566000000E+00 0. -1.
         23    2    1    0    0    0 -0.26598552499E+02  0.14456646236E+01  0.97477386662E+01  0.96634680500E+02  0.92377865991E+02 0.  0.
         13    1    3    3    0    0  0.12034112316E+02 -0.38450074551E+02  0.79749255926E+01  0.41071141869E+02  0.10566000000E+00 0.  1.
         22    1    1    0    0    0  0.26598552499E+02 -0.14456646236E+01 -0.97477386662E+01  0.28365319500E+02  0.00000000000E+00 0. -1.
</event>
<event>
 5    1  0.1751020E-003  0.9118800E+02  0.7818608E-02  0.1130116E+00
         25   -1    0    0    0    0  0.00000000000E+00  0.00000000000E+00  0.99999998245E-14  0.12500000000E+03  0.12500000000E+03 0.  0.
        -13    1    3    3    0    0 -0.53152282454E+01 -0.37113790887E+02  0.61704792389E+01  0.37996988083E+02  0.10566000000E+00 0. -1.
         23    2    1    0    0    0  0.15313286229E+02  0.15038105281E+02  0.19894287781E+02  0.95735276665E+02  0.91152724403E+02 0.  0.
         13    1    3    3    0    0  0.20628514474E+02  0.52151896169E+02  0.13723808542E+02  0.57738288582E+02  0.10566000000E+00 0.  1.
         22    1    1    0    0    0 -0.15313286229E+02 -0.15038105281E+02 -0.19894287781E+02  0.29264723335E+02  0.00000000000E+00 0.  1.
</event>
<event>
 5    1  0.1751020E-003  0.9118800E+02  0.7818608E-02  0.1130116E+00
         25   -1    0    0    0    0  0.00000000000E+00  0.00000000000E+00  0.99999998245E-14  0.12500000000E+03  0.12500000000E+03 0.  0.
        -13    1    3    3    0    0  0.56393113706E+02  0.73999893037E+01 -0.16816997548E+02  0.59310755228E+02  0.10566000000E+00 0. -1.
         23    2    1    0    0    0  0.25997989824E+02 -0.10674350602E+02 -0.63980136020E+01  0.96176887508E+02  0.91756317914E+02 0.  0.
         13    1    3    3    0    0 -0.30395123882E+02 -0.18074339905E+02  0.10418983946E+02  0.36866132280E+02  0.10566000000E+00 0.  1.
         22    1    1    0    0    0 -0.25997989824E+02  0.10674350602E+02  0.63980136020E+01  0.28823112492E+02  0.00000000000E+00 0. -1.
</event>
<event>
 5    1  0.1751020E-003  0.9118800E+02  0.7818608E-02  0.1130116E+00
         25   -1    0    0    0    0  0.00000000000E+00  0.00000000000E+00  0.99999998245E-14  0.12500000000E+03  0.12500000000E+03 0.  0.
        -13    1    3    3    0    0 -0.16862153404E+01  0.13266379533E+02 -0.37035065038E+02  0.39375720368E+02  0.10566000000E+00 0. -1.
         23    2    1    0    0    0  0.10246910087E+02  0.19733615872E+02  0.18207296307E+02  0.96261169117E+02  0.91871063339E+02 0.  0.
         13    1    3    3    0    0  0.11933125428E+02  0.64672363396E+01  0.55242361345E+02  0.56885448749E+02  0.10566000000E+00 0.  1.
         22    1    1    0    0    0 -0.10246910087E+02 -0.19733615872E+02 -0.18207296307E+02  0.28738830883E+02  0.00000000000E+00 0.  1.
</event>
<event>
 5    1  0.1751020E-003  0.9118800E+02  0.7818608E-02  0.1130116E+00
         25   -1    0    0    0    0  0.00000000000E+00  0.00000000000E+00  0.99999998245E-14  0.12500000000E+03  0.12500000000E+03 0.  0.
        -13    1    3    3    0    0 -0.38482487273E+02  0.25542297843E+02  0.30832877378E+02  0.55533668141E+02  0.10566000000E+00 0.  1.
         23    2    1    0    0    0 -0.26098319233E+02  0.27321128535E+01 -0.34495545674E+01  0.98533301412E+02  0.94912198126E+02 0.  0.
         13    1    3    3    0    0  0.12384168040E+02 -0.22810184989E+02 -0.34282431945E+02  0.42999633271E+02  0.10566000000E+00 0. -1.
         22    1    1    0    0    0  0.26098319233E+02 -0.27321128535E+01  0.34495545674E+01  0.26466698588E+02  0.00000000000E+00 0.  1.
</event>
<event>
 5    1  0.1751020E-003  0.9118800E+02  0.7818608E-02  0.1130116E+00
         25   -1    0    0    0    0  0.00000000000E+00  0.00000000000E+00  0.99999998245E-14  0.12500000000E+03  0.12500000000E+03 0.  0.
        -13    1    3    3    0    0  0.14999216740E+02  0.33076506507E+02 -0.26776934662E+01  0.36417207359E+02  0.10566000000E+00 0. -1.
         23    2    1    0    0    0 -0.69374298039E+01 -0.24201241511E+02  0.78061322289E+01  0.98641628970E+02  0.95054759179E+02 0.  0.
         13    1    3    3    0    0 -0.21936646544E+02 -0.57277748018E+02  0.10483825695E+02  0.62224421611E+02  0.10566000000E+00 0.  1.
         22    1    1    0    0    0  0.69374298039E+01  0.24201241511E+02 -0.78061322289E+01  0.26358371030E+02  0.00000000000E+00 0.  1.
</event>
<event>
 5    1  0.1751020E-003  0.9118800E+02  0.7818608E-02  0.1130116E+00
         25   -1    0    0    0    0  0.00000000000E+00  0.00000000000E+00  0.99999998245E-14  0.12500000000E+03  0.12500000000E+03 0.  0.
        -13    1    3    3    0    0 -0.18405645145E+02  0.68104829405E+01  0.28000886475E+02  0.34193731275E+02  0.10566000000E+00 0.  1.
         23    2    1    0    0    0  0.23958895028E+02  0.15293596485E+02 -0.12988300190E+02  0.93749101033E+02  0.88387076308E+02 0.  0.
         13    1    3    3    0    0  0.42364540173E+02  0.84831135444E+01 -0.40989186666E+02  0.59555369758E+02  0.10566000000E+00 0. -1.
         22    1    1    0    0    0 -0.23958895028E+02 -0.15293596485E+02  0.12988300190E+02  0.31250898967E+02  0.00000000000E+00 0. -1.
</event>
<event>
 5    1  0.1751020E-003  0.9118800E+02  0.7818608E-02  0.1130116E+00
         25   -1    0    0    0    0  0.00000000000E+00  0.00000000000E+00  0.99999998245E-14  0.12500000000E+03  0.12500000000E+03 0.  0.
        -13    1    3    3    0    0 -0.43796040739E+02  0.20943582451E+02  0.36231015334E+01  0.48681257780E+02  0.10566000000E+00 0. -1.
         23    2    1    0    0    0 -0.18402247820E+02 -0.56544492039E+01 -0.23679387831E+02  0.94482317770E+02  0.89418004018E+02 0.  0.
         13    1    3    3    0    0  0.25393792919E+02 -0.26598031655E+02 -0.27302489365E+02  0.45801059990E+02  0.10566000000E+00 0.  1.
         22    1    1    0    0    0  0.18402247820E+02  0.56544492039E+01  0.23679387831E+02  0.30517682230E+02  0.00000000000E+00 0. -1.
</event>
<event>
 5    1  0.1751020E-003  0.9118800E+02  0.7818608E-02  0.1130116E+00
         25   -1    0    0    0    0  0.00000000000E+00  0.00000000000E+00  0.99999998245E-14  0.12500000000E+03  0.12500000000E+03 0.  0.
        -13    1    3    3    0    0 -0.40295706840E+01 -0.42820409753E+02  0.45207791955E+02  0.62398562073E+02  0.10566000000E+00 0. -1.
         23    2    1    0    0    0 -0.89049317880E+00 -0.22190777515E+02  0.20097409694E+02  0.95047880522E+02  0.90205155787E+02 0.  0.
         13    1    3    3    0    0  0.31390775052E+01  0.20629632238E+02 -0.25110382261E+02  0.32649318449E+02  0.10566000000E+00 0.  1.
         22    1    1    0    0    0  0.89049317880E+00  0.22190777515E+02 -0.20097409694E+02  0.29952119478E+02  0.00000000000E+00 0. -1.
</event>
<event>
 5    1  0.1751020E-003  0.9118800E+02  0.7818608E-02  0.1130116E+00
         25   -1    0    0    0    0  0.00000000000E+00  0.00000000000E+00  0.99999998245E-14  0.12500000000E+03  0.12500000000E+03 0.  0.
        -13    1    3    3    0    0 -0.46704555554E+01 -0.41400917921E+02  0.35648025359E+01  0.41815883836E+02  0.10566000000E+00 0.  1.
         23    2    1    0    0    0  0.11208086485E+02  0.59246866563E+01  0.25639504795E+02  0.96397424578E+02  0.92056266189E+02 0.  0.
         13    1    3    3    0    0  0.15878542040E+02  0.47325604578E+02  0.22074702259E+02  0.54581540742E+02  0.10566000000E+00 0. -1.
         22    1    1    0    0    0 -0.11208086485E+02 -0.59246866563E+01 -0.25639504795E+02  0.28602575422E+02  0.00000000000E+00 0. -1.
</event>
<event>
 5    1  0.1751020E-003  0.9118800E+02  0.7818608E-02  0.1130116E+00
         25   -1    0    0    0    0  0.00000000000E+00  0.00000000000E+00  0.99999998245E-14  0.12500000000E+03  0.12500000000E+03 0.  0.
        -13    1    3    3    0    0  0.10731493589E+02  0.20722670260E+02 -0.54935025645E+02  0.59686365478E+02  0.10566000000E+00 0. -1.
         23    2    1    0    0    0 -0.46985697565E+01  0.25716390966E+01 -0.31300514155E+02  0.93244495410E+02  0.87670541531E+02 0.  0.
         13    1    3    3    0    0 -0.15430063346E+02 -0.18151031163E+02  0.23634511489E+02  0.33558129932E+02  0.10566000000E+00 0.  1.
         22    1    1    0    0    0  0.46985697565E+01 -0.25716390966E+01  0.31300514155E+02  0.31755504590E+02  0.00000000000E+00 0. -1.
</event>
<event>
 5    1  0.1751020E-003  0.9118800E+02  0.7818608E-02  0.1130116E+00
         25   -1    0    0    0    0  0.00000000000E+00  0.00000000000E+00  0.99999998245E-14  0.12500000000E+03  0.12500000000E+03 0.  0.
        -13    1    3    3    0    0  0.17797689061E+02  0.36576687123E+02 -0.19645046241E+02  0.45172456017E+02  0.10566000000E+00 0. -1.
         23    2    1    0    0    0  0.20298213824E+02  0.48682993751E+01  0.20062100369E+02  0.96048217767E+02  0.91580862857E+02 0.  0.
         13    1    3    3    0    0  0.25005247639E+01 -0.31708387748E+02  0.39707146610E+02  0.50875761749E+02  0.10566000000E+00 0.  1.
         22    1    1    0    0    0 -0.20298213824E+02 -0.48682993751E+01 -0.20062100369E+02  0.28951782233E+02  0.00000000000E+00 0.  1.
</event>
<event>
 5    1  0.1751020E-003  0.9118800E+02  0.7818608E-02  0.1130116E+00
         25   -1    0    0    0    0  0.00000000000E+00  0.00000000000E+00  0.99999998245E-14  0.12500000000E+03  0.12500000000E+03 0.  0.
        -13    1    3    3    0    0  0.23570393140E+02 -0.26685406928E+02 -0.36094011252E+02  0.50699735581E+02  0.10566000000E+00 0.  1.
         23    2    1    0    0    0 -0.15973288498E+02 -0.10191367668E+02 -0.22357130365E+02  0.95693836850E+02  0.91095879230E+02 0.  0.
         13    1    3    3    0    0 -0.39543681637E+02  0.16494039260E+02  0.13736880887E+02  0.44994101270E+02  0.10566000000E+00 0. -1.
         22    1    1    0    0    0  0.15973288498E+02  0.10191367668E+02  0.22357130365E+02  0.29306163150E+02  0.00000000000E+00 0.  1.
</event>
<event>
 5    1  0.1751020E-003  0.9118800E+02  0.7818608E-02  0.1130116E+00
         25   -1    0    0    0    0  0.00000000000E+00  0.00000000000E+00  0.99999998245E-14  0.12500000000E+03  0.12500000000E+03 0.  0.
        -13    1    3    3    0    0 -0.10277693052E+02 -0.37551843237E+02 -0.24448579712E+02  0.45972993365E+02  0.10566000000E+00 0. -1.
         23    2    1    0    0    0  0.24401781107E+02 -0.29313423452E+01 -0.15933140689E+02  0.95709990417E+02  0.91118042145E+02 0.  0.
         13    1    3    3    0    0  0.34679474159E+02  0.34620500892E+02  0.85154390226E+01  0.49736997052E+02  0.10566000000E+00 0.  1.
         22    1    1    0    0    0 -0.24401781107E+02  0.29313423452E+01  0.15933140689E+02  0.29290009583E+02  0.00000000000E+00 0. -1.
</event>
<event>
 5    1  0.1751020E-003  0.9118800E+02  0.7818608E-02  0.1130116E+00
         25   -1    0    0    0    0  0.00000000000E+00  0.00000000000E+00  0.99999998245E-14  0.12500000000E+03  0.12500000000E+03 0.  0.
        -13    1    3    3    0    0 -0.90006884007E+01  0.39264677967E+02 -0.14264593068E+01  0.40308476499E+02  0.10566000000E+00 0. -1.
         23    2    1    0    0    0 -0.24222277391E+02 -0.14753951681E+02  0.22350682952E+01  0.96550160941E+02  0.92263428482E+02 0.  0.
         13    1    3    3    0    0 -0.15221588990E+02 -0.54018629648E+02  0.36615276020E+01  0.56241684441E+02  0.10566000000E+00 0.  1.
         22    1    1    0    0    0  0.24222277391E+02  0.14753951681E+02 -0.22350682952E+01  0.28449839059E+02  0.00000000000E+00 0.  1.
</event>
<event>
 5    1  0.1751020E-003  0.9118800E+02  0.7818608E-02  0.1130116E+00
         25   -1    0    0    0    0  0.00000000000E+00  0.00000000000E+00  0.99999998245E-14  0.12500000000E+03  0.12500000000E+03 0.  0.
        -13    1    3    3    0    0 -0.10113535009E+01 -0.51449653364E+02 -0.25645457175E+02  0.57496002513E+02  0.10566000000E+00 0. -1.
         23    2    1    0    0    0  0.44071264860E+01 -0.13076435524E+02 -0.25219236115E+02  0.96252377488E+02  0.91859100648E+02 0.  0.
         13    1    3    3    0    0  0.54184799869E+01  0.38373217840E+02  0.42622106028E+00  0.38756374975E+02  0.10566000000E+00 0.  1.
         22    1    1    0    0    0 -0.44071264860E+01  0.13076435524E+02  0.25219236115E+02  0.28747622512E+02  0.00000000000E+00 0. -1.
</event>
<event>
 5    1  0.1751020E-003  0.9118800E+02  0.7818608E-02  0.1130116E+00
         25   -1    0    0    0    0  0.00000000000E+00  0.00000000000E+00  0.99999998245E-14  0.12500000000E+03  0.12500000000E+03 0.  0.
        -13    1    3    3    0    0  0.18834907071E+02  0.28250853299E+02 -0.17977516123E+02  0.38419613305E+02  0.10566000000E+00 0. -1.
         23    2    1    0    0    0  0.65420346493E+01 -0.17112268790E+01  0.28857150769E+02  0.95361146019E+02  0.90638217684E+02 0.  0.
         13    1    3    3    0    0 -0.12292872421E+02 -0.29962080178E+02  0.46834666892E+02  0.56941532715E+02  0.10566000000E+00 0.  1.
         22    1    1    0    0    0 -0.65420346493E+01  0.17112268790E+01 -0.28857150769E+02  0.29638853981E+02  0.00000000000E+00 0.  1.
</event>
<event>
 5    1  0.1751020E-003  0.9118800E+02  0.7818608E-02  0.1130116E+00
         25   -1    0    0    0    0  0.00000000000E+00  0.00000000000E+00  0.99999998245E-14  0.12500000000E+03  0.12500000000E+03 0.  0.
        -13    1    3    3    0    0 -0.19170160152E+02  0.50881196469E+02  0.10793183256E+02  0.55433700608E+02  0.10566000000E+00 0.  1.
         23    2    1    0    0    0 -0.24256418128E+02  0.10012934113E+02  0.10813867809E+02  0.96617392527E+02  0.92354470015E+02 0.  0.
         13    1    3    3    0    0 -0.50862579767E+01 -0.40868262355E+02  0.20684553243E-01  0.41183691918E+02  0.10566000000E+00 0. -1.
         22    1    1    0    0    0  0.24256418128E+02 -0.10012934113E+02 -0.10813867809E+02  0.28382607473E+02  0.00000000000E+00 0.  1.
</event>
<event>
 5    1  0.1751020E-003  0.9118800E+02  0.7818608E-02  0.1130116E+00
         25   -1    0    0    0    0  0.00000000000E+00  0.00000000000E+00  0.99999998245E-14  0.12500000000E+03  0.12500000000E+03 0.  0.
        -13    1    3    3    0    0  0.25263766905E+02  0.29314814132E+02  0.51817907731E+01  0.39044568962E+02  0.10566000000E+00 0. -1.
         23    2    1    0    0    0 -0.86138433881E+01 -0.97275339066E+01  0.26910248174E+02  0.95117150895E+02  0.90301094809E+02 0.  0.
         13    1    3    3    0    0 -0.33877610293E+02 -0.39042348039E+02  0.21728457401E+02  0.56072581933E+02  0.10566000000E+00 0.  1.
         22    1    1    0    0    0  0.86138433881E+01  0.97275339066E+01 -0.26910248174E+02  0.29882849105E+02  0.00000000000E+00 0.  1.
</event>
<event>
 5    1  0.1751020E-003  0.9118800E+02  0.7818608E-02  0.1130116E+00
         25   -1    0    0    0    0  0.00000000000E+00  0.00000000000E+00  0.99999998245E-14  0.12500000000E+03  0.12500000000E+03 0.  0.
        -13    1    3    3    0    0  0.27743753522E+02 -0.15431618879E+02  0.21716604231E+02  0.38463915351E+02  0.10566000000E+00 0.  1.
         23    2    1    0    0    0 -0.33010257883E+01  0.29164443482E+02  0.94082170468E+01  0.94178317974E+02  0.88992019269E+02 0.  0.
         13    1    3    3    0    0 -0.31044779310E+02  0.44596062362E+02 -0.12308387185E+02  0.55714402624E+02  0.10566000000E+00 0. -1.
         22    1    1    0    0    0  0.33010257883E+01 -0.29164443482E+02 -0.94082170468E+01  0.30821682026E+02  0.00000000000E+00 0. -1.
</event>
<event>
 5    1  0.1751020E-003  0.9118800E+02  0.7818608E-02  0.1130116E+00
         25   -1    0    0    0    0  0.00000000000E+00  0.00000000000E+00  0.99999998245E-14  0.12500000000E+03  0.12500000000E+03 0.  0.
        -13    1    3    3    0    0  0.46031996264E+02 -0.19360864667E+02 -0.18993901328E+02  0.53428150000E+02  0.10566000000E+00 0.  1.
         23    2    1    0    0    0  0.27033285179E+01 -0.16853715254E+02 -0.22256286784E+02  0.96951862729E+02  0.92806064901E+02 0.  0.
         13    1    3    3    0    0 -0.43328667746E+02  0.25071494130E+01 -0.32623854559E+01  0.43523712729E+02  0.10566000000E+00 0. -1.
         22    1    1    0    0    0 -0.27033285179E+01  0.16853715254E+02  0.22256286784E+02  0.28048137271E+02  0.00000000000E+00 0.  1.
</event>
<event>
 5    1  0.1751020E-003  0.9118800E+02  0.7818608E-02  0.1130116E+00
         25   -1    0    0    0    0  0.00000000000E+00  0.00000000000E+00  0.99999998245E-14  0.12500000000E+03  0.12500000000E+03 0.  0.
        -13    1    3    3    0    0 -0.46972347692E+02 -0.22909541783E+02 -0.10982889693E+02  0.53403029712E+02  0.10566000000E+00 0.  1.
         23    2    1    0    0    0 -0.16825154265E+02  0.45126309886E+01 -0.23236634523E+02  0.95958807903E+02  0.91458744665E+02 0.  0.
         13    1    3    3    0    0  0.30147193427E+02  0.27422172771E+02 -0.12253744830E+02  0.42555778191E+02  0.10566000000E+00 0. -1.
         22    1    1    0    0    0  0.16825154265E+02 -0.45126309886E+01  0.23236634523E+02  0.29041192097E+02  0.00000000000E+00 0. -1.
</event>
<event>
 5    1  0.1751020E-003  0.9118800E+02  0.7818608E-02  0.1130116E+00
         25   -1    0    0    0    0  0.00000000000E+00  0.00000000000E+00  0.99999998245E-14  0.12500000000E+03  0.12500000000E+03 0.  0.
        -13    1    3    3    0    0  0.17118688244E+02 -0.39836728848E+02 -0.11606860130E+02  0.44885908910E+02  0.10566000000E+00 0.  1.
         23    2    1    0    0    0  0.29711927102E+02  0.49120409768E+01  0.54349130027E+01  0.94398283740E+02  0.89300453163E+02 0.  0.
         13    1    3    3    0    0  0.12593238858E+02  0.44748769825E+02  0.17041773133E+02  0.49512374830E+02  0.10566000000E+00 0. -1.
         22    1    1    0    0    0 -0.29711927102E+02 -0.49120409768E+01 -0.54349130027E+01  0.30601716260E+02  0.00000000000E+00 0. -1.
</event>
<event>
 5    1  0.1751020E-003  0.9118800E+02  0.7818608E-02  0.1130116E+00
         25   -1    0    0    0    0  0.00000000000E+00  0.00000000000E+00  0.99999998245E-14  0.12500000000E+03  0.12500000000E+03 0.  0.
        -13    1    3    3    0    0 -0.47424311683E+02  0.30889828158E+02 -0.25697248827E+02  0.62157916499E+02  0.10566000000E+00 0.  1.
         23    2    1    0    0    0 -0.24126167503E+02  0.10866903386E+02 -0.14287206962E+02  0.94928654331E+02  0.90039788886E+02 0.  0.
         13    1    3    3    0    0  0.23298144180E+02 -0.20022924772E+02  0.11410041865E+02  0.32770737831E+02  0.10566000000E+00 0. -1.
         22    1    1    0    0    0  0.24126167503E+02 -0.10866903386E+02  0.14287206962E+02  0.30071345669E+02  0.00000000000E+00 0.  1.
</event>
<event>
 5    1  0.1751020E-003  0.9118800E+02  0.7818608E-02  0.1130116E+00
         25   -1    0    0    0    0  0.00000000000E+00  0.00000000000E+00  0.99999998245E-14  0.12500000000E+03  0.12500000000E+03 0.  0.
        -13    1    3    3    0    0 -0.43281724192E+02  0.23514673888E+02  0.14803141141E+02  0.51433371353E+02  0.10566000000E+00 0. -1.
         23    2    1    0    0    0 -0.24574980348E+02 -0.10888706743E+02 -0.82594904427E+01  0.96880384497E+02  0.92709741259E+02 0.  0.
         13    1    3    3    0    0  0.18706743844E+02 -0.34403380631E+02 -0.23062631584E+02  0.45447013144E+02  0.10566000000E+00 0.  1.
         22    1    1    0    0    0  0.24574980348E+02  0.10888706743E+02  0.82594904427E+01  0.28119615503E+02  0.00000000000E+00 0. -1.
</event>
<event>
 5    1  0.1751020E-003  0.9118800E+02  0.7818608E-02  0.1130116E+00
         25   -1    0    0    0    0  0.00000000000E+00  0.00000000000E+00  0.99999998245E-14  0.12500000000E+03  0.12500000000E+03 0.  0.
        -13    1    3    3    0    0  0.24885867854E+02  0.41290357078E+02  0.34566357156E+02  0.59321532495E+02  0.10566000000E+00 0. -1.
         23    2    1    0    0    0  0.13592684232E+02  0.24157729354E+02  0.27993315187E+01  0.97139755759E+02  0.93058792921E+02 0.  0.
         13    1    3    3    0    0 -0.11293183622E+02 -0.17132627724E+02 -0.31767025637E+02  0.37818223265E+02  0.10566000000E+00 0.  1.
         22    1    1    0    0    0 -0.13592684232E+02 -0.24157729354E+02 -0.27993315187E+01  0.27860244241E+02  0.00000000000E+00 0. -1.
</event>
<event>
 5    1  0.1751020E-003  0.9118800E+02  0.7818608E-02  0.1130116E+00
         25   -1    0    0    0    0  0.00000000000E+00  0.00000000000E+00  0.99999998245E-14  0.12500000000E+03  0.12500000000E+03 0.  0.
        -13    1    3    3    0    0  0.35388019517E+02  0.15337899916E+02 -0.12003108314E+02  0.40393673668E+02  0.10566000000E+00 0.  1.
         23    2    1    0    0    0  0.90989553898E+01 -0.25103301070E+02  0.13634615836E+02  0.95018848208E+02  0.90164915859E+02 0.  0.
         13    1    3    3    0    0 -0.26289064127E+02 -0.40441200985E+02  0.25637724151E+02  0.54625174540E+02  0.10566000000E+00 0. -1.
         22    1    1    0    0    0 -0.90989553898E+01  0.25103301070E+02 -0.13634615836E+02  0.29981151792E+02  0.00000000000E+00 0. -1.
</event>
<event>
 5    1  0.1751020E-003  0.9118800E+02  0.7818608E-02  0.1130116E+00
         25   -1    0    0    0    0  0.00000000000E+00  0.00000000000E+00  0.99999998245E-14  0.12500000000E+03  0.12500000000E+03 0.  0.
        -13    1    3    3    0    0 -0.58879720075E+01 -0.37963269384E+02  0.12797778258E+02  0.40492867632E+02  0.10566000000E+00 0.  1.
         23    2    1    0    0    0  0.22571082695E+02  0.89875756530E+01  0.16676519751E+02  0.95532448334E+02  0.90874155201E+02 0.  0.
         13    1    3    3    0    0  0.28459054703E+02  0.46950845037E+02  0.38787414936E+01  0.55039580702E+02  0.10566000000E+00 0. -1.
         22    1    1    0    0    0 -0.22571082695E+02 -0.89875756530E+01 -0.16676519751E+02  0.29467551666E+02  0.00000000000E+00 0. -1.
</event>
<event>
 5    1  0.1751020E-003  0.9118800E+02  0.7818608E-02  0.1130116E+00
         25   -1    0    0    0    0  0.00000000000E+00  0.00000000000E+00  0.99999998245E-14  0.12500000000E+03  0.12500000000E+03 0.  0.
        -13    1    3    3    0    0  0.29762750386E+01  0.48764368834E+01  0.52444574561E+02  0.52754927871E+02  0.10566000000E+00 0.  1.
         23    2    1    0    0    0 -0.15285963543E+02 -0.15386191094E+02  0.17220868274E+02  0.97306068139E+02  0.93281922336E+02 0.  0.
         13    1    3    3    0    0 -0.18262238582E+02 -0.20262627977E+02 -0.35223706286E+02  0.44551140268E+02  0.10566000000E+00 0. -1.
         22    1    1    0    0    0  0.15285963543E+02  0.15386191094E+02 -0.17220868274E+02  0.27693931861E+02  0.00000000000E+00 0. -1.
</event>
<event>
 5    1  0.1751020E-003  0.9118800E+02  0.7818608E-02  0.1130116E+00
         25   -1    0    0    0    0  0.00000000000E+00  0.00000000000E+00  0.99999998245E-14  0.12500000000E+03  0.12500000000E+03 0.  0.
        -13    1    3    3    0    0  0.32256516365E+02  0.52071124043E+02  0.25729982643E+01  0.61306739363E+02  0.10566000000E+00 0. -1.
         23    2    1    0    0    0  0.23761662995E+02  0.39991124743E+02 -0.55346138987E+01  0.78154096898E+02  0.62558166728E+02 0.  0.
         13    1    3    3    0    0 -0.84948533709E+01 -0.12079999300E+02 -0.81076121630E+01  0.16847357535E+02  0.10566000000E+00 0.  1.
         22    1    1    0    0    0 -0.23761662995E+02 -0.39991124743E+02  0.55346138987E+01  0.46845903102E+02  0.00000000000E+00 0. -1.
</event>
<event>
 5    1  0.1751020E-003  0.9118800E+02  0.7818608E-02  0.1130116E+00
         25   -1    0    0    0    0  0.00000000000E+00  0.00000000000E+00  0.99999998245E-14  0.12500000000E+03  0.12500000000E+03 0.  0.
        -13    1    3    3    0    0 -0.30525348420E+01 -0.10553434129E+02 -0.45823334796E+02  0.47121991859E+02  0.10566000000E+00 0. -1.
         23    2    1    0    0    0  0.71787797735E+01  0.24782390133E+02 -0.14725465918E+02  0.95292406927E+02  0.90543369341E+02 0.  0.
         13    1    3    3    0    0  0.10231314615E+02  0.35335824262E+02  0.31097868878E+02  0.48170415068E+02  0.10566000000E+00 0.  1.
         22    1    1    0    0    0 -0.71787797735E+01 -0.24782390133E+02  0.14725465918E+02  0.29707593073E+02  0.00000000000E+00 0. -1.
</event>
<event>
 5    1  0.1751020E-003  0.9118800E+02  0.7818608E-02  0.1130116E+00
         25   -1    0    0    0    0  0.00000000000E+00  0.00000000000E+00  0.99999998245E-14  0.12500000000E+03  0.12500000000E+03 0.  0.
        -13    1    3    3    0    0 -0.41025255349E+02  0.24459481370E+02  0.13717467910E+02  0.49694244085E+02  0.10566000000E+00 0. -1.
         23    2    1    0    0    0  0.25979608067E+01  0.13137320333E+02  0.25429438622E+02  0.96259872399E+02  0.91869299005E+02 0.  0.
         13    1    3    3    0    0  0.43623216155E+02 -0.11322161036E+02  0.11711970712E+02  0.46565628314E+02  0.10566000000E+00 0.  1.
         22    1    1    0    0    0 -0.25979608067E+01 -0.13137320333E+02 -0.25429438622E+02  0.28740127601E+02  0.00000000000E+00 0. -1.
</event>
<event>
 5    1  0.1751020E-003  0.9118800E+02  0.7818608E-02  0.1130116E+00
         25   -1    0    0    0    0  0.00000000000E+00  0.00000000000E+00  0.99999998245E-14  0.12500000000E+03  0.12500000000E+03 0.  0.
        -13    1    3    3    0    0 -0.12777097513E+02  0.30204540784E+02 -0.22155510708E+02  0.39578356757E+02  0.10566000000E+00 0. -1.
         23    2    1    0    0    0 -0.21975815845E+02 -0.16879126302E+02  0.78954228988E+01  0.96187171441E+02  0.91770326688E+02 0.  0.
         13    1    3    3    0    0 -0.91987183319E+01 -0.47083667087E+02  0.30050933606E+02  0.56608814684E+02  0.10566000000E+00 0.  1.
         22    1    1    0    0    0  0.21975815845E+02  0.16879126302E+02 -0.78954228988E+01  0.28812828559E+02  0.00000000000E+00 0.  1.
</event>
<event>
 5    1  0.1751020E-003  0.9118800E+02  0.7818608E-02  0.1130116E+00
         25   -1    0    0    0    0  0.00000000000E+00  0.00000000000E+00  0.99999998245E-14  0.12500000000E+03  0.12500000000E+03 0.  0.
        -13    1    3    3    0    0 -0.52586166524E+02  0.10030793258E+02 -0.31382611477E+02  0.62054824069E+02  0.10566000000E+00 0.  1.
         23    2    1    0    0    0 -0.22871957617E+02  0.73439684044E+01 -0.19059794631E+02  0.94335100056E+02  0.89211966765E+02 0.  0.
         13    1    3    3    0    0  0.29714208907E+02 -0.26868248536E+01  0.12322816846E+02  0.32280275987E+02  0.10566000000E+00 0. -1.
         22    1    1    0    0    0  0.22871957617E+02 -0.73439684044E+01  0.19059794631E+02  0.30664899944E+02  0.00000000000E+00 0.  1.
</event>
<event>
 5    1  0.1751020E-003  0.9118800E+02  0.7818608E-02  0.1130116E+00
         25   -1    0    0    0    0  0.00000000000E+00  0.00000000000E+00  0.99999998245E-14  0.12500000000E+03  0.12500000000E+03 0.  0.
        -13    1    3    3    0    0  0.30275410610E+02 -0.12051000803E+02  0.37594521067E+02  0.49751244067E+02  0.10566000000E+00 0.  1.
         23    2    1    0    0    0 -0.72895272183E+01  0.11339486643E+02  0.26338066453E+02  0.95412588676E+02  0.90709134981E+02 0.  0.
         13    1    3    3    0    0 -0.37564937828E+02  0.23390487446E+02 -0.11256454614E+02  0.45661344609E+02  0.10566000000E+00 0. -1.
         22    1    1    0    0    0  0.72895272183E+01 -0.11339486643E+02 -0.26338066453E+02  0.29587411324E+02  0.00000000000E+00 0.  1.
</event>
<event>
 5    1  0.1751020E-003  0.9118800E+02  0.7818608E-02  0.1130116E+00
         25   -1    0    0    0    0  0.00000000000E+00  0.00000000000E+00  0.99999998245E-14  0.12500000000E+03  0.12500000000E+03 0.  0.
        -13    1    3    3    0    0 -0.29752487438E+02 -0.88502588285E+01  0.16992405469E+02  0.35387718177E+02  0.10566000000E+00 0. -1.
         23    2    1    0    0    0  0.18594858941E+02 -0.36668590671E+01 -0.20717288572E+02  0.96921170248E+02  0.92764716147E+02 0.  0.
         13    1    3    3    0    0  0.48347346380E+02  0.51833997613E+01 -0.37709694041E+02  0.61533452071E+02  0.10566000000E+00 0.  1.
         22    1    1    0    0    0 -0.18594858941E+02  0.36668590671E+01  0.20717288572E+02  0.28078829752E+02  0.00000000000E+00 0.  1.
</event>
<event>
 5    1  0.1751020E-003  0.9118800E+02  0.7818608E-02  0.1130116E+00
         25   -1    0    0    0    0  0.00000000000E+00  0.00000000000E+00  0.99999998245E-14  0.12500000000E+03  0.12500000000E+03 0.  0.
        -13    1    3    3    0    0  0.33507434584E+02  0.24891822097E+02  0.93435823304E+01  0.42774579770E+02  0.10566000000E+00 0. -1.
         23    2    1    0    0    0 -0.33088625754E+01 -0.10172944483E+02  0.26490597361E+02  0.96430976223E+02  0.92101813531E+02 0.  0.
         13    1    3    3    0    0 -0.36816297159E+02 -0.35064766580E+02  0.17147015031E+02  0.53656396453E+02  0.10566000000E+00 0.  1.
         22    1    1    0    0    0  0.33088625754E+01  0.10172944483E+02 -0.26490597361E+02  0.28569023777E+02  0.00000000000E+00 0.  1.
</event>
<event>
 5    1  0.1751020E-003  0.9118800E+02  0.7818608E-02  0.1130116E+00
         25   -1    0    0    0    0  0.00000000000E+00  0.00000000000E+00  0.99999998245E-14  0.12500000000E+03  0.12500000000E+03 0.  0.
        -13    1    3    3    0    0 -0.85651139013E+01  0.22419188668E+01  0.37497719420E+02  0.38528917738E+02  0.10566000000E+00 0. -1.
         23    2    1    0    0    0 -0.17582111107E+02 -0.13597213936E+02 -0.17654799435E+02  0.96615025085E+02  0.92351265673E+02 0.  0.
         13    1    3    3    0    0 -0.90169972059E+01 -0.15839132803E+02 -0.55152518856E+02  0.58086107347E+02  0.10566000000E+00 0.  1.
         22    1    1    0    0    0  0.17582111107E+02  0.13597213936E+02  0.17654799435E+02  0.28384974915E+02  0.00000000000E+00 0. -1.
</event>
<event>
 5    1  0.1751020E-003  0.9118800E+02  0.7818608E-02  0.1130116E+00
         25   -1    0    0    0    0  0.00000000000E+00  0.00000000000E+00  0.99999998245E-14  0.12500000000E+03  0.12500000000E+03 0.  0.
        -13    1    3    3    0    0 -0.33594549656E+02 -0.10781546579E+02  0.57471960576E+01  0.35747404658E+02  0.10566000000E+00 0.  1.
         23    2    1    0    0    0  0.14546507038E+02  0.24458895611E+02  0.79612867440E+01  0.95449694957E+02  0.90760254182E+02 0.  0.
         13    1    3    3    0    0  0.48141056694E+02  0.35240442190E+02  0.22140906863E+01  0.59702290299E+02  0.10566000000E+00 0. -1.
         22    1    1    0    0    0 -0.14546507038E+02 -0.24458895611E+02 -0.79612867440E+01  0.29550305043E+02  0.00000000000E+00 0. -1.
</event>
<event>
 5    1  0.1751020E-003  0.9118800E+02  0.7818608E-02  0.1130116E+00
         25   -1    0    0    0    0  0.00000000000E+00  0.00000000000E+00  0.99999998245E-14  0.12500000000E+03  0.12500000000E+03 0.  0.
        -13    1    3    3    0    0  0.14568961282E+02 -0.98774887028E+01 -0.54683120374E+02  0.57446272584E+02  0.10566000000E+00 0.  1.
         23    2    1    0    0    0 -0.95167059231E+01  0.21024412412E+01 -0.28067204433E+02  0.95288791416E+02  0.90538377797E+02 0.  0.
         13    1    3    3    0    0 -0.24085667205E+02  0.11979929944E+02  0.26615915941E+02  0.37842518832E+02  0.10566000000E+00 0. -1.
         22    1    1    0    0    0  0.95167059231E+01 -0.21024412412E+01  0.28067204433E+02  0.29711208584E+02  0.00000000000E+00 0. -1.
</event>
<event>
 5    1  0.1751020E-003  0.9118800E+02  0.7818608E-02  0.1130116E+00
         25   -1    0    0    0    0  0.00000000000E+00  0.00000000000E+00  0.99999998245E-14  0.12500000000E+03  0.12500000000E+03 0.  0.
        -13    1    3    3    0    0  0.25469552481E+02  0.70687116469E+01  0.54287321750E+02  0.60380371436E+02  0.10566000000E+00 0.  1.
         23    2    1    0    0    0  0.20145378699E+01  0.10148318686E+02  0.24399595393E+02  0.98497415403E+02  0.94864924238E+02 0.  0.
         13    1    3    3    0    0 -0.23455014611E+02  0.30796070387E+01 -0.29887726357E+02  0.38117043967E+02  0.10566000000E+00 0. -1.
         22    1    1    0    0    0 -0.20145378699E+01 -0.10148318686E+02 -0.24399595393E+02  0.26502584597E+02  0.00000000000E+00 0.  1.
</event>
<event>
 5    1  0.1751020E-003  0.9118800E+02  0.7818608E-02  0.1130116E+00
         25   -1    0    0    0    0  0.00000000000E+00  0.00000000000E+00  0.99999998245E-14  0.12500000000E+03  0.12500000000E+03 0.  0.
        -13    1    3    3    0    0  0.34224223386E+02 -0.17313751786E+02  0.22589142308E+02  0.44512290230E+02  0.10566000000E+00 0. -1.
         23    2    1    0    0    0  0.11268446206E+02 -0.89297727849E+01 -0.23942938777E+02  0.97071823562E+02  0.92967499108E+02 0.  0.
         13    1    3    3    0    0 -0.22955777180E+02  0.83839790007E+01 -0.46532081086E+02  0.52559533331E+02  0.10566000000E+00 0.  1.
         22    1    1    0    0    0 -0.11268446206E+02  0.89297727849E+01  0.23942938777E+02  0.27928176438E+02  0.00000000000E+00 0.  1.
</event>
<event>
 5    1  0.1751020E-003  0.9118800E+02  0.7818608E-02  0.1130116E+00
         25   -1    0    0    0    0  0.00000000000E+00  0.00000000000E+00  0.99999998245E-14  0.12500000000E+03  0.12500000000E+03 0.  0.
        -13    1    3    3    0    0 -0.13956753590E+02  0.32753659356E+02  0.49656404355E+02  0.61101250638E+02  0.10566000000E+00 0.  1.
         23    2    1    0    0    0 -0.12797722098E+02  0.85326699682E+01  0.24730220778E+02  0.95876607900E+02  0.91346329838E+02 0.  0.
         13    1    3    3    0    0  0.11590314917E+01 -0.24220989388E+02 -0.24926183577E+02  0.34775357262E+02  0.10566000000E+00 0. -1.
         22    1    1    0    0    0  0.12797722098E+02 -0.85326699682E+01 -0.24730220778E+02  0.29123392100E+02  0.00000000000E+00 0.  1.
</event>
<event>
 5    1  0.1751020E-003  0.9118800E+02  0.7818608E-02  0.1130116E+00
         25   -1    0    0    0    0  0.00000000000E+00  0.00000000000E+00  0.99999998245E-14  0.12500000000E+03  0.12500000000E+03 0.  0.
        -13    1    3    3    0    0  0.60190089909E+01  0.24989573882E+02  0.44632606607E+02  0.51505223119E+02  0.10566000000E+00 0.  1.
         23    2    1    0    0    0  0.18835776579E+02  0.29766292706E+02  0.10552139024E+02  0.88228186082E+02  0.80200040652E+02 0.  0.
         13    1    3    3    0    0  0.12816767588E+02  0.47767188245E+01 -0.34080467582E+02  0.36722962963E+02  0.10566000000E+00 0. -1.
         22    1    1    0    0    0 -0.18835776579E+02 -0.29766292706E+02 -0.10552139024E+02  0.36771813918E+02  0.00000000000E+00 0.  1.
</event>
<event>
 5    1  0.1751020E-003  0.9118800E+02  0.7818608E-02  0.1130116E+00
         25   -1    0    0    0    0  0.00000000000E+00  0.00000000000E+00  0.99999998245E-14  0.12500000000E+03  0.12500000000E+03 0.  0.
        -13    1    3    3    0    0 -0.47558833433E+01 -0.28648872061E+02  0.26448050319E+02  0.39279598095E+02  0.10566000000E+00 0.  1.
         23    2    1    0    0    0  0.32926429238E+02 -0.15264610438E+01  0.14585442530E+01  0.92005952400E+02  0.85886483803E+02 0.  0.
         13    1    3    3    0    0  0.37682312581E+02  0.27122411017E+02 -0.24989506066E+02  0.52726354305E+02  0.10566000000E+00 0. -1.
         22    1    1    0    0    0 -0.32926429238E+02  0.15264610438E+01 -0.14585442530E+01  0.32994047600E+02  0.00000000000E+00 0.  1.
</event>
<event>
 5    1  0.1751020E-003  0.9118800E+02  0.7818608E-02  0.1130116E+00
         25   -1    0    0    0    0  0.00000000000E+00  0.00000000000E+00  0.99999998245E-14  0.12500000000E+03  0.12500000000E+03 0.  0.
        -13    1    3    3    0    0  0.46646914992E+01 -0.23660635010E+02  0.42127013218E+02  0.48541543059E+02  0.10566000000E+00 0.  1.
         23    2    1    0    0    0 -0.23662307202E+02 -0.17176642072E+02  0.55812658969E+01  0.95232696730E+02  0.90460898638E+02 0.  0.
         13    1    3    3    0    0 -0.28326998701E+02  0.64839929383E+01 -0.36545747321E+02  0.46691153671E+02  0.10566000000E+00 0. -1.
         22    1    1    0    0    0  0.23662307202E+02  0.17176642072E+02 -0.55812658969E+01  0.29767303270E+02  0.00000000000E+00 0.  1.
</event>
<event>
 5    1  0.1751020E-003  0.9118800E+02  0.7818608E-02  0.1130116E+00
         25   -1    0    0    0    0  0.00000000000E+00  0.00000000000E+00  0.99999998245E-14  0.12500000000E+03  0.12500000000E+03 0.  0.
        -13    1    3    3    0    0 -0.11396775234E+02 -0.17216917954E+02 -0.24187939895E+02  0.31802143795E+02  0.10566000000E+00 0.  1.
         23    2    1    0    0    0  0.64101175387E+01  0.33912926623E+02 -0.16519843046E+01  0.90447065954E+02  0.83586879883E+02 0.  0.
         13    1    3    3    0    0  0.17806892772E+02  0.51129844577E+02  0.22535955590E+02  0.58644922159E+02  0.10566000000E+00 0. -1.
         22    1    1    0    0    0 -0.64101175387E+01 -0.33912926623E+02  0.16519843046E+01  0.34552934046E+02  0.00000000000E+00 0. -1.
</event>
<event>
 5    1  0.1751020E-003  0.9118800E+02  0.7818608E-02  0.1130116E+00
         25   -1    0    0    0    0  0.00000000000E+00  0.00000000000E+00  0.99999998245E-14  0.12500000000E+03  0.12500000000E+03 0.  0.
        -13    1    3    3    0    0 -0.26801902827E+02 -0.27308041315E+02 -0.32350558839E+02  0.50106296379E+02  0.10566000000E+00 0. -1.
         23    2    1    0    0    0 -0.28923222703E+02  0.27391572841E+01  0.21036206710E+01  0.95871302568E+02  0.91339069636E+02 0.  0.
         13    1    3    3    0    0 -0.21213198763E+01  0.30047198599E+02  0.34454179510E+02  0.45765006188E+02  0.10566000000E+00 0.  1.
         22    1    1    0    0    0  0.28923222703E+02 -0.27391572841E+01 -0.21036206710E+01  0.29128697432E+02  0.00000000000E+00 0. -1.
</event>
<event>
 5    1  0.1751020E-003  0.9118800E+02  0.7818608E-02  0.1130116E+00
         25   -1    0    0    0    0  0.00000000000E+00  0.00000000000E+00  0.99999998245E-14  0.12500000000E+03  0.12500000000E+03 0.  0.
        -13    1    3    3    0    0 -0.71794503852E+01  0.17138052922E+02  0.45396574373E+02  0.49052191538E+02  0.10566000000E+00 0. -1.
         23    2    1    0    0    0 -0.15115078318E+02  0.25948642741E+02  0.10554445455E+01  0.94951512253E+02  0.90071516382E+02 0.  0.
         13    1    3    3    0    0 -0.79356279331E+01  0.88105898189E+01 -0.44341129828E+02  0.45899320715E+02  0.10566000000E+00 0.  1.
         22    1    1    0    0    0  0.15115078318E+02 -0.25948642741E+02 -0.10554445455E+01  0.30048487747E+02  0.00000000000E+00 0. -1.
</event>
<event>
 5    1  0.1751020E-003  0.9118800E+02  0.7818608E-02  0.1130116E+00
         25   -1    0    0    0    0  0.00000000000E+00  0.00000000000E+00  0.99999998245E-14  0.12500000000E+03  0.12500000000E+03 0.  0.
        -13    1    3    3    0    0 -0.13735059235E+02 -0.25579554733E+02  0.55120551410E+02  0.62299693614E+02  0.10566000000E+00 0.  1.
         23    2    1    0    0    0 -0.56215238457E+01 -0.85225492270E+01  0.26600401158E+02  0.96507602462E+02  0.92205751532E+02 0.  0.
         13    1    3    3    0    0  0.81135353890E+01  0.17057005506E+02 -0.28520150252E+02  0.34207908848E+02  0.10566000000E+00 0. -1.
         22    1    1    0    0    0  0.56215238457E+01  0.85225492270E+01 -0.26600401158E+02  0.28492397538E+02  0.00000000000E+00 0.  1.
</event>
<event>
 5    1  0.1751020E-003  0.9118800E+02  0.7818608E-02  0.1130116E+00
         25   -1    0    0    0    0  0.00000000000E+00  0.00000000000E+00  0.99999998245E-14  0.12500000000E+03  0.12500000000E+03 0.  0.
        -13    1    3    3    0    0  0.17075449613E+02  0.49499288683E+01  0.49528867961E+02  0.52623119451E+02  0.10566000000E+00 0.  1.
         23    2    1    0    0    0  0.24907536857E+02  0.77708591587E+01  0.43675687175E+01  0.98545372790E+02  0.94928094879E+02 0.  0.
         13    1    3    3    0    0  0.78320872436E+01  0.28209302904E+01 -0.45161299243E+02  0.45922253338E+02  0.10566000000E+00 0. -1.
         22    1    1    0    0    0 -0.24907536857E+02 -0.77708591587E+01 -0.43675687175E+01  0.26454627210E+02  0.00000000000E+00 0.  1.
</event>
<event>
 5    1  0.1751020E-003  0.9118800E+02  0.7818608E-02  0.1130116E+00
         25   -1    0    0    0    0  0.00000000000E+00  0.00000000000E+00  0.99999998245E-14  0.12500000000E+03  0.12500000000E+03 0.  0.
        -13    1    3    3    0    0  0.18117393418E+02  0.30637116004E+02 -0.28977747813E+02  0.45897645404E+02  0.10566000000E+00 0.  1.
         23    2    1    0    0    0  0.25920856769E+02 -0.13015960874E+02 -0.82749503953E+01  0.94837426218E+02  0.89913049968E+02 0.  0.
         13    1    3    3    0    0  0.78034633513E+01 -0.43653076878E+02  0.20702797417E+02  0.48939780814E+02  0.10566000000E+00 0. -1.
         22    1    1    0    0    0 -0.25920856769E+02  0.13015960874E+02  0.82749503953E+01  0.30162573782E+02  0.00000000000E+00 0.  1.
</event>
<event>
 5    1  0.1751020E-003  0.9118800E+02  0.7818608E-02  0.1130116E+00
         25   -1    0    0    0    0  0.00000000000E+00  0.00000000000E+00  0.99999998245E-14  0.12500000000E+03  0.12500000000E+03 0.  0.
        -13    1    3    3    0    0 -0.27966738227E+02  0.36510753987E+01  0.28584158907E+02  0.40156370641E+02  0.10566000000E+00 0.  1.
         23    2    1    0    0    0 -0.14451256306E+02 -0.13901959836E+02 -0.21911411182E+02  0.95297925391E+02  0.90550987557E+02 0.  0.
         13    1    3    3    0    0  0.13515481921E+02 -0.17553035235E+02 -0.50495570089E+02  0.55141554749E+02  0.10566000000E+00 0. -1.
         22    1    1    0    0    0  0.14451256306E+02  0.13901959836E+02  0.21911411182E+02  0.29702074609E+02  0.00000000000E+00 0. -1.
</event>
<event>
 5    1  0.1751020E-003  0.9118800E+02  0.7818608E-02  0.1130116E+00
         25   -1    0    0    0    0  0.00000000000E+00  0.00000000000E+00  0.99999998245E-14  0.12500000000E+03  0.12500000000E+03 0.  0.
        -13    1    3    3    0    0  0.87524968569E+01 -0.25403982762E+02  0.47397271493E+02  0.54483768688E+02  0.10566000000E+00 0.  1.
         23    2    1    0    0    0 -0.14928488300E+02 -0.20843292763E+02  0.13672270490E+02  0.95944301825E+02  0.91438916530E+02 0.  0.
         13    1    3    3    0    0 -0.23680985157E+02  0.45606899993E+01 -0.33725001003E+02  0.41460533137E+02  0.10566000000E+00 0. -1.
         22    1    1    0    0    0  0.14928488300E+02  0.20843292763E+02 -0.13672270490E+02  0.29055698175E+02  0.00000000000E+00 0.  1.
</event>
<event>
 5    1  0.1751020E-003  0.9118800E+02  0.7818608E-02  0.1130116E+00
         25   -1    0    0    0    0  0.00000000000E+00  0.00000000000E+00  0.99999998245E-14  0.12500000000E+03  0.12500000000E+03 0.  0.
        -13    1    3    3    0    0 -0.19360579844E+02 -0.77928670653E+01  0.28303791773E+02  0.35166413263E+02  0.10566000000E+00 0.  1.
         23    2    1    0    0    0  0.28440224686E+02  0.18248343672E+01 -0.73482289284E+01  0.95569185043E+02  0.90924673553E+02 0.  0.
         13    1    3    3    0    0  0.47800804531E+02  0.96177014325E+01 -0.35652020701E+02  0.60402771780E+02  0.10566000000E+00 0. -1.
         22    1    1    0    0    0 -0.28440224686E+02 -0.18248343672E+01  0.73482289284E+01  0.29430814957E+02  0.00000000000E+00 0. -1.
</event>
<event>
 5    1  0.1751020E-003  0.9118800E+02  0.7818608E-02  0.1130116E+00
         25   -1    0    0    0    0  0.00000000000E+00  0.00000000000E+00  0.99999998245E-14  0.12500000000E+03  0.12500000000E+03 0.  0.
        -13    1    3    3    0    0  0.20124615848E+02  0.15590596300E+01  0.57277963260E+02  0.60730610644E+02  0.10566000000E+00 0.  1.
         23    2    1    0    0    0  0.78379434267E+01  0.11089303739E+02  0.25469623669E+02  0.96136394120E+02  0.91701137016E+02 0.  0.
         13    1    3    3    0    0 -0.12286672422E+02  0.95302441093E+01 -0.31808339591E+02  0.35405783476E+02  0.10566000000E+00 0. -1.
         22    1    1    0    0    0 -0.78379434267E+01 -0.11089303739E+02 -0.25469623669E+02  0.28863605880E+02  0.00000000000E+00 0.  1.
</event>
<event>
 5    1  0.1751020E-003  0.9118800E+02  0.7818608E-02  0.1130116E+00
         25   -1    0    0    0    0  0.00000000000E+00  0.00000000000E+00  0.99999998245E-14  0.12500000000E+03  0.12500000000E+03 0.  0.
        -13    1    3    3    0    0  0.27455966104E+02 -0.20960829246E+02  0.19354003336E+02  0.39595139178E+02  0.10566000000E+00 0.  1.
         23    2    1    0    0    0  0.17649774555E+02  0.22478912289E+02 -0.11942258491E+02  0.94025275184E+02  0.88776791990E+02 0.  0.
         13    1    3    3    0    0 -0.98061915492E+01  0.43439741535E+02 -0.31296261827E+02  0.54430136006E+02  0.10566000000E+00 0. -1.
         22    1    1    0    0    0 -0.17649774555E+02 -0.22478912289E+02  0.11942258491E+02  0.30974724816E+02  0.00000000000E+00 0. -1.
</event>
<event>
 5    1  0.1751020E-003  0.9118800E+02  0.7818608E-02  0.1130116E+00
         25   -1    0    0    0    0  0.00000000000E+00  0.00000000000E+00  0.99999998245E-14  0.12500000000E+03  0.12500000000E+03 0.  0.
        -13    1    3    3    0    0 -0.25596602922E+02 -0.11935428015E+02 -0.22912405129E+02  0.36367980366E+02  0.10566000000E+00 0.  1.
         23    2    1    0    0    0  0.15553664558E+01  0.10172966070E+02  0.26295722893E+02  0.96762198281E+02  0.92550254296E+02 0.  0.
         13    1    3    3    0    0  0.27151969377E+02  0.22108394084E+02  0.49208128023E+02  0.60394217915E+02  0.10566000000E+00 0. -1.
         22    1    1    0    0    0 -0.15553664558E+01 -0.10172966070E+02 -0.26295722893E+02  0.28237801719E+02  0.00000000000E+00 0. -1.
</event>
<event>
 5    1  0.1751020E-003  0.9118800E+02  0.7818608E-02  0.1130116E+00
         25   -1    0    0    0    0  0.00000000000E+00  0.00000000000E+00  0.99999998245E-14  0.12500000000E+03  0.12500000000E+03 0.  0.
        -13    1    3    3    0    0  0.34066579946E+02  0.50510138029E+02  0.13356512148E+02  0.62371576008E+02  0.10566000000E+00 0.  1.
         23    2    1    0    0    0  0.12227754251E+02  0.23131806260E+02  0.55269056121E+01  0.98257802623E+02  0.94548668187E+02 0.  0.
         13    1    3    3    0    0 -0.21838825695E+02 -0.27378331768E+02 -0.78296065359E+01  0.35886226616E+02  0.10566000000E+00 0. -1.
         22    1    1    0    0    0 -0.12227754251E+02 -0.23131806260E+02 -0.55269056121E+01  0.26742197377E+02  0.00000000000E+00 0.  1.
</event>
<event>
 5    1  0.1751020E-003  0.9118800E+02  0.7818608E-02  0.1130116E+00
         25   -1    0    0    0    0  0.00000000000E+00  0.00000000000E+00  0.99999998245E-14  0.12500000000E+03  0.12500000000E+03 0.  0.
        -13    1    3    3    0    0 -0.62106426351E+02  0.68797002138E+01  0.18707229095E+00  0.62486675613E+02  0.10566000000E+00 0. -1.
         23    2    1    0    0    0 -0.28587505569E+02  0.24856713249E+01 -0.51962992986E+00  0.96299929411E+02  0.91923785565E+02 0.  0.
         13    1    3    3    0    0  0.33518920782E+02 -0.43940288890E+01 -0.70670222082E+00  0.33813253797E+02  0.10566000000E+00 0.  1.
         22    1    1    0    0    0  0.28587505569E+02 -0.24856713249E+01  0.51962992986E+00  0.28700070589E+02  0.00000000000E+00 0. -1.
</event>
<event>
 5    1  0.1751020E-003  0.9118800E+02  0.7818608E-02  0.1130116E+00
         25   -1    0    0    0    0  0.00000000000E+00  0.00000000000E+00  0.99999998245E-14  0.12500000000E+03  0.12500000000E+03 0.  0.
        -13    1    3    3    0    0 -0.23140500599E+02  0.16402159046E+02 -0.19080479431E+02  0.34184637612E+02  0.10566000000E+00 0.  1.
         23    2    1    0    0    0  0.25789412202E+02  0.13711955890E+02  0.13285545456E+02  0.92912350754E+02  0.87195686180E+02 0.  0.
         13    1    3    3    0    0  0.48929912801E+02 -0.26902031553E+01  0.32366024888E+02  0.58727713141E+02  0.10566000000E+00 0. -1.
         22    1    1    0    0    0 -0.25789412202E+02 -0.13711955890E+02 -0.13285545456E+02  0.32087649246E+02  0.00000000000E+00 0. -1.
</event>
<event>
 5    1  0.1751020E-003  0.9118800E+02  0.7818608E-02  0.1130116E+00
         25   -1    0    0    0    0  0.00000000000E+00  0.00000000000E+00  0.99999998245E-14  0.12500000000E+03  0.12500000000E+03 0.  0.
        -13    1    3    3    0    0 -0.41359753701E+02 -0.25791648548E+02 -0.27315555457E+01  0.48819165507E+02  0.10566000000E+00 0.  1.
         23    2    1    0    0    0 -0.48788359567E+01 -0.82250622695E+01  0.25225004845E+02  0.98023055046E+02  0.94237804312E+02 0.  0.
         13    1    3    3    0    0  0.36480917744E+02  0.17566586278E+02  0.27956560390E+02  0.49203889540E+02  0.10566000000E+00 0. -1.
         22    1    1    0    0    0  0.48788359567E+01  0.82250622695E+01 -0.25225004845E+02  0.26976944954E+02  0.00000000000E+00 0. -1.
</event>
<event>
 5    1  0.1751020E-003  0.9118800E+02  0.7818608E-02  0.1130116E+00
         25   -1    0    0    0    0  0.00000000000E+00  0.00000000000E+00  0.99999998245E-14  0.12500000000E+03  0.12500000000E+03 0.  0.
        -13    1    3    3    0    0  0.13932882515E+02 -0.56812350985E+00  0.30466141970E+02  0.33505894259E+02  0.10566000000E+00 0.  1.
         23    2    1    0    0    0 -0.67340534144E+01 -0.17064831136E+02 -0.24435628526E+02  0.94444216938E+02  0.89364725896E+02 0.  0.
         13    1    3    3    0    0 -0.20666935930E+02 -0.16496707626E+02 -0.54901770496E+02  0.60938322679E+02  0.10566000000E+00 0. -1.
         22    1    1    0    0    0  0.67340534144E+01  0.17064831136E+02  0.24435628526E+02  0.30555783062E+02  0.00000000000E+00 0. -1.
</event>
<event>
 5    1  0.1751020E-003  0.9118800E+02  0.7818608E-02  0.1130116E+00
         25   -1    0    0    0    0  0.00000000000E+00  0.00000000000E+00  0.99999998245E-14  0.12500000000E+03  0.12500000000E+03 0.  0.
        -13    1    3    3    0    0  0.13158094615E+02 -0.59189876248E+01 -0.34276291821E+02  0.37189315850E+02  0.10566000000E+00 0.  1.
         23    2    1    0    0    0 -0.70700866441E+00 -0.14268134346E+02  0.23669787464E+02  0.97353330082E+02  0.93345232982E+02 0.  0.
         13    1    3    3    0    0 -0.13865103279E+02 -0.83491467210E+01  0.57946079285E+02  0.60164014232E+02  0.10566000000E+00 0. -1.
         22    1    1    0    0    0  0.70700866441E+00  0.14268134346E+02 -0.23669787464E+02  0.27646669918E+02  0.00000000000E+00 0. -1.
</event>
<event>
 5    1  0.1751020E-003  0.9118800E+02  0.7818608E-02  0.1130116E+00
         25   -1    0    0    0    0  0.00000000000E+00  0.00000000000E+00  0.99999998245E-14  0.12500000000E+03  0.12500000000E+03 0.  0.
        -13    1    3    3    0    0  0.15054510428E+01  0.35988786470E+02 -0.50126321178E+02  0.61726156314E+02  0.10566000000E+00 0. -1.
         23    2    1    0    0    0  0.93806619841E+00  0.22516941629E+02 -0.19466398645E+02  0.95220253448E+02  0.90443702722E+02 0.  0.
         13    1    3    3    0    0 -0.56738484435E+00 -0.13471844841E+02  0.30659922534E+02  0.33494097134E+02  0.10566000000E+00 0.  1.
         22    1    1    0    0    0 -0.93806619841E+00 -0.22516941629E+02  0.19466398645E+02  0.29779746552E+02  0.00000000000E+00 0. -1.
</event>
<event>
 5    1  0.1751020E-003  0.9118800E+02  0.7818608E-02  0.1130116E+00
         25   -1    0    0    0    0  0.00000000000E+00  0.00000000000E+00  0.99999998245E-14  0.12500000000E+03  0.12500000000E+03 0.  0.
        -13    1    3    3    0    0 -0.77116260689E+01 -0.34177936638E+02  0.26466955570E+02  0.43910265663E+02  0.10566000000E+00 0. -1.
         23    2    1    0    0    0  0.14494240057E+02 -0.18659738561E+02 -0.17530298668E+02  0.95579255458E+02  0.90938516947E+02 0.  0.
         13    1    3    3    0    0  0.22205866126E+02  0.15518198076E+02 -0.43997254238E+02  0.51668989795E+02  0.10566000000E+00 0.  1.
         22    1    1    0    0    0 -0.14494240057E+02  0.18659738561E+02  0.17530298668E+02  0.29420744542E+02  0.00000000000E+00 0. -1.
</event>
<event>
 5    1  0.1751020E-003  0.9118800E+02  0.7818608E-02  0.1130116E+00
         25   -1    0    0    0    0  0.00000000000E+00  0.00000000000E+00  0.99999998245E-14  0.12500000000E+03  0.12500000000E+03 0.  0.
        -13    1    3    3    0    0  0.20062473924E+01  0.40017381548E+02 -0.17454531348E+02  0.43704549914E+02  0.10566000000E+00 0. -1.
         23    2    1    0    0    0  0.26793587890E+02 -0.51931901440E+01 -0.10615344295E+02  0.95716026390E+02  0.91126322199E+02 0.  0.
         13    1    3    3    0    0  0.24787340498E+02 -0.45210571692E+02  0.68391870527E+01  0.52011476476E+02  0.10566000000E+00 0.  1.
         22    1    1    0    0    0 -0.26793587890E+02  0.51931901440E+01  0.10615344295E+02  0.29283973610E+02  0.00000000000E+00 0.  1.
</event>
<event>
 4    1  0.1751020E-003  0.9118800E+02  0.7818608E-02  0.1130116E+00
         25   -1    0    0    0    0  0.00000000000E+00  0.00000000000E+00  0.99999998245E-14  0.12500000000E+03  0.12500000000E+03 0.  0.
        -13    1    1    0    0    0 -0.46713368328E+01  0.61383133648E+01 -0.30869538911E+02  0.31818860373E+02  0.10566000000E+00 0. -1.
         13    1    1    0    0    0  0.28785734435E+02 -0.17556778980E+02 -0.17464332703E+02  0.37972003844E+02  0.10566000000E+00 0.  1.
         22    1    1    0    0    0 -0.24114397603E+02  0.11418465615E+02  0.48333871614E+02  0.55209135783E+02  0.00000000000E+00 0.  1.
</event>
<event>
 5    1  0.1751020E-003  0.9118800E+02  0.7818608E-02  0.1130116E+00
         25   -1    0    0    0    0  0.00000000000E+00  0.00000000000E+00  0.99999998245E-14  0.12500000000E+03  0.12500000000E+03 0.  0.
        -13    1    3    3    0    0 -0.36264336823E+02 -0.41174773448E+02  0.21638557665E+02  0.58980525901E+02  0.10566000000E+00 0. -1.
         23    2    1    0    0    0 -0.55426665563E+01 -0.21095834323E+02  0.19497053149E+02  0.95744394387E+02  0.91165226905E+02 0.  0.
         13    1    3    3    0    0  0.30721670267E+02  0.20078939125E+02 -0.21415045166E+01  0.36763868485E+02  0.10566000000E+00 0.  1.
         22    1    1    0    0    0  0.55426665563E+01  0.21095834323E+02 -0.19497053149E+02  0.29255605613E+02  0.00000000000E+00 0. -1.
</event>
<event>
 5    1  0.1751020E-003  0.9118800E+02  0.7818608E-02  0.1130116E+00
         25   -1    0    0    0    0  0.00000000000E+00  0.00000000000E+00  0.99999998245E-14  0.12500000000E+03  0.12500000000E+03 0.  0.
        -13    1    3    3    0    0  0.30036929771E+02  0.99673773878E+01 -0.45914319721E+02  0.55764699241E+02  0.10566000000E+00 0.  1.
         23    2    1    0    0    0  0.24097886987E+02 -0.11174608766E+02 -0.12762648324E+02  0.95530265855E+02  0.90871153089E+02 0.  0.
         13    1    3    3    0    0 -0.59390427832E+01 -0.21141986154E+02  0.33151671396E+02  0.39765566614E+02  0.10566000000E+00 0. -1.
         22    1    1    0    0    0 -0.24097886987E+02  0.11174608766E+02  0.12762648324E+02  0.29469734145E+02  0.00000000000E+00 0.  1.
</event>
<event>
 5    1  0.1751020E-003  0.9118800E+02  0.7818608E-02  0.1130116E+00
         25   -1    0    0    0    0  0.00000000000E+00  0.00000000000E+00  0.99999998245E-14  0.12500000000E+03  0.12500000000E+03 0.  0.
        -13    1    3    3    0    0 -0.47685449318E+02  0.15283045255E+02  0.21240132072E+01  0.50119817888E+02  0.10566000000E+00 0.  1.
         23    2    1    0    0    0 -0.60302263416E+01  0.18301781072E+02  0.21472772027E+02  0.96148678389E+02  0.91717880467E+02 0.  0.
         13    1    3    3    0    0  0.41655222977E+02  0.30187358174E+01  0.19348758820E+02  0.46028860502E+02  0.10566000000E+00 0. -1.
         22    1    1    0    0    0  0.60302263416E+01 -0.18301781072E+02 -0.21472772027E+02  0.28851321611E+02  0.00000000000E+00 0.  1.
</event>
<event>
 5    1  0.1751020E-003  0.9118800E+02  0.7818608E-02  0.1130116E+00
         25   -1    0    0    0    0  0.00000000000E+00  0.00000000000E+00  0.99999998245E-14  0.12500000000E+03  0.12500000000E+03 0.  0.
        -13    1    3    3    0    0  0.18780899157E+02 -0.29911302036E+02  0.50033165991E+02  0.61243261064E+02  0.10566000000E+00 0.  1.
         23    2    1    0    0    0  0.72873078253E+01 -0.24813952512E+02  0.26222602737E+02  0.88169822307E+02  0.80109023067E+02 0.  0.
         13    1    3    3    0    0 -0.11493591332E+02  0.50973495243E+01 -0.23810563254E+02  0.26926561243E+02  0.10566000000E+00 0. -1.
         22    1    1    0    0    0 -0.72873078253E+01  0.24813952512E+02 -0.26222602737E+02  0.36830177693E+02  0.00000000000E+00 0.  1.
</event>
<event>
 5    1  0.1751020E-003  0.9118800E+02  0.7818608E-02  0.1130116E+00
         25   -1    0    0    0    0  0.00000000000E+00  0.00000000000E+00  0.99999998245E-14  0.12500000000E+03  0.12500000000E+03 0.  0.
        -13    1    3    3    0    0 -0.39554942680E+02  0.16002466341E+02 -0.45636227997E+02  0.62476786804E+02  0.10566000000E+00 0.  1.
         23    2    1    0    0    0 -0.19974175153E+02  0.68479529231E+01 -0.22000479447E+02  0.94506013246E+02  0.89451122472E+02 0.  0.
         13    1    3    3    0    0  0.19580767528E+02 -0.91545134182E+01  0.23635748551E+02  0.32029226442E+02  0.10566000000E+00 0. -1.
         22    1    1    0    0    0  0.19974175153E+02 -0.68479529231E+01  0.22000479447E+02  0.30493986754E+02  0.00000000000E+00 0.  1.
</event>
<event>
 5    1  0.1751020E-003  0.9118800E+02  0.7818608E-02  0.1130116E+00
         25   -1    0    0    0    0  0.00000000000E+00  0.00000000000E+00  0.99999998245E-14  0.12500000000E+03  0.12500000000E+03 0.  0.
        -13    1    3    3    0    0  0.32053918270E+02  0.96654112494E+01  0.26818052062E+02  0.42896304404E+02  0.10566000000E+00 0.  1.
         23    2    1    0    0    0 -0.11044344487E+02  0.16071094793E+02 -0.12707571219E+02  0.10172469121E+03  0.99026121818E+02 0.  0.
         13    1    3    3    0    0 -0.43098262757E+02  0.64056835438E+01 -0.39525623281E+02  0.58828386806E+02  0.10566000000E+00 0. -1.
         22    1    1    0    0    0  0.11044344487E+02 -0.16071094793E+02  0.12707571219E+02  0.23275308790E+02  0.00000000000E+00 0. -1.
</event>
<event>
 5    1  0.1751020E-003  0.9118800E+02  0.7818608E-02  0.1130116E+00
         25   -1    0    0    0    0  0.00000000000E+00  0.00000000000E+00  0.99999998245E-14  0.12500000000E+03  0.12500000000E+03 0.  0.
        -13    1    3    3    0    0 -0.97545226469E+01  0.36261052754E+02 -0.39411196057E+02  0.54435909081E+02  0.10566000000E+00 0. -1.
         23    2    1    0    0    0  0.10445310897E+02  0.26178641907E+01 -0.27533304865E+02  0.95435822192E+02  0.90741145838E+02 0.  0.
         13    1    3    3    0    0  0.20199833544E+02 -0.33643188563E+02  0.11877891192E+02  0.40999913111E+02  0.10566000000E+00 0.  1.
         22    1    1    0    0    0 -0.10445310897E+02 -0.26178641907E+01  0.27533304865E+02  0.29564177808E+02  0.00000000000E+00 0.  1.
</event>
<event>
 5    1  0.1751020E-003  0.9118800E+02  0.7818608E-02  0.1130116E+00
         25   -1    0    0    0    0  0.00000000000E+00  0.00000000000E+00  0.99999998245E-14  0.12500000000E+03  0.12500000000E+03 0.  0.
        -13    1    3    3    0    0 -0.32266338226E+02 -0.39405614839E+02 -0.26338081989E+02  0.57337812918E+02  0.10566000000E+00 0. -1.
         23    2    1    0    0    0 -0.89146121685E+01 -0.30797399457E+02 -0.90027193587E+00  0.92925701676E+02  0.87214823390E+02 0.  0.
         13    1    3    3    0    0  0.23351726057E+02  0.86082153823E+01  0.25437810053E+02  0.35587888758E+02  0.10566000000E+00 0.  1.
         22    1    1    0    0    0  0.89146121685E+01  0.30797399457E+02  0.90027193587E+00  0.32074298324E+02  0.00000000000E+00 0. -1.
</event>
<event>
 5    1  0.1751020E-003  0.9118800E+02  0.7818608E-02  0.1130116E+00
         25   -1    0    0    0    0  0.00000000000E+00  0.00000000000E+00  0.99999998245E-14  0.12500000000E+03  0.12500000000E+03 0.  0.
        -13    1    3    3    0    0 -0.26942143250E+02 -0.55193155839E+01 -0.18057834731E+02  0.32900432925E+02  0.10566000000E+00 0. -1.
         23    2    1    0    0    0  0.26220700534E+02  0.11828893627E+02  0.87739345170E+01  0.94926260827E+02  0.90036465984E+02 0.  0.
         13    1    3    3    0    0  0.53162843784E+02  0.17348209211E+02  0.26831769248E+02  0.62025827903E+02  0.10566000000E+00 0.  1.
         22    1    1    0    0    0 -0.26220700534E+02 -0.11828893627E+02 -0.87739345170E+01  0.30073739173E+02  0.00000000000E+00 0.  1.
</event>
<event>
 5    1  0.1751020E-003  0.9118800E+02  0.7818608E-02  0.1130116E+00
         25   -1    0    0    0    0  0.00000000000E+00  0.00000000000E+00  0.99999998245E-14  0.12500000000E+03  0.12500000000E+03 0.  0.
        -13    1    3    3    0    0  0.77997811386E+01  0.91541022582E+01 -0.56162558350E+02  0.57435862477E+02  0.10566000000E+00 0.  1.
         23    2    1    0    0    0 -0.72372413704E+01 -0.92454224484E+01 -0.30026802387E+02  0.92759274814E+02  0.86975966241E+02 0.  0.
         13    1    3    3    0    0 -0.15037022509E+02 -0.18399524707E+02  0.26135755963E+02  0.35323412337E+02  0.10566000000E+00 0. -1.
         22    1    1    0    0    0  0.72372413704E+01  0.92454224484E+01  0.30026802387E+02  0.32240725186E+02  0.00000000000E+00 0. -1.
</event>
<event>
 5    1  0.1751020E-003  0.9118800E+02  0.7818608E-02  0.1130116E+00
         25   -1    0    0    0    0  0.00000000000E+00  0.00000000000E+00  0.99999998245E-14  0.12500000000E+03  0.12500000000E+03 0.  0.
        -13    1    3    3    0    0  0.37481291478E+02 -0.27769174243E+02  0.32200682916E+02  0.56682178798E+02  0.10566000000E+00 0.  1.
         23    2    1    0    0    0  0.16327377691E+02 -0.98629196509E+01 -0.69915944388E+01  0.10468392658E+03  0.10269363001E+03 0.  0.
         13    1    3    3    0    0 -0.21153913787E+02  0.17906254592E+02 -0.39192277355E+02  0.48001747784E+02  0.10566000000E+00 0. -1.
         22    1    1    0    0    0 -0.16327377691E+02  0.98629196509E+01  0.69915944388E+01  0.20316073418E+02  0.00000000000E+00 0.  1.
</event>
<event>
 5    1  0.1751020E-003  0.9118800E+02  0.7818608E-02  0.1130116E+00
         25   -1    0    0    0    0  0.00000000000E+00  0.00000000000E+00  0.99999998245E-14  0.12500000000E+03  0.12500000000E+03 0.  0.
        -13    1    3    3    0    0 -0.10489728572E+02 -0.47607851347E+02  0.16737937057E+02  0.51543298462E+02  0.10566000000E+00 0. -1.
         23    2    1    0    0    0 -0.13349411800E+02 -0.52989299978E+01  0.26318366772E+02  0.95017640451E+02  0.90163241473E+02 0.  0.
         13    1    3    3    0    0 -0.28596832283E+01  0.42308921349E+02  0.95804297156E+01  0.43474341990E+02  0.10566000000E+00 0.  1.
         22    1    1    0    0    0  0.13349411800E+02  0.52989299978E+01 -0.26318366772E+02  0.29982359549E+02  0.00000000000E+00 0. -1.
</event>
<event>
 5    1  0.1751020E-003  0.9118800E+02  0.7818608E-02  0.1130116E+00
         25   -1    0    0    0    0  0.00000000000E+00  0.00000000000E+00  0.99999998245E-14  0.12500000000E+03  0.12500000000E+03 0.  0.
        -13    1    3    3    0    0 -0.11027027103E+02 -0.33550480097E+01  0.31208705679E+02  0.33269297378E+02  0.10566000000E+00 0. -1.
         23    2    1    0    0    0  0.10441476805E+00 -0.13890190505E+01 -0.29724841854E+02  0.95242538757E+02  0.90474497453E+02 0.  0.
         13    1    3    3    0    0  0.11131441871E+02  0.19660289591E+01 -0.60933547533E+02  0.61973241379E+02  0.10566000000E+00 0.  1.
         22    1    1    0    0    0 -0.10441476805E+00  0.13890190505E+01  0.29724841854E+02  0.29757461243E+02  0.00000000000E+00 0.  1.
</event>
<event>
 5    1  0.1751020E-003  0.9118800E+02  0.7818608E-02  0.1130116E+00
         25   -1    0    0    0    0  0.00000000000E+00  0.00000000000E+00  0.99999998245E-14  0.12500000000E+03  0.12500000000E+03 0.  0.
        -13    1    3    3    0    0  0.32783011822E+02 -0.26711380783E+01  0.27277059660E+02  0.42730668032E+02  0.10566000000E+00 0.  1.
         23    2    1    0    0    0 -0.34953413455E+00 -0.69121464319E+01  0.44259339241E+02  0.80202800841E+02  0.66525936373E+02 0.  0.
         13    1    3    3    0    0 -0.33132545957E+02 -0.42410083536E+01  0.16982279581E+02  0.37472132809E+02  0.10566000000E+00 0. -1.
         22    1    1    0    0    0  0.34953413455E+00  0.69121464319E+01 -0.44259339241E+02  0.44797199159E+02  0.00000000000E+00 0. -1.
</event>
<event>
 5    1  0.1751020E-003  0.9118800E+02  0.7818608E-02  0.1130116E+00
         25   -1    0    0    0    0  0.00000000000E+00  0.00000000000E+00  0.99999998245E-14  0.12500000000E+03  0.12500000000E+03 0.  0.
        -13    1    3    3    0    0 -0.31260496142E+02  0.19980441095E+02 -0.30810245234E+01  0.37228222111E+02  0.10566000000E+00 0. -1.
         23    2    1    0    0    0  0.23666186884E+02  0.12311751504E+02  0.13483962818E+02  0.95108782560E+02  0.90289510133E+02 0.  0.
         13    1    3    3    0    0  0.54926683026E+02 -0.76686895912E+01  0.16564987341E+02  0.57880560449E+02  0.10566000000E+00 0.  1.
         22    1    1    0    0    0 -0.23666186884E+02 -0.12311751504E+02 -0.13483962818E+02  0.29891217440E+02  0.00000000000E+00 0.  1.
</event>
<event>
 5    1  0.1751020E-003  0.9118800E+02  0.7818608E-02  0.1130116E+00
         25   -1    0    0    0    0  0.00000000000E+00  0.00000000000E+00  0.99999998245E-14  0.12500000000E+03  0.12500000000E+03 0.  0.
        -13    1    3    3    0    0 -0.32107150533E+02 -0.13236674476E+02  0.32797055965E+02  0.47767527784E+02  0.10566000000E+00 0. -1.
         23    2    1    0    0    0  0.65782322362E+00  0.20838112697E+02  0.18426551242E+02  0.97175595912E+02  0.93106922288E+02 0.  0.
         13    1    3    3    0    0  0.32764973757E+02  0.34074787173E+02 -0.14370504723E+02  0.49408068128E+02  0.10566000000E+00 0.  1.
         22    1    1    0    0    0 -0.65782322362E+00 -0.20838112697E+02 -0.18426551242E+02  0.27824404088E+02  0.00000000000E+00 0.  1.
</event>
<event>
 5    1  0.1751020E-003  0.9118800E+02  0.7818608E-02  0.1130116E+00
         25   -1    0    0    0    0  0.00000000000E+00  0.00000000000E+00  0.99999998245E-14  0.12500000000E+03  0.12500000000E+03 0.  0.
        -13    1    3    3    0    0 -0.15097397995E+02  0.29693745030E+02 -0.82348229754E+01  0.34314332190E+02  0.10566000000E+00 0. -1.
         23    2    1    0    0    0  0.21360838326E+02 -0.19517266528E+02 -0.36201635534E+00  0.96063169445E+02  0.91601268339E+02 0.  0.
         13    1    3    3    0    0  0.36458236322E+02 -0.49211011558E+02  0.78728066201E+01  0.61748837255E+02  0.10566000000E+00 0.  1.
         22    1    1    0    0    0 -0.21360838326E+02  0.19517266528E+02  0.36201635534E+00  0.28936830555E+02  0.00000000000E+00 0.  1.
</event>
<event>
 5    1  0.1751020E-003  0.9118800E+02  0.7818608E-02  0.1130116E+00
         25   -1    0    0    0    0  0.00000000000E+00  0.00000000000E+00  0.99999998245E-14  0.12500000000E+03  0.12500000000E+03 0.  0.
        -13    1    3    3    0    0  0.33076378917E+02 -0.49246561931E+02  0.58129342829E+01  0.59607651131E+02  0.10566000000E+00 0. -1.
         23    2    1    0    0    0  0.29992849446E+01 -0.26841407825E+02  0.68839261182E+01  0.97128054912E+02  0.93043074584E+02 0.  0.
         13    1    3    3    0    0 -0.30077093972E+02  0.22405154107E+02  0.10709918353E+01  0.37520403781E+02  0.10566000000E+00 0.  1.
         22    1    1    0    0    0 -0.29992849446E+01  0.26841407825E+02 -0.68839261182E+01  0.27871945088E+02  0.00000000000E+00 0. -1.
</event>
<event>
 5    1  0.1751020E-003  0.9118800E+02  0.7818608E-02  0.1130116E+00
         25   -1    0    0    0    0  0.00000000000E+00  0.00000000000E+00  0.99999998245E-14  0.12500000000E+03  0.12500000000E+03 0.  0.
        -13    1    3    3    0    0  0.43311950689E+02 -0.12105506943E+02 -0.30903560572E+02  0.54566561105E+02  0.10566000000E+00 0.  1.
         23    2    1    0    0    0  0.14792168060E+02  0.16158823319E+02 -0.17704398177E+02  0.96833326043E+02  0.92646270895E+02 0.  0.
         13    1    3    3    0    0 -0.28519782629E+02  0.28264330262E+02  0.13199162395E+02  0.42266764938E+02  0.10566000000E+00 0. -1.
         22    1    1    0    0    0 -0.14792168060E+02 -0.16158823319E+02  0.17704398177E+02  0.28166673957E+02  0.00000000000E+00 0.  1.
</event>
<event>
 5    1  0.1751020E-003  0.9118800E+02  0.7818608E-02  0.1130116E+00
         25   -1    0    0    0    0  0.00000000000E+00  0.00000000000E+00  0.99999998245E-14  0.12500000000E+03  0.12500000000E+03 0.  0.
        -13    1    3    3    0    0  0.20908657614E+02 -0.50937280406E+02 -0.25245604842E+02  0.60573345840E+02  0.10566000000E+00 0.  1.
         23    2    1    0    0    0  0.49549951031E+01 -0.28498314704E+02 -0.30970911327E+01  0.95908800456E+02  0.91390372108E+02 0.  0.
         13    1    3    3    0    0 -0.15953662511E+02  0.22438965703E+02  0.22148513710E+02  0.35335454616E+02  0.10566000000E+00 0. -1.
         22    1    1    0    0    0 -0.49549951031E+01  0.28498314704E+02  0.30970911327E+01  0.29091199544E+02  0.00000000000E+00 0.  1.
</event>
<event>
 5    1  0.1751020E-003  0.9118800E+02  0.7818608E-02  0.1130116E+00
         25   -1    0    0    0    0  0.00000000000E+00  0.00000000000E+00  0.99999998245E-14  0.12500000000E+03  0.12500000000E+03 0.  0.
        -13    1    3    3    0    0  0.21243905189E+02  0.44493601793E+02 -0.27922590483E+02  0.56662742005E+02  0.10566000000E+00 0. -1.
         23    2    1    0    0    0 -0.75307822749E+01  0.28245648945E+02 -0.11230026643E+02  0.93684782223E+02  0.88296067612E+02 0.  0.
         13    1    3    3    0    0 -0.28774687464E+02 -0.16247952847E+02  0.16692563840E+02  0.37022040219E+02  0.10566000000E+00 0.  1.
         22    1    1    0    0    0  0.75307822749E+01 -0.28245648945E+02  0.11230026643E+02  0.31315217777E+02  0.00000000000E+00 0. -1.
</event>
<event>
 5    1  0.1751020E-003  0.9118800E+02  0.7818608E-02  0.1130116E+00
         25   -1    0    0    0    0  0.00000000000E+00  0.00000000000E+00  0.99999998245E-14  0.12500000000E+03  0.12500000000E+03 0.  0.
        -13    1    3    3    0    0 -0.14121712870E+02 -0.14159854201E+02  0.39915310571E+02  0.44644903712E+02  0.10566000000E+00 0. -1.
         23    2    1    0    0    0  0.59908466744E+01  0.24926069496E+02  0.17243107561E+02  0.94104629105E+02  0.88888454123E+02 0.  0.
         13    1    3    3    0    0  0.20112559544E+02  0.39085923696E+02 -0.22672203011E+02  0.49459725394E+02  0.10566000000E+00 0.  1.
         22    1    1    0    0    0 -0.59908466744E+01 -0.24926069496E+02 -0.17243107561E+02  0.30895370895E+02  0.00000000000E+00 0. -1.
</event>
<event>
 5    1  0.1751020E-003  0.9118800E+02  0.7818608E-02  0.1130116E+00
         25   -1    0    0    0    0  0.00000000000E+00  0.00000000000E+00  0.99999998245E-14  0.12500000000E+03  0.12500000000E+03 0.  0.
        -13    1    3    3    0    0  0.30213253817E+02  0.18618868720E+01  0.67616357536E+01  0.31016740819E+02  0.10566000000E+00 0.  1.
         23    2    1    0    0    0 -0.15441769852E+02  0.94961598136E+01 -0.29878552503E+02  0.90052135873E+02  0.82994180327E+02 0.  0.
         13    1    3    3    0    0 -0.45655023669E+02  0.76342729416E+01 -0.36640188257E+02  0.59035395053E+02  0.10566000000E+00 0. -1.
         22    1    1    0    0    0  0.15441769852E+02 -0.94961598136E+01  0.29878552503E+02  0.34947864127E+02  0.00000000000E+00 0. -1.
</event>
<event>
 5    1  0.1751020E-003  0.9118800E+02  0.7818608E-02  0.1130116E+00
         25   -1    0    0    0    0  0.00000000000E+00  0.00000000000E+00  0.99999998245E-14  0.12500000000E+03  0.12500000000E+03 0.  0.
        -13    1    3    3    0    0 -0.24315919743E+02  0.53214366389E+02 -0.20392656710E+02  0.61958892460E+02  0.10566000000E+00 0. -1.
         23    2    1    0    0    0 -0.67394442187E+01  0.25487565063E+02 -0.12981550147E+02  0.95613664308E+02  0.90985801513E+02 0.  0.
         13    1    3    3    0    0  0.17576475524E+02 -0.27726801326E+02  0.74111065636E+01  0.33654771848E+02  0.10566000000E+00 0.  1.
         22    1    1    0    0    0  0.67394442187E+01 -0.25487565063E+02  0.12981550147E+02  0.29386335692E+02  0.00000000000E+00 0. -1.
</event>
<event>
 5    1  0.1751020E-003  0.9118800E+02  0.7818608E-02  0.1130116E+00
         25   -1    0    0    0    0  0.00000000000E+00  0.00000000000E+00  0.99999998245E-14  0.12500000000E+03  0.12500000000E+03 0.  0.
        -13    1    3    3    0    0 -0.14174888397E+02  0.11295341681E+02  0.48875992943E+02  0.52128553164E+02  0.10566000000E+00 0.  1.
         23    2    1    0    0    0  0.13348276259E+02 -0.11363260319E+02  0.22509370085E+02  0.96469807119E+02  0.92154499510E+02 0.  0.
         13    1    3    3    0    0  0.27523164656E+02 -0.22658602001E+02 -0.26366622858E+02  0.44341253955E+02  0.10566000000E+00 0. -1.
         22    1    1    0    0    0 -0.13348276259E+02  0.11363260319E+02 -0.22509370085E+02  0.28530192881E+02  0.00000000000E+00 0.  1.
</event>
<event>
 5    1  0.1751020E-003  0.9118800E+02  0.7818608E-02  0.1130116E+00
         25   -1    0    0    0    0  0.00000000000E+00  0.00000000000E+00  0.99999998245E-14  0.12500000000E+03  0.12500000000E+03 0.  0.
        -13    1    3    3    0    0  0.30749737973E+02  0.41019498986E+00  0.38801945613E+02  0.49510774512E+02  0.10566000000E+00 0.  1.
         23    2    1    0    0    0  0.28748866396E+02  0.82057958657E+00 -0.70335411138E+01  0.95391869858E+02  0.90680579313E+02 0.  0.
         13    1    3    3    0    0 -0.20008715774E+01  0.41038459671E+00 -0.45835486727E+02  0.45881095346E+02  0.10566000000E+00 0. -1.
         22    1    1    0    0    0 -0.28748866396E+02 -0.82057958657E+00  0.70335411138E+01  0.29608130142E+02  0.00000000000E+00 0.  1.
</event>
<event>
 5    1  0.1751020E-003  0.9118800E+02  0.7818608E-02  0.1130116E+00
         25   -1    0    0    0    0  0.00000000000E+00  0.00000000000E+00  0.99999998245E-14  0.12500000000E+03  0.12500000000E+03 0.  0.
        -13    1    3    3    0    0  0.33543055304E+02  0.39757860500E+02  0.51802056033E+01  0.52274943566E+02  0.10566000000E+00 0.  1.
         23    2    1    0    0    0  0.27696421621E+02 -0.43564610072E+01  0.23339535430E+01  0.96866072755E+02  0.92690442812E+02 0.  0.
         13    1    3    3    0    0 -0.58466336835E+01 -0.44114321508E+02 -0.28462520604E+01  0.44591129189E+02  0.10566000000E+00 0. -1.
         22    1    1    0    0    0 -0.27696421621E+02  0.43564610072E+01 -0.23339535430E+01  0.28133927245E+02  0.00000000000E+00 0.  1.
</event>
<event>
 5    1  0.1751020E-003  0.9118800E+02  0.7818608E-02  0.1130116E+00
         25   -1    0    0    0    0  0.00000000000E+00  0.00000000000E+00  0.99999998245E-14  0.12500000000E+03  0.12500000000E+03 0.  0.
        -13    1    3    3    0    0 -0.47957850616E+02  0.35901018548E+02  0.18983187938E+01  0.59937078230E+02  0.10566000000E+00 0. -1.
         23    2    1    0    0    0 -0.16507693244E+02  0.28093265969E+02 -0.27063890390E+00  0.92414592614E+02  0.86479177572E+02 0.  0.
         13    1    3    3    0    0  0.31450157372E+02 -0.78077525791E+01 -0.21689576977E+01  0.32477514384E+02  0.10566000000E+00 0.  1.
         22    1    1    0    0    0  0.16507693244E+02 -0.28093265969E+02  0.27063890390E+00  0.32585407386E+02  0.00000000000E+00 0. -1.
</event>
<event>
 5    1  0.1751020E-003  0.9118800E+02  0.7818608E-02  0.1130116E+00
         25   -1    0    0    0    0  0.00000000000E+00  0.00000000000E+00  0.99999998245E-14  0.12500000000E+03  0.12500000000E+03 0.  0.
        -13    1    3    3    0    0 -0.13205001263E+01 -0.38731717998E+02 -0.22022046351E+02  0.44574335544E+02  0.10566000000E+00 0.  1.
         23    2    1    0    0    0 -0.57117123352E+01 -0.22141949883E+02  0.22884861587E+02  0.92648701846E+02  0.86816907693E+02 0.  0.
         13    1    3    3    0    0 -0.43912122089E+01  0.16589768115E+02  0.44906907938E+02  0.48074366302E+02  0.10566000000E+00 0. -1.
         22    1    1    0    0    0  0.57117123352E+01  0.22141949883E+02 -0.22884861587E+02  0.32351298154E+02  0.00000000000E+00 0. -1.
</event>
<event>
 5    1  0.1751020E-003  0.9118800E+02  0.7818608E-02  0.1130116E+00
         25   -1    0    0    0    0  0.00000000000E+00  0.00000000000E+00  0.99999998245E-14  0.12500000000E+03  0.12500000000E+03 0.  0.
        -13    1    3    3    0    0  0.17667382022E+02 -0.10958434270E+02  0.27319429399E+02  0.34330541153E+02  0.10566000000E+00 0.  1.
         23    2    1    0    0    0 -0.14566136711E+02  0.17368608465E+02 -0.17486604460E+02  0.96370954710E+02  0.92020316656E+02 0.  0.
         13    1    3    3    0    0 -0.32233518734E+02  0.28327042735E+02 -0.44806033859E+02  0.62040413556E+02  0.10566000000E+00 0. -1.
         22    1    1    0    0    0  0.14566136711E+02 -0.17368608465E+02  0.17486604460E+02  0.28629045290E+02  0.00000000000E+00 0. -1.
</event>
<event>
 5    1  0.1751020E-003  0.9118800E+02  0.7818608E-02  0.1130116E+00
         25   -1    0    0    0    0  0.00000000000E+00  0.00000000000E+00  0.99999998245E-14  0.12500000000E+03  0.12500000000E+03 0.  0.
        -13    1    3    3    0    0  0.17479137877E+02 -0.30575852421E+02 -0.82569942038E+01  0.36174467923E+02  0.10566000000E+00 0.  1.
         23    2    1    0    0    0 -0.28553476147E+02  0.51061010300E+01  0.40758478540E+01  0.95708605299E+02  0.91116141955E+02 0.  0.
         13    1    3    3    0    0 -0.46032614024E+02  0.35681953451E+02  0.12332842058E+02  0.59534137377E+02  0.10566000000E+00 0. -1.
         22    1    1    0    0    0  0.28553476147E+02 -0.51061010300E+01 -0.40758478540E+01  0.29291394701E+02  0.00000000000E+00 0. -1.
</event>
<event>
 5    1  0.1751020E-003  0.9118800E+02  0.7818608E-02  0.1130116E+00
         25   -1    0    0    0    0  0.00000000000E+00  0.00000000000E+00  0.99999998245E-14  0.12500000000E+03  0.12500000000E+03 0.  0.
        -13    1    3    3    0    0 -0.14785459065E+02 -0.24874497791E+02 -0.30749169239E+02  0.42224080961E+02  0.10566000000E+00 0. -1.
         23    2    1    0    0    0  0.26508821642E+02  0.34511520602E+01 -0.12049775762E+02  0.95677224358E+02  0.91073081037E+02 0.  0.
         13    1    3    3    0    0  0.41294280707E+02  0.28325649851E+02  0.18699393476E+02  0.53453143397E+02  0.10566000000E+00 0.  1.
         22    1    1    0    0    0 -0.26508821642E+02 -0.34511520602E+01  0.12049775762E+02  0.29322775642E+02  0.00000000000E+00 0.  1.
</event>
<event>
 5    1  0.1751020E-003  0.9118800E+02  0.7818608E-02  0.1130116E+00
         25   -1    0    0    0    0  0.00000000000E+00  0.00000000000E+00  0.99999998245E-14  0.12500000000E+03  0.12500000000E+03 0.  0.
        -13    1    3    3    0    0 -0.31313969881E+01 -0.44222150586E+02  0.13225809576E+02  0.46263781218E+02  0.10566000000E+00 0. -1.
         23    2    1    0    0    0 -0.22732465719E+02  0.22212204350E+01  0.16565339735E+02  0.96784591118E+02  0.92580493515E+02 0.  0.
         13    1    3    3    0    0 -0.19601068731E+02  0.46443371021E+02  0.33395301587E+01  0.50520809900E+02  0.10566000000E+00 0.  1.
         22    1    1    0    0    0  0.22732465719E+02 -0.22212204350E+01 -0.16565339735E+02  0.28215408882E+02  0.00000000000E+00 0.  1.
</event>
<event>
 5    1  0.1751020E-003  0.9118800E+02  0.7818608E-02  0.1130116E+00
         25   -1    0    0    0    0  0.00000000000E+00  0.00000000000E+00  0.99999998245E-14  0.12500000000E+03  0.12500000000E+03 0.  0.
        -13    1    3    3    0    0 -0.26351731269E+02  0.90716046983E+01 -0.24618755904E+01  0.27978201302E+02  0.10566000000E+00 0.  1.
         23    2    1    0    0    0  0.24377179626E+02  0.32848197875E+02  0.65349090325E+00  0.84089389634E+02  0.73466641468E+02 0.  0.
         13    1    3    3    0    0  0.50728910894E+02  0.23776593176E+02  0.31153664937E+01  0.56111188332E+02  0.10566000000E+00 0. -1.
         22    1    1    0    0    0 -0.24377179626E+02 -0.32848197875E+02 -0.65349090325E+00  0.40910610366E+02  0.00000000000E+00 0. -1.
</event>
<event>
 5    1  0.1751020E-003  0.9118800E+02  0.7818608E-02  0.1130116E+00
         25   -1    0    0    0    0  0.00000000000E+00  0.00000000000E+00  0.99999998245E-14  0.12500000000E+03  0.12500000000E+03 0.  0.
        -13    1    3    3    0    0 -0.34924564175E+02 -0.15508402626E+02 -0.14283274024E+02  0.40795328356E+02  0.10566000000E+00 0. -1.
         23    2    1    0    0    0 -0.77855440869E+01  0.11384004993E+02  0.25534718064E+02  0.95978764792E+02  0.91486016406E+02 0.  0.
         13    1    3    3    0    0  0.27139020088E+02  0.26892407619E+02  0.39817992088E+02  0.55183436435E+02  0.10566000000E+00 0.  1.
         22    1    1    0    0    0  0.77855440869E+01 -0.11384004993E+02 -0.25534718064E+02  0.29021235208E+02  0.00000000000E+00 0.  1.
</event>
<event>
 5    1  0.1751020E-003  0.9118800E+02  0.7818608E-02  0.1130116E+00
         25   -1    0    0    0    0  0.00000000000E+00  0.00000000000E+00  0.99999998245E-14  0.12500000000E+03  0.12500000000E+03 0.  0.
        -13    1    3    3    0    0  0.38558122096E+01  0.31409540198E+02  0.34046500626E+02  0.46482274817E+02  0.10566000000E+00 0.  1.
         23    2    1    0    0    0  0.83555928248E+01 -0.16397177859E+02  0.22616411748E+02  0.95842060197E+02  0.91299041886E+02 0.  0.
         13    1    3    3    0    0  0.44997806153E+01 -0.47806718057E+02 -0.11430088878E+02  0.49359785380E+02  0.10566000000E+00 0. -1.
         22    1    1    0    0    0 -0.83555928248E+01  0.16397177859E+02 -0.22616411748E+02  0.29157939803E+02  0.00000000000E+00 0.  1.
</event>
<event>
 5    1  0.1751020E-003  0.9118800E+02  0.7818608E-02  0.1130116E+00
         25   -1    0    0    0    0  0.00000000000E+00  0.00000000000E+00  0.99999998245E-14  0.12500000000E+03  0.12500000000E+03 0.  0.
        -13    1    3    3    0    0  0.22631268227E+02  0.18000513591E+02 -0.20343895686E+02  0.35356442791E+02  0.10566000000E+00 0. -1.
         23    2    1    0    0    0 -0.27542059680E+02 -0.10555019467E+00  0.87317882264E+01  0.96106742692E+02  0.91660709538E+02 0.  0.
         13    1    3    3    0    0 -0.50173327907E+02 -0.18106063786E+02  0.29075683913E+02  0.60750299901E+02  0.10566000000E+00 0.  1.
         22    1    1    0    0    0  0.27542059680E+02  0.10555019467E+00 -0.87317882264E+01  0.28893257308E+02  0.00000000000E+00 0.  1.
</event>
<event>
 5    1  0.1751020E-003  0.9118800E+02  0.7818608E-02  0.1130116E+00
         25   -1    0    0    0    0  0.00000000000E+00  0.00000000000E+00  0.99999998245E-14  0.12500000000E+03  0.12500000000E+03 0.  0.
        -13    1    3    3    0    0 -0.41167618714E+02  0.89372234550E+01 -0.28992763080E+02  0.51139400355E+02  0.10566000000E+00 0. -1.
         23    2    1    0    0    0  0.78291581573E+00  0.16256380981E+02 -0.26631405487E+02  0.93789190366E+02  0.88443753830E+02 0.  0.
         13    1    3    3    0    0  0.41950534530E+02  0.73191575262E+01  0.23613575927E+01  0.42649790010E+02  0.10566000000E+00 0.  1.
         22    1    1    0    0    0 -0.78291581573E+00 -0.16256380981E+02  0.26631405487E+02  0.31210809634E+02  0.00000000000E+00 0.  1.
</event>
<event>
 5    1  0.1751020E-003  0.9118800E+02  0.7818608E-02  0.1130116E+00
         25   -1    0    0    0    0  0.00000000000E+00  0.00000000000E+00  0.99999998245E-14  0.12500000000E+03  0.12500000000E+03 0.  0.
        -13    1    3    3    0    0 -0.35001461826E+02 -0.26966374575E+02 -0.38527976838E+02  0.58623407023E+02  0.10566000000E+00 0.  1.
         23    2    1    0    0    0 -0.96399255608E+00 -0.59334071837E+00 -0.19106578790E+02  0.10585991933E+03  0.10411522383E+03 0.  0.
         13    1    3    3    0    0  0.34037469270E+02  0.26373033857E+02  0.19421398048E+02  0.47236512311E+02  0.10566000000E+00 0. -1.
         22    1    1    0    0    0  0.96399255608E+00  0.59334071837E+00  0.19106578790E+02  0.19140080666E+02  0.00000000000E+00 0.  1.
</event>
<event>
 5    1  0.1751020E-003  0.9118800E+02  0.7818608E-02  0.1130116E+00
         25   -1    0    0    0    0  0.00000000000E+00  0.00000000000E+00  0.99999998245E-14  0.12500000000E+03  0.12500000000E+03 0.  0.
        -13    1    3    3    0    0  0.11704036357E+02  0.39243158010E+02  0.15987979383E+02  0.43961762550E+02  0.10566000000E+00 0.  1.
         23    2    1    0    0    0 -0.13191828942E+02 -0.52896591656E+01  0.25449080149E+02  0.95851063049E+02  0.91311367104E+02 0.  0.
         13    1    3    3    0    0 -0.24895865299E+02 -0.44532817176E+02  0.94611007658E+01  0.51889300500E+02  0.10566000000E+00 0. -1.
         22    1    1    0    0    0  0.13191828942E+02  0.52896591656E+01 -0.25449080149E+02  0.29148936951E+02  0.00000000000E+00 0. -1.
</event>
<event>
 5    1  0.1751020E-003  0.9118800E+02  0.7818608E-02  0.1130116E+00
         25   -1    0    0    0    0  0.00000000000E+00  0.00000000000E+00  0.99999998245E-14  0.12500000000E+03  0.12500000000E+03 0.  0.
        -13    1    3    3    0    0 -0.11469944280E+02 -0.54510886575E+02 -0.23413998562E+02  0.60425349562E+02  0.10566000000E+00 0.  1.
         23    2    1    0    0    0 -0.95587516616E+01 -0.27216734830E+02 -0.44396797937E+00  0.96150086730E+02  0.91719799838E+02 0.  0.
         13    1    3    3    0    0  0.19111926182E+01  0.27294151745E+02  0.22970030582E+02  0.35724737168E+02  0.10566000000E+00 0. -1.
         22    1    1    0    0    0  0.95587516616E+01  0.27216734830E+02  0.44396797937E+00  0.28849913270E+02  0.00000000000E+00 0.  1.
</event>
<event>
 5    1  0.1751020E-003  0.9118800E+02  0.7818608E-02  0.1130116E+00
         25   -1    0    0    0    0  0.00000000000E+00  0.00000000000E+00  0.99999998245E-14  0.12500000000E+03  0.12500000000E+03 0.  0.
        -13    1    3    3    0    0 -0.53446419909E+02 -0.11790274948E+02 -0.27695536138E+02  0.61339907650E+02  0.10566000000E+00 0. -1.
         23    2    1    0    0    0 -0.22916088088E+02 -0.13728634157E+02 -0.12205555167E+02  0.95629980149E+02  0.91008214120E+02 0.  0.
         13    1    3    3    0    0  0.30530331821E+02 -0.19383592092E+01  0.15489980970E+02  0.34290072500E+02  0.10566000000E+00 0.  1.
         22    1    1    0    0    0  0.22916088088E+02  0.13728634157E+02  0.12205555167E+02  0.29370019851E+02  0.00000000000E+00 0. -1.
</event>
<event>
 5    1  0.1751020E-003  0.9118800E+02  0.7818608E-02  0.1130116E+00
         25   -1    0    0    0    0  0.00000000000E+00  0.00000000000E+00  0.99999998245E-14  0.12500000000E+03  0.12500000000E+03 0.  0.
        -13    1    3    3    0    0  0.38305656241E+02  0.32693778661E+01  0.29121180745E+02  0.48229311250E+02  0.10566000000E+00 0.  1.
         23    2    1    0    0    0 -0.93777730129E+01  0.82843095886E+01  0.25842129299E+02  0.96287841273E+02  0.91907346378E+02 0.  0.
         13    1    3    3    0    0 -0.47683429254E+02  0.50149317225E+01 -0.32790514455E+01  0.48058530023E+02  0.10566000000E+00 0. -1.
         22    1    1    0    0    0  0.93777730129E+01 -0.82843095886E+01 -0.25842129299E+02  0.28712158727E+02  0.00000000000E+00 0.  1.
</event>
<event>
 5    1  0.1751020E-003  0.9118800E+02  0.7818608E-02  0.1130116E+00
         25   -1    0    0    0    0  0.00000000000E+00  0.00000000000E+00  0.99999998245E-14  0.12500000000E+03  0.12500000000E+03 0.  0.
        -13    1    3    3    0    0  0.85304763569E+00  0.21660732430E+01  0.36047937239E+02  0.36123185169E+02  0.10566000000E+00 0. -1.
         23    2    1    0    0    0  0.22717983158E+02 -0.60930353832E+01 -0.18244299155E+02  0.95232798409E+02  0.90461039139E+02 0.  0.
         13    1    3    3    0    0  0.21864935522E+02 -0.82591086262E+01 -0.54292236393E+02  0.59109613239E+02  0.10566000000E+00 0.  1.
         22    1    1    0    0    0 -0.22717983158E+02  0.60930353832E+01  0.18244299155E+02  0.29767201591E+02  0.00000000000E+00 0.  1.
</event>
<event>
 5    1  0.1751020E-003  0.9118800E+02  0.7818608E-02  0.1130116E+00
         25   -1    0    0    0    0  0.00000000000E+00  0.00000000000E+00  0.99999998245E-14  0.12500000000E+03  0.12500000000E+03 0.  0.
        -13    1    3    3    0    0 -0.26581623959E+02  0.76954281404E+01  0.36629254734E+01  0.27914701030E+02  0.10566000000E+00 0.  1.
         23    2    1    0    0    0  0.27144524155E+02 -0.90643021575E+01  0.23892289458E+02  0.87719599509E+02  0.79403399658E+02 0.  0.
         13    1    3    3    0    0  0.53726148114E+02 -0.16759730298E+02  0.20229363985E+02  0.59804898479E+02  0.10566000000E+00 0. -1.
         22    1    1    0    0    0 -0.27144524155E+02  0.90643021575E+01 -0.23892289458E+02  0.37280400491E+02  0.00000000000E+00 0. -1.
</event>
<event>
 5    1  0.1751020E-003  0.9118800E+02  0.7818608E-02  0.1130116E+00
         25   -1    0    0    0    0  0.00000000000E+00  0.00000000000E+00  0.99999998245E-14  0.12500000000E+03  0.12500000000E+03 0.  0.
        -13    1    3    3    0    0 -0.19729317111E+02 -0.36108308622E+02 -0.11423194379E+00  0.41147054794E+02  0.10566000000E+00 0.  1.
         23    2    1    0    0    0 -0.70931506506E+01  0.11555663757E+02  0.25056249615E+02  0.96510321241E+02  0.92209437208E+02 0.  0.
         13    1    3    3    0    0  0.12636166461E+02  0.47663972379E+02  0.25170481559E+02  0.55363266447E+02  0.10566000000E+00 0. -1.
         22    1    1    0    0    0  0.70931506506E+01 -0.11555663757E+02 -0.25056249615E+02  0.28489678759E+02  0.00000000000E+00 0. -1.
</event>
<event>
 5    1  0.1751020E-003  0.9118800E+02  0.7818608E-02  0.1130116E+00
         25   -1    0    0    0    0  0.00000000000E+00  0.00000000000E+00  0.99999998245E-14  0.12500000000E+03  0.12500000000E+03 0.  0.
        -13    1    3    3    0    0 -0.31599617316E+02  0.88063009920E+01  0.14452372762E+02  0.35846464179E+02  0.10566000000E+00 0.  1.
         23    2    1    0    0    0  0.26674200336E+02  0.52791853303E+00  0.14351398840E+02  0.94705539942E+02  0.89729510115E+02 0.  0.
         13    1    3    3    0    0  0.58273817652E+02 -0.82783824590E+01 -0.10097392243E+00  0.58859075763E+02  0.10566000000E+00 0. -1.
         22    1    1    0    0    0 -0.26674200336E+02 -0.52791853303E+00 -0.14351398840E+02  0.30294460058E+02  0.00000000000E+00 0. -1.
</event>
<event>
 5    1  0.1751020E-003  0.9118800E+02  0.7818608E-02  0.1130116E+00
         25   -1    0    0    0    0  0.00000000000E+00  0.00000000000E+00  0.99999998245E-14  0.12500000000E+03  0.12500000000E+03 0.  0.
        -13    1    3    3    0    0 -0.11541888155E+01  0.50011559640E+02  0.16180074991E+02  0.52576555994E+02  0.10566000000E+00 0. -1.
         23    2    1    0    0    0 -0.57471006871E+01  0.61218291585E+01  0.25907744494E+02  0.97765514814E+02  0.93895573397E+02 0.  0.
         13    1    3    3    0    0 -0.45929118716E+01 -0.43889730482E+02  0.97276695036E+01  0.45188958820E+02  0.10566000000E+00 0.  1.
         22    1    1    0    0    0  0.57471006871E+01 -0.61218291585E+01 -0.25907744494E+02  0.27234485186E+02  0.00000000000E+00 0.  1.
</event>
<event>
 5    1  0.1751020E-003  0.9118800E+02  0.7818608E-02  0.1130116E+00
         25   -1    0    0    0    0  0.00000000000E+00  0.00000000000E+00  0.99999998245E-14  0.12500000000E+03  0.12500000000E+03 0.  0.
        -13    1    3    3    0    0 -0.26779417447E+01  0.36515256700E+02  0.13387520763E+02  0.38984256054E+02  0.10566000000E+00 0.  1.
         23    2    1    0    0    0  0.19608094888E+02 -0.16187731717E+02  0.13512544878E+02  0.96205748623E+02  0.91795627106E+02 0.  0.
         13    1    3    3    0    0  0.22286036633E+02 -0.52702988417E+02  0.12502411479E+00  0.57221492570E+02  0.10566000000E+00 0. -1.
         22    1    1    0    0    0 -0.19608094888E+02  0.16187731717E+02 -0.13512544878E+02  0.28794251377E+02  0.00000000000E+00 0. -1.
</event>
<event>
 5    1  0.1751020E-003  0.9118800E+02  0.7818608E-02  0.1130116E+00
         25   -1    0    0    0    0  0.00000000000E+00  0.00000000000E+00  0.99999998245E-14  0.12500000000E+03  0.12500000000E+03 0.  0.
        -13    1    3    3    0    0 -0.25742233065E+02 -0.18877513165E+02  0.21804522907E+02  0.38658394298E+02  0.10566000000E+00 0.  1.
         23    2    1    0    0    0  0.32953298952E+01 -0.42851652401E+01 -0.27094438997E+02  0.97371564199E+02  0.93369647369E+02 0.  0.
         13    1    3    3    0    0  0.29037562960E+02  0.14592347924E+02 -0.48898961904E+02  0.58713169902E+02  0.10566000000E+00 0. -1.
         22    1    1    0    0    0 -0.32953298952E+01  0.42851652401E+01  0.27094438997E+02  0.27628435801E+02  0.00000000000E+00 0. -1.
</event>
<event>
 5    1  0.1751020E-003  0.9118800E+02  0.7818608E-02  0.1130116E+00
         25   -1    0    0    0    0  0.00000000000E+00  0.00000000000E+00  0.99999998245E-14  0.12500000000E+03  0.12500000000E+03 0.  0.
        -13    1    3    3    0    0  0.14697918433E+02  0.30540735254E+02  0.19432416736E+02  0.39069109286E+02  0.10566000000E+00 0.  1.
         23    2    1    0    0    0  0.25997826009E+02 -0.14448482487E+02 -0.95449770888E+01  0.93762967635E+02  0.88406684751E+02 0.  0.
         13    1    3    3    0    0  0.11299907576E+02 -0.44989217742E+02 -0.28977393825E+02  0.54693858349E+02  0.10566000000E+00 0. -1.
         22    1    1    0    0    0 -0.25997826009E+02  0.14448482487E+02  0.95449770888E+01  0.31237032365E+02  0.00000000000E+00 0. -1.
</event>
<event>
 5    1  0.1751020E-003  0.9118800E+02  0.7818608E-02  0.1130116E+00
         25   -1    0    0    0    0  0.00000000000E+00  0.00000000000E+00  0.99999998245E-14  0.12500000000E+03  0.12500000000E+03 0.  0.
        -13    1    3    3    0    0 -0.57209583668E+02  0.13471195216E+02  0.47518784127E+01  0.58966101080E+02  0.10566000000E+00 0.  1.
         23    2    1    0    0    0 -0.25788918138E+02  0.53711183501E+00 -0.11650207492E+02  0.96696570482E+02  0.92461573751E+02 0.  0.
         13    1    3    3    0    0  0.31420665530E+02 -0.12934083381E+02 -0.16402085905E+02  0.37730469403E+02  0.10566000000E+00 0. -1.
         22    1    1    0    0    0  0.25788918138E+02 -0.53711183501E+00  0.11650207492E+02  0.28303429518E+02  0.00000000000E+00 0.  1.
</event>
<event>
 5    1  0.1751020E-003  0.9118800E+02  0.7818608E-02  0.1130116E+00
         25   -1    0    0    0    0  0.00000000000E+00  0.00000000000E+00  0.99999998245E-14  0.12500000000E+03  0.12500000000E+03 0.  0.
        -13    1    3    3    0    0  0.22567268090E+02  0.22223804984E+02 -0.20866014937E+02  0.37928628243E+02  0.10566000000E+00 0. -1.
         23    2    1    0    0    0  0.12534074324E+02 -0.22159927669E+02  0.14627390593E+02  0.95638018306E+02  0.91019253878E+02 0.  0.
         13    1    3    3    0    0 -0.10033193766E+02 -0.44383732653E+02  0.35493405530E+02  0.57709390063E+02  0.10566000000E+00 0.  1.
         22    1    1    0    0    0 -0.12534074324E+02  0.22159927669E+02 -0.14627390593E+02  0.29361981694E+02  0.00000000000E+00 0.  1.
</event>
<event>
 5    1  0.1751020E-003  0.9118800E+02  0.7818608E-02  0.1130116E+00
         25   -1    0    0    0    0  0.00000000000E+00  0.00000000000E+00  0.99999998245E-14  0.12500000000E+03  0.12500000000E+03 0.  0.
        -13    1    3    3    0    0  0.27801214061E+02  0.37210359629E+02 -0.11590314213E+02  0.47873425975E+02  0.10566000000E+00 0.  1.
         23    2    1    0    0    0  0.12349042701E+02 -0.62194614585E+01 -0.25473695755E+02  0.96015698527E+02  0.91536466132E+02 0.  0.
         13    1    3    3    0    0 -0.15452171360E+02 -0.43429821087E+02 -0.13883381541E+02  0.48142272552E+02  0.10566000000E+00 0. -1.
         22    1    1    0    0    0 -0.12349042701E+02  0.62194614585E+01  0.25473695755E+02  0.28984301473E+02  0.00000000000E+00 0.  1.
</event>
<event>
 5    1  0.1751020E-003  0.9118800E+02  0.7818608E-02  0.1130116E+00
         25   -1    0    0    0    0  0.00000000000E+00  0.00000000000E+00  0.99999998245E-14  0.12500000000E+03  0.12500000000E+03 0.  0.
        -13    1    3    3    0    0  0.14565652806E+02  0.16939102296E+02 -0.36217043208E+02  0.42553223274E+02  0.10566000000E+00 0.  1.
         23    2    1    0    0    0 -0.70393678887E+01  0.41470350293E+01  0.19604257492E+02  0.10376141456E+03  0.10156452943E+03 0.  0.
         13    1    3    3    0    0 -0.21605020695E+02 -0.12792067266E+02  0.55821300700E+02  0.61208191283E+02  0.10566000000E+00 0. -1.
         22    1    1    0    0    0  0.70393678887E+01 -0.41470350293E+01 -0.19604257492E+02  0.21238585443E+02  0.00000000000E+00 0. -1.
</event>
<event>
 5    1  0.1751020E-003  0.9118800E+02  0.7818608E-02  0.1130116E+00
         25   -1    0    0    0    0  0.00000000000E+00  0.00000000000E+00  0.99999998245E-14  0.12500000000E+03  0.12500000000E+03 0.  0.
        -13    1    3    3    0    0 -0.44395412551E+02 -0.77110072012E+01  0.17447474172E+01  0.45093986242E+02  0.10566000000E+00 0. -1.
         23    2    1    0    0    0 -0.36753578272E+01 -0.65449322022E+01  0.29612528631E+02  0.94450920724E+02  0.89374102406E+02 0.  0.
         13    1    3    3    0    0  0.40720054724E+02  0.11660749990E+01  0.27867781214E+02  0.49356934482E+02  0.10566000000E+00 0.  1.
         22    1    1    0    0    0  0.36753578272E+01  0.65449322022E+01 -0.29612528631E+02  0.30549079276E+02  0.00000000000E+00 0.  1.
</event>
<event>
 5    1  0.1751020E-003  0.9118800E+02  0.7818608E-02  0.1130116E+00
         25   -1    0    0    0    0  0.00000000000E+00  0.00000000000E+00  0.99999998245E-14  0.12500000000E+03  0.12500000000E+03 0.  0.
        -13    1    3    3    0    0 -0.28632362283E+02 -0.46933966419E+02  0.24274250756E+02  0.60098750300E+02  0.10566000000E+00 0.  1.
         23    2    1    0    0    0 -0.50241226125E+01 -0.18071395502E+02  0.19917905826E+02  0.97640538823E+02  0.93729049423E+02 0.  0.
         13    1    3    3    0    0  0.23608239671E+02  0.28862570918E+02 -0.43563449297E+01  0.37541788523E+02  0.10566000000E+00 0. -1.
         22    1    1    0    0    0  0.50241226125E+01  0.18071395502E+02 -0.19917905826E+02  0.27359461177E+02  0.00000000000E+00 0.  1.
</event>
<event>
 5    1  0.1751020E-003  0.9118800E+02  0.7818608E-02  0.1130116E+00
         25   -1    0    0    0    0  0.00000000000E+00  0.00000000000E+00  0.99999998245E-14  0.12500000000E+03  0.12500000000E+03 0.  0.
        -13    1    3    3    0    0  0.43317301558E+02  0.16284803541E+02  0.11448413514E+02  0.47672432041E+02  0.10566000000E+00 0. -1.
         23    2    1    0    0    0  0.97191267217E+01  0.21306985277E+02 -0.20178246587E+02  0.94087046710E+02  0.88863725318E+02 0.  0.
         13    1    3    3    0    0 -0.33598174836E+02  0.50221817355E+01 -0.31626660101E+02  0.46414614669E+02  0.10566000000E+00 0.  1.
         22    1    1    0    0    0 -0.97191267217E+01 -0.21306985277E+02  0.20178246587E+02  0.30912953290E+02  0.00000000000E+00 0. -1.
</event>
<event>
 5    1  0.1751020E-003  0.9118800E+02  0.7818608E-02  0.1130116E+00
         25   -1    0    0    0    0  0.00000000000E+00  0.00000000000E+00  0.99999998245E-14  0.12500000000E+03  0.12500000000E+03 0.  0.
        -13    1    3    3    0    0 -0.11083507176E+02  0.10466614276E+02  0.30636960261E+02  0.34220295787E+02  0.10566000000E+00 0. -1.
         23    2    1    0    0    0  0.21624851531E+02 -0.97637915795E+01 -0.17269054428E+02  0.95654028034E+02  0.91041237956E+02 0.  0.
         13    1    3    3    0    0  0.32708358707E+02 -0.20230405855E+02 -0.47906014689E+02  0.61433732247E+02  0.10566000000E+00 0.  1.
         22    1    1    0    0    0 -0.21624851531E+02  0.97637915795E+01  0.17269054428E+02  0.29345971966E+02  0.00000000000E+00 0.  1.
</event>
<event>
 5    1  0.1751020E-003  0.9118800E+02  0.7818608E-02  0.1130116E+00
         25   -1    0    0    0    0  0.00000000000E+00  0.00000000000E+00  0.99999998245E-14  0.12500000000E+03  0.12500000000E+03 0.  0.
        -13    1    3    3    0    0  0.19083784010E+02 -0.25393354363E+02  0.22997590961E+02  0.39216241686E+02  0.10566000000E+00 0.  1.
         23    2    1    0    0    0 -0.16064147723E+02 -0.13619631052E+02 -0.19979305351E+02  0.95970293932E+02  0.91474441693E+02 0.  0.
         13    1    3    3    0    0 -0.35147931733E+02  0.11773723311E+02 -0.42976896312E+02  0.56754052246E+02  0.10566000000E+00 0. -1.
         22    1    1    0    0    0  0.16064147723E+02  0.13619631052E+02  0.19979305351E+02  0.29029706068E+02  0.00000000000E+00 0. -1.
</event>
<event>
 5    1  0.1751020E-003  0.9118800E+02  0.7818608E-02  0.1130116E+00
         25   -1    0    0    0    0  0.00000000000E+00  0.00000000000E+00  0.99999998245E-14  0.12500000000E+03  0.12500000000E+03 0.  0.
        -13    1    3    3    0    0  0.11139218717E+01  0.35029200558E+01  0.50433656949E+02  0.50567540855E+02  0.10566000000E+00 0. -1.
         23    2    1    0    0    0  0.22782237822E+02 -0.11701605438E+02  0.13383588969E+02  0.96102277189E+02  0.91654619617E+02 0.  0.
         13    1    3    3    0    0  0.21668315950E+02 -0.15204525494E+02 -0.37050067980E+02  0.45534736333E+02  0.10566000000E+00 0.  1.
         22    1    1    0    0    0 -0.22782237822E+02  0.11701605438E+02 -0.13383588969E+02  0.28897722811E+02  0.00000000000E+00 0. -1.
</event>
<event>
 5    1  0.1751020E-003  0.9118800E+02  0.7818608E-02  0.1130116E+00
         25   -1    0    0    0    0  0.00000000000E+00  0.00000000000E+00  0.99999998245E-14  0.12500000000E+03  0.12500000000E+03 0.  0.
        -13    1    3    3    0    0  0.30588220740E+02  0.33147621606E+01 -0.14579043451E+02  0.34046829048E+02  0.10566000000E+00 0. -1.
         23    2    1    0    0    0 -0.17558076535E+02 -0.19432870771E+01  0.23460776559E+02  0.95632152734E+02  0.91011198121E+02 0.  0.
         13    1    3    3    0    0 -0.48146297275E+02 -0.52580492377E+01  0.38039820011E+02  0.61585323686E+02  0.10566000000E+00 0.  1.
         22    1    1    0    0    0  0.17558076535E+02  0.19432870771E+01 -0.23460776559E+02  0.29367847266E+02  0.00000000000E+00 0.  1.
</event>
<event>
 5    1  0.1751020E-003  0.9118800E+02  0.7818608E-02  0.1130116E+00
         25   -1    0    0    0    0  0.00000000000E+00  0.00000000000E+00  0.99999998245E-14  0.12500000000E+03  0.12500000000E+03 0.  0.
        -13    1    3    3    0    0  0.29611906131E+02  0.21365733266E+02 -0.48015643254E+01  0.36829685401E+02  0.10566000000E+00 0.  1.
         23    2    1    0    0    0 -0.24827367048E+02  0.58775358505E+01  0.13266515629E+02  0.96243365650E+02  0.91846836703E+02 0.  0.
         13    1    3    3    0    0 -0.54439273179E+02 -0.15488197416E+02  0.18068079955E+02  0.59413680249E+02  0.10566000000E+00 0. -1.
         22    1    1    0    0    0  0.24827367048E+02 -0.58775358505E+01 -0.13266515629E+02  0.28756634350E+02  0.00000000000E+00 0. -1.
</event>
<event>
 5    1  0.1751020E-003  0.9118800E+02  0.7818608E-02  0.1130116E+00
         25   -1    0    0    0    0  0.00000000000E+00  0.00000000000E+00  0.99999998245E-14  0.12500000000E+03  0.12500000000E+03 0.  0.
        -13    1    3    3    0    0 -0.27893064923E+02 -0.32651966693E+02  0.27831327334E+02  0.51173899059E+02  0.10566000000E+00 0.  1.
         23    2    1    0    0    0 -0.26579902796E+02  0.79424725940E+01  0.10373611597E+02  0.95382675322E+02  0.90667904081E+02 0.  0.
         13    1    3    3    0    0  0.13131621272E+01  0.40594439287E+02 -0.17457715737E+02  0.44208776262E+02  0.10566000000E+00 0. -1.
         22    1    1    0    0    0  0.26579902796E+02 -0.79424725940E+01 -0.10373611597E+02  0.29617324678E+02  0.00000000000E+00 0.  1.
</event>
<event>
 5    1  0.1751020E-003  0.9118800E+02  0.7818608E-02  0.1130116E+00
         25   -1    0    0    0    0  0.00000000000E+00  0.00000000000E+00  0.99999998245E-14  0.12500000000E+03  0.12500000000E+03 0.  0.
        -13    1    3    3    0    0  0.29130437782E+02 -0.51030608765E+02 -0.56228731001E+01  0.59028241565E+02  0.10566000000E+00 0. -1.
         23    2    1    0    0    0  0.15717169780E+02 -0.16287918686E+02  0.11026264361E+02  0.99822545268E+02  0.96595218914E+02 0.  0.
         13    1    3    3    0    0 -0.13413268002E+02  0.34742690079E+02  0.16649137461E+02  0.40794303703E+02  0.10566000000E+00 0.  1.
         22    1    1    0    0    0 -0.15717169780E+02  0.16287918686E+02 -0.11026264361E+02  0.25177454732E+02  0.00000000000E+00 0. -1.
</event>
<event>
 5    1  0.1751020E-003  0.9118800E+02  0.7818608E-02  0.1130116E+00
         25   -1    0    0    0    0  0.00000000000E+00  0.00000000000E+00  0.99999998245E-14  0.12500000000E+03  0.12500000000E+03 0.  0.
        -13    1    3    3    0    0  0.12600811764E+02 -0.29452163484E+02 -0.39383590239E+02  0.50767004395E+02  0.10566000000E+00 0. -1.
         23    2    1    0    0    0 -0.20800154768E+02 -0.72837795843E+01 -0.19757533185E+02  0.95401689221E+02  0.90694113950E+02 0.  0.
         13    1    3    3    0    0 -0.33400966532E+02  0.22168383900E+02  0.19626057054E+02  0.44634684826E+02  0.10566000000E+00 0.  1.
         22    1    1    0    0    0  0.20800154768E+02  0.72837795843E+01  0.19757533185E+02  0.29598310779E+02  0.00000000000E+00 0. -1.
</event>
<event>
 5    1  0.1751020E-003  0.9118800E+02  0.7818608E-02  0.1130116E+00
         25   -1    0    0    0    0  0.00000000000E+00  0.00000000000E+00  0.99999998245E-14  0.12500000000E+03  0.12500000000E+03 0.  0.
        -13    1    3    3    0    0  0.67720724157E+01 -0.67062617577E+01  0.53753647943E+02  0.54592130777E+02  0.10566000000E+00 0. -1.
         23    2    1    0    0    0  0.88857692352E+01 -0.22339032994E+02  0.14433823444E+02  0.96958520916E+02  0.92815032344E+02 0.  0.
         13    1    3    3    0    0  0.21136968195E+01 -0.15632771236E+02 -0.39319824499E+02  0.42366390139E+02  0.10566000000E+00 0.  1.
         22    1    1    0    0    0 -0.88857692352E+01  0.22339032994E+02 -0.14433823444E+02  0.28041479084E+02  0.00000000000E+00 0. -1.
</event>
<event>
 5    1  0.1751020E-003  0.9118800E+02  0.7818608E-02  0.1130116E+00
         25   -1    0    0    0    0  0.00000000000E+00  0.00000000000E+00  0.99999998245E-14  0.12500000000E+03  0.12500000000E+03 0.  0.
        -13    1    3    3    0    0 -0.14331744207E+02  0.41915195097E+02 -0.37433189979E+02  0.57996011484E+02  0.10566000000E+00 0.  1.
         23    2    1    0    0    0  0.95868121366E+01  0.15324922721E+02 -0.20808887631E+02  0.97436073796E+02  0.93455970644E+02 0.  0.
         13    1    3    3    0    0  0.23918556344E+02 -0.26590272376E+02  0.16624302348E+02  0.39440062312E+02  0.10566000000E+00 0. -1.
         22    1    1    0    0    0 -0.95868121366E+01 -0.15324922721E+02  0.20808887631E+02  0.27563926204E+02  0.00000000000E+00 0.  1.
</event>
<event>
 5    1  0.1751020E-003  0.9118800E+02  0.7818608E-02  0.1130116E+00
         25   -1    0    0    0    0  0.00000000000E+00  0.00000000000E+00  0.99999998245E-14  0.12500000000E+03  0.12500000000E+03 0.  0.
        -13    1    3    3    0    0 -0.21596331650E+02  0.13539197678E+02 -0.29362195062E+02  0.38882657798E+02  0.10566000000E+00 0.  1.
         23    2    1    0    0    0  0.27914672270E+02  0.83996255088E+01 -0.17709998831E+01  0.95795221672E+02  0.91234891450E+02 0.  0.
         13    1    3    3    0    0  0.49511003920E+02 -0.51395721692E+01  0.27591195179E+02  0.56912563874E+02  0.10566000000E+00 0. -1.
         22    1    1    0    0    0 -0.27914672270E+02 -0.83996255088E+01  0.17709998831E+01  0.29204778328E+02  0.00000000000E+00 0. -1.
</event>
<event>
 5    1  0.1751020E-003  0.9118800E+02  0.7818608E-02  0.1130116E+00
         25   -1    0    0    0    0  0.00000000000E+00  0.00000000000E+00  0.99999998245E-14  0.12500000000E+03  0.12500000000E+03 0.  0.
        -13    1    3    3    0    0 -0.11119901931E+02 -0.39191681454E+02 -0.97466839091E+01  0.41888532147E+02  0.10566000000E+00 0. -1.
         23    2    1    0    0    0 -0.28186175672E+02  0.93174122535E+01  0.38126786564E+01  0.95069894944E+02  0.90235656678E+02 0.  0.
         13    1    3    3    0    0 -0.17066273741E+02  0.48509093708E+02  0.13559362565E+02  0.53181362797E+02  0.10566000000E+00 0.  1.
         22    1    1    0    0    0  0.28186175672E+02 -0.93174122535E+01 -0.38126786564E+01  0.29930105056E+02  0.00000000000E+00 0. -1.
</event>
<event>
 5    1  0.1751020E-003  0.9118800E+02  0.7818608E-02  0.1130116E+00
         25   -1    0    0    0    0  0.00000000000E+00  0.00000000000E+00  0.99999998245E-14  0.12500000000E+03  0.12500000000E+03 0.  0.
        -13    1    3    3    0    0  0.10803273197E+02  0.30587932119E+02 -0.21427164910E+01  0.32510532156E+02  0.10566000000E+00 0.  1.
         23    2    1    0    0    0 -0.78843339299E+01 -0.28963696811E+02  0.44316414352E+00  0.94979093136E+02  0.90109784619E+02 0.  0.
         13    1    3    3    0    0 -0.18687607127E+02 -0.59551628929E+02  0.25858806345E+01  0.62468560980E+02  0.10566000000E+00 0. -1.
         22    1    1    0    0    0  0.78843339299E+01  0.28963696811E+02 -0.44316414352E+00  0.30020906864E+02  0.00000000000E+00 0. -1.
</event>
<event>
 5    1  0.1751020E-003  0.9118800E+02  0.7818608E-02  0.1130116E+00
         25   -1    0    0    0    0  0.00000000000E+00  0.00000000000E+00  0.99999998245E-14  0.12500000000E+03  0.12500000000E+03 0.  0.
        -13    1    3    3    0    0 -0.30791881146E+02  0.48882334890E+02  0.97859845455E+00  0.57780545409E+02  0.10566000000E+00 0.  1.
         23    2    1    0    0    0 -0.40371910028E+01  0.24528542613E+02  0.14285210355E+02  0.96329186464E+02  0.91963561349E+02 0.  0.
         13    1    3    3    0    0  0.26754690144E+02 -0.24353792276E+02  0.13306611900E+02  0.38548641055E+02  0.10566000000E+00 0. -1.
         22    1    1    0    0    0  0.40371910028E+01 -0.24528542613E+02 -0.14285210355E+02  0.28670813536E+02  0.00000000000E+00 0.  1.
</event>
<event>
 5    1  0.1751020E-003  0.9118800E+02  0.7818608E-02  0.1130116E+00
         25   -1    0    0    0    0  0.00000000000E+00  0.00000000000E+00  0.99999998245E-14  0.12500000000E+03  0.12500000000E+03 0.  0.
        -13    1    3    3    0    0  0.44819480162E+02 -0.28222376039E+02 -0.21388836636E+02  0.57120765120E+02  0.10566000000E+00 0. -1.
         23    2    1    0    0    0  0.12078582864E+02 -0.15750293417E+02 -0.25816288121E+02  0.92435531033E+02  0.86509437394E+02 0.  0.
         13    1    3    3    0    0 -0.32740897298E+02  0.12472082622E+02 -0.44274514857E+01  0.35314765913E+02  0.10566000000E+00 0.  1.
         22    1    1    0    0    0 -0.12078582864E+02  0.15750293417E+02  0.25816288121E+02  0.32564468967E+02  0.00000000000E+00 0. -1.
</event>
<event>
 5    1  0.1751020E-003  0.9118800E+02  0.7818608E-02  0.1130116E+00
         25   -1    0    0    0    0  0.00000000000E+00  0.00000000000E+00  0.99999998245E-14  0.12500000000E+03  0.12500000000E+03 0.  0.
        -13    1    3    3    0    0  0.80925095989E+01 -0.55508751913E+02 -0.68555442752E+01  0.56513006484E+02  0.10566000000E+00 0. -1.
         23    2    1    0    0    0  0.93733869882E+01 -0.23976233116E+02  0.15282401997E+02  0.95062198664E+02  0.90224994685E+02 0.  0.
         13    1    3    3    0    0  0.12808773893E+01  0.31532518796E+02  0.22137946272E+02  0.38549192180E+02  0.10566000000E+00 0.  1.
         22    1    1    0    0    0 -0.93733869882E+01  0.23976233116E+02 -0.15282401997E+02  0.29937801336E+02  0.00000000000E+00 0. -1.
</event>
<event>
 5    1  0.1751020E-003  0.9118800E+02  0.7818608E-02  0.1130116E+00
         25   -1    0    0    0    0  0.00000000000E+00  0.00000000000E+00  0.99999998245E-14  0.12500000000E+03  0.12500000000E+03 0.  0.
        -13    1    3    3    0    0 -0.41978288906E+02 -0.59731508086E+01 -0.25419594687E+02  0.49437053190E+02  0.10566000000E+00 0.  1.
         23    2    1    0    0    0 -0.20950987427E+02 -0.15071299689E+02  0.14450365380E+02  0.95421274400E+02  0.90721103389E+02 0.  0.
         13    1    3    3    0    0  0.21027301479E+02 -0.90981488804E+01  0.39869960067E+02  0.45984221210E+02  0.10566000000E+00 0. -1.
         22    1    1    0    0    0  0.20950987427E+02  0.15071299689E+02 -0.14450365380E+02  0.29578725600E+02  0.00000000000E+00 0.  1.
</event>
<event>
 5    1  0.1751020E-003  0.9118800E+02  0.7818608E-02  0.1130116E+00
         25   -1    0    0    0    0  0.00000000000E+00  0.00000000000E+00  0.99999998245E-14  0.12500000000E+03  0.12500000000E+03 0.  0.
        -13    1    3    3    0    0  0.50317184997E+02 -0.12509530341E+02 -0.87894920227E+01  0.52588723025E+02  0.10566000000E+00 0.  1.
         23    2    1    0    0    0 -0.47331618165E+01  0.90501356701E+01  0.54821543312E+01  0.11340854657E+03  0.11281461183E+03 0.  0.
         13    1    3    3    0    0 -0.55050346813E+02  0.21559666011E+02  0.14271646354E+02  0.60819823548E+02  0.10566000000E+00 0. -1.
         22    1    1    0    0    0  0.47331618165E+01 -0.90501356701E+01 -0.54821543312E+01  0.11591453427E+02  0.00000000000E+00 0. -1.
</event>
<event>
 5    1  0.1751020E-003  0.9118800E+02  0.7818608E-02  0.1130116E+00
         25   -1    0    0    0    0  0.00000000000E+00  0.00000000000E+00  0.99999998245E-14  0.12500000000E+03  0.12500000000E+03 0.  0.
        -13    1    3    3    0    0  0.26856947450E+02 -0.14737113522E+02 -0.88567057092E+01  0.31889348399E+02  0.10566000000E+00 0. -1.
         23    2    1    0    0    0 -0.22366023835E+02  0.17570337912E+02  0.11688871164E+02  0.94249625927E+02  0.89092123568E+02 0.  0.
         13    1    3    3    0    0 -0.49222971285E+02  0.32307451434E+02  0.20545576873E+02  0.62360277528E+02  0.10566000000E+00 0.  1.
         22    1    1    0    0    0  0.22366023835E+02 -0.17570337912E+02 -0.11688871164E+02  0.30750374073E+02  0.00000000000E+00 0.  1.
</event>
<event>
 5    1  0.1751020E-003  0.9118800E+02  0.7818608E-02  0.1130116E+00
         25   -1    0    0    0    0  0.00000000000E+00  0.00000000000E+00  0.99999998245E-14  0.12500000000E+03  0.12500000000E+03 0.  0.
        -13    1    3    3    0    0  0.33832955704E+02 -0.71657317794E+01  0.49252479414E+00  0.34587141373E+02  0.10566000000E+00 0.  1.
         23    2    1    0    0    0 -0.21329225129E+02 -0.72108951734E+01 -0.21402201103E+02  0.93935759049E+02  0.88650661375E+02 0.  0.
         13    1    3    3    0    0 -0.55162180833E+02 -0.45163394022E-01 -0.21894725898E+02  0.59348617677E+02  0.10566000000E+00 0. -1.
         22    1    1    0    0    0  0.21329225129E+02  0.72108951734E+01  0.21402201103E+02  0.31064240951E+02  0.00000000000E+00 0. -1.
</event>
<event>
 5    1  0.1751020E-003  0.9118800E+02  0.7818608E-02  0.1130116E+00
         25   -1    0    0    0    0  0.00000000000E+00  0.00000000000E+00  0.99999998245E-14  0.12500000000E+03  0.12500000000E+03 0.  0.
        -13    1    3    3    0    0  0.87309038511E+01  0.56409676255E+01 -0.51296348710E+02  0.52339046159E+02  0.10566000000E+00 0.  1.
         23    2    1    0    0    0  0.25359747521E+01 -0.22399818362E+02 -0.19393805856E+02  0.95262771881E+02  0.90502447317E+02 0.  0.
         13    1    3    3    0    0 -0.61949290990E+01 -0.28040785987E+02  0.31902542854E+02  0.42923725722E+02  0.10566000000E+00 0. -1.
         22    1    1    0    0    0 -0.25359747521E+01  0.22399818362E+02  0.19393805856E+02  0.29737228119E+02  0.00000000000E+00 0.  1.
</event>
<event>
 5    1  0.1751020E-003  0.9118800E+02  0.7818608E-02  0.1130116E+00
         25   -1    0    0    0    0  0.00000000000E+00  0.00000000000E+00  0.99999998245E-14  0.12500000000E+03  0.12500000000E+03 0.  0.
        -13    1    3    3    0    0 -0.22905064006E+02 -0.35733445571E+02 -0.28350590507E+02  0.51042024212E+02  0.10566000000E+00 0.  1.
         23    2    1    0    0    0  0.13793631245E+02 -0.92695512622E+01 -0.23030976267E+02  0.96599036789E+02  0.92329622534E+02 0.  0.
         13    1    3    3    0    0  0.36698695252E+02  0.26463894309E+02  0.53196142409E+01  0.45557012576E+02  0.10566000000E+00 0. -1.
         22    1    1    0    0    0 -0.13793631245E+02  0.92695512622E+01  0.23030976267E+02  0.28400963211E+02  0.00000000000E+00 0.  1.
</event>
<event>
 5    1  0.1751020E-003  0.9118800E+02  0.7818608E-02  0.1130116E+00
         25   -1    0    0    0    0  0.00000000000E+00  0.00000000000E+00  0.99999998245E-14  0.12500000000E+03  0.12500000000E+03 0.  0.
        -13    1    3    3    0    0 -0.54565779103E+02  0.21059556328E+02 -0.15852162277E+02  0.60598938726E+02  0.10566000000E+00 0. -1.
         23    2    1    0    0    0 -0.25953388414E+02 -0.14277945003E+01 -0.55403558151E+01  0.98423459408E+02  0.94767425057E+02 0.  0.
         13    1    3    3    0    0  0.28612390689E+02 -0.22487350829E+02  0.10311806462E+02  0.37824520682E+02  0.10566000000E+00 0.  1.
         22    1    1    0    0    0  0.25953388414E+02  0.14277945003E+01  0.55403558151E+01  0.26576540592E+02  0.00000000000E+00 0. -1.
</event>
<event>
 5    1  0.1751020E-003  0.9118800E+02  0.7818608E-02  0.1130116E+00
         25   -1    0    0    0    0  0.00000000000E+00  0.00000000000E+00  0.99999998245E-14  0.12500000000E+03  0.12500000000E+03 0.  0.
        -13    1    3    3    0    0 -0.51527417618E+02  0.23600396934E+02  0.91212981194E+01  0.57404379147E+02  0.10566000000E+00 0.  1.
         23    2    1    0    0    0 -0.13883753209E+02  0.25761485953E+02  0.34991878714E+01  0.95527011054E+02  0.90866675759E+02 0.  0.
         13    1    3    3    0    0  0.37643664409E+02  0.21610890188E+01 -0.56221102479E+01  0.38122631907E+02  0.10566000000E+00 0. -1.
         22    1    1    0    0    0  0.13883753209E+02 -0.25761485953E+02 -0.34991878714E+01  0.29472988946E+02  0.00000000000E+00 0.  1.
</event>
<event>
 5    1  0.1751020E-003  0.9118800E+02  0.7818608E-02  0.1130116E+00
         25   -1    0    0    0    0  0.00000000000E+00  0.00000000000E+00  0.99999998245E-14  0.12500000000E+03  0.12500000000E+03 0.  0.
        -13    1    3    3    0    0 -0.60007400648E+02  0.14756665049E+02 -0.92790858644E+01  0.62488078018E+02  0.10566000000E+00 0.  1.
         23    2    1    0    0    0 -0.34369821840E+02  0.91909278236E+01 -0.58035160761E+01  0.88952273215E+02  0.81320774121E+02 0.  0.
         13    1    3    3    0    0  0.25637578808E+02 -0.55657372256E+01  0.34755697883E+01  0.26464195196E+02  0.10566000000E+00 0. -1.
         22    1    1    0    0    0  0.34369821840E+02 -0.91909278236E+01  0.58035160761E+01  0.36047726785E+02  0.00000000000E+00 0.  1.
</event>
<event>
 5    1  0.1751020E-003  0.9118800E+02  0.7818608E-02  0.1130116E+00
         25   -1    0    0    0    0  0.00000000000E+00  0.00000000000E+00  0.99999998245E-14  0.12500000000E+03  0.12500000000E+03 0.  0.
        -13    1    3    3    0    0  0.28247218779E+02 -0.14420400291E+02  0.33768718140E+02  0.46326998631E+02  0.10566000000E+00 0.  1.
         23    2    1    0    0    0 -0.11084958594E+02 -0.26042167637E+02  0.54245795657E+01  0.96181657478E+02  0.91762815832E+02 0.  0.
         13    1    3    3    0    0 -0.39332177373E+02 -0.11621767346E+02 -0.28344138575E+02  0.49854658846E+02  0.10566000000E+00 0. -1.
         22    1    1    0    0    0  0.11084958594E+02  0.26042167637E+02 -0.54245795657E+01  0.28818342522E+02  0.00000000000E+00 0. -1.
</event>
<event>
 5    1  0.1751020E-003  0.9118800E+02  0.7818608E-02  0.1130116E+00
         25   -1    0    0    0    0  0.00000000000E+00  0.00000000000E+00  0.99999998245E-14  0.12500000000E+03  0.12500000000E+03 0.  0.
        -13    1    3    3    0    0 -0.40199045128E+02  0.91088287154E+01 -0.24632161345E+02  0.48017585595E+02  0.10566000000E+00 0.  1.
         23    2    1    0    0    0 -0.20588934362E+02 -0.19045491030E+02  0.84786571944E+01  0.95699444126E+02  0.91103573099E+02 0.  0.
         13    1    3    3    0    0  0.19610110766E+02 -0.28154319745E+02  0.33110818540E+02  0.47681858531E+02  0.10566000000E+00 0. -1.
         22    1    1    0    0    0  0.20588934362E+02  0.19045491030E+02 -0.84786571944E+01  0.29300555874E+02  0.00000000000E+00 0. -1.
</event>
<event>
 5    1  0.1751020E-003  0.9118800E+02  0.7818608E-02  0.1130116E+00
         25   -1    0    0    0    0  0.00000000000E+00  0.00000000000E+00  0.99999998245E-14  0.12500000000E+03  0.12500000000E+03 0.  0.
        -13    1    3    3    0    0  0.13813999127E+01 -0.22480945065E+02 -0.25884289045E+02  0.34311932912E+02  0.10566000000E+00 0. -1.
         23    2    1    0    0    0  0.15857441526E+02  0.14555231305E+02  0.20408173644E+02  0.95338463264E+02  0.90606930286E+02 0.  0.
         13    1    3    3    0    0  0.14476041613E+02  0.37036176370E+02  0.46292462689E+02  0.61026530352E+02  0.10566000000E+00 0.  1.
         22    1    1    0    0    0 -0.15857441526E+02 -0.14555231305E+02 -0.20408173644E+02  0.29661536736E+02  0.00000000000E+00 0.  1.
</event>
<event>
 5    1  0.1751020E-003  0.9118800E+02  0.7818608E-02  0.1130116E+00
         25   -1    0    0    0    0  0.00000000000E+00  0.00000000000E+00  0.99999998245E-14  0.12500000000E+03  0.12500000000E+03 0.  0.
        -13    1    3    3    0    0  0.22856810751E+02 -0.20907827181E+02  0.24947094696E+02  0.39773605984E+02  0.10566000000E+00 0. -1.
         23    2    1    0    0    0  0.14767146759E+02  0.14626519088E+02 -0.18982082634E+02  0.96851764795E+02  0.92671145448E+02 0.  0.
         13    1    3    3    0    0 -0.80896639916E+01  0.35534346269E+02 -0.43929177330E+02  0.57078158811E+02  0.10566000000E+00 0.  1.
         22    1    1    0    0    0 -0.14767146759E+02 -0.14626519088E+02  0.18982082634E+02  0.28148235205E+02  0.00000000000E+00 0.  1.
</event>
<event>
 5    1  0.1751020E-003  0.9118800E+02  0.7818608E-02  0.1130116E+00
         25   -1    0    0    0    0  0.00000000000E+00  0.00000000000E+00  0.99999998245E-14  0.12500000000E+03  0.12500000000E+03 0.  0.
        -13    1    3    3    0    0 -0.97218120487E+01 -0.23891059931E+02  0.49056694327E+02  0.55424424187E+02  0.10566000000E+00 0.  1.
         23    2    1    0    0    0  0.55605462865E+01 -0.25419150095E+02  0.10475755155E+02  0.96950145943E+02  0.92803752541E+02 0.  0.
         13    1    3    3    0    0  0.15282358335E+02 -0.15280901643E+01 -0.38580939173E+02  0.41525721755E+02  0.10566000000E+00 0. -1.
         22    1    1    0    0    0 -0.55605462865E+01  0.25419150095E+02 -0.10475755155E+02  0.28049854057E+02  0.00000000000E+00 0.  1.
</event>
<event>
 5    1  0.1751020E-003  0.9118800E+02  0.7818608E-02  0.1130116E+00
         25   -1    0    0    0    0  0.00000000000E+00  0.00000000000E+00  0.99999998245E-14  0.12500000000E+03  0.12500000000E+03 0.  0.
        -13    1    3    3    0    0  0.27242563162E+02  0.12672651223E+01  0.28282252987E+02  0.39289441413E+02  0.10566000000E+00 0.  1.
         23    2    1    0    0    0 -0.26817382846E+02 -0.44693266496E+00  0.96283742462E+01  0.96503028895E+02  0.92199551104E+02 0.  0.
         13    1    3    3    0    0 -0.54059946008E+02 -0.17141977872E+01 -0.18653878741E+02  0.57213587482E+02  0.10566000000E+00 0. -1.
         22    1    1    0    0    0  0.26817382846E+02  0.44693266496E+00 -0.96283742462E+01  0.28496971105E+02  0.00000000000E+00 0. -1.
</event>
<event>
 5    1  0.1751020E-003  0.9118800E+02  0.7818608E-02  0.1130116E+00
         25   -1    0    0    0    0  0.00000000000E+00  0.00000000000E+00  0.99999998245E-14  0.12500000000E+03  0.12500000000E+03 0.  0.
        -13    1    3    3    0    0 -0.22907309355E+02 -0.25981738967E+02  0.20530465564E+02  0.40265453703E+02  0.10566000000E+00 0.  1.
         23    2    1    0    0    0  0.53058992018E+01  0.18619001534E+02  0.25171468658E+02  0.93244329343E+02  0.87670304755E+02 0.  0.
         13    1    3    3    0    0  0.28213208556E+02  0.44600740501E+02  0.46410030939E+01  0.52978875640E+02  0.10566000000E+00 0. -1.
         22    1    1    0    0    0 -0.53058992018E+01 -0.18619001534E+02 -0.25171468658E+02  0.31755670657E+02  0.00000000000E+00 0. -1.
</event>
<event>
 5    1  0.1751020E-003  0.9118800E+02  0.7818608E-02  0.1130116E+00
         25   -1    0    0    0    0  0.00000000000E+00  0.00000000000E+00  0.99999998245E-14  0.12500000000E+03  0.12500000000E+03 0.  0.
        -13    1    3    3    0    0 -0.33706984785E+02 -0.12523570797E+02 -0.69067427437E+01  0.36615774035E+02  0.10566000000E+00 0. -1.
         23    2    1    0    0    0  0.13671122514E+02  0.66844676234E+01  0.24165874772E+02  0.96441792743E+02  0.92116492475E+02 0.  0.
         13    1    3    3    0    0  0.47378107299E+02  0.19208038420E+02  0.31072617516E+02  0.59826018709E+02  0.10566000000E+00 0.  1.
         22    1    1    0    0    0 -0.13671122514E+02 -0.66844676234E+01 -0.24165874772E+02  0.28558207257E+02  0.00000000000E+00 0.  1.
</event>
<event>
 5    1  0.1751020E-003  0.9118800E+02  0.7818608E-02  0.1130116E+00
         25   -1    0    0    0    0  0.00000000000E+00  0.00000000000E+00  0.99999998245E-14  0.12500000000E+03  0.12500000000E+03 0.  0.
        -13    1    3    3    0    0  0.68840364047E+01 -0.45992062613E+02 -0.14602842231E+02  0.48743347709E+02  0.10566000000E+00 0.  1.
         23    2    1    0    0    0 -0.12277929201E+02 -0.57332802108E+01 -0.26800777426E+02  0.94968354722E+02  0.90094887094E+02 0.  0.
         13    1    3    3    0    0 -0.19161965606E+02  0.40258782402E+02 -0.12197935195E+02  0.46225007014E+02  0.10566000000E+00 0. -1.
         22    1    1    0    0    0  0.12277929201E+02  0.57332802108E+01  0.26800777426E+02  0.30031645278E+02  0.00000000000E+00 0. -1.
</event>
<event>
 5    1  0.1751020E-003  0.9118800E+02  0.7818608E-02  0.1130116E+00
         25   -1    0    0    0    0  0.00000000000E+00  0.00000000000E+00  0.99999998245E-14  0.12500000000E+03  0.12500000000E+03 0.  0.
        -13    1    3    3    0    0  0.32082126090E+02  0.18605052685E+02  0.86189694177E+01  0.38075039038E+02  0.10566000000E+00 0.  1.
         23    2    1    0    0    0 -0.18428601628E+02 -0.10189567497E+02  0.18402254807E+02  0.97034241907E+02  0.92916954732E+02 0.  0.
         13    1    3    3    0    0 -0.50510727718E+02 -0.28794620182E+02  0.97832853895E+01  0.58959202869E+02  0.10566000000E+00 0. -1.
         22    1    1    0    0    0  0.18428601628E+02  0.10189567497E+02 -0.18402254807E+02  0.27965758093E+02  0.00000000000E+00 0. -1.
</event>
<event>
 5    1  0.1751020E-003  0.9118800E+02  0.7818608E-02  0.1130116E+00
         25   -1    0    0    0    0  0.00000000000E+00  0.00000000000E+00  0.99999998245E-14  0.12500000000E+03  0.12500000000E+03 0.  0.
        -13    1    3    3    0    0 -0.43289411951E+02  0.23979080335E+02 -0.11633732830E+01  0.49500849308E+02  0.10566000000E+00 0.  1.
         23    2    1    0    0    0 -0.14513696030E+02 -0.48056374878E+01  0.23406066453E+02  0.97043149839E+02  0.92928937688E+02 0.  0.
         13    1    3    3    0    0  0.28775715921E+02 -0.28784717822E+02  0.24569439736E+02  0.47542300532E+02  0.10566000000E+00 0. -1.
         22    1    1    0    0    0  0.14513696030E+02  0.48056374878E+01 -0.23406066453E+02  0.27956850161E+02  0.00000000000E+00 0. -1.
</event>
<event>
 5    1  0.1751020E-003  0.9118800E+02  0.7818608E-02  0.1130116E+00
         25   -1    0    0    0    0  0.00000000000E+00  0.00000000000E+00  0.99999998245E-14  0.12500000000E+03  0.12500000000E+03 0.  0.
        -13    1    3    3    0    0 -0.19329575868E+02  0.19645291356E+02 -0.49598998947E+02  0.56741887846E+02  0.10566000000E+00 0.  1.
         23    2    1    0    0    0  0.64744039990E+01 -0.13049884728E+00 -0.29128465545E+02  0.95160388037E+02  0.90360926342E+02 0.  0.
         13    1    3    3    0    0  0.25803979867E+02 -0.19775790203E+02  0.20470533403E+02  0.38418500191E+02  0.10566000000E+00 0. -1.
         22    1    1    0    0    0 -0.64744039990E+01  0.13049884728E+00  0.29128465545E+02  0.29839611963E+02  0.00000000000E+00 0.  1.
</event>
<event>
 5    1  0.1751020E-003  0.9118800E+02  0.7818608E-02  0.1130116E+00
         25   -1    0    0    0    0  0.00000000000E+00  0.00000000000E+00  0.99999998245E-14  0.12500000000E+03  0.12500000000E+03 0.  0.
        -13    1    3    3    0    0 -0.27853972548E+00 -0.48896680596E+02 -0.38274159523E+02  0.62095776095E+02  0.10566000000E+00 0.  1.
         23    2    1    0    0    0  0.40992203877E+01 -0.24660296138E+02 -0.15876884061E+02  0.95385657852E+02  0.90672015876E+02 0.  0.
         13    1    3    3    0    0  0.43777601132E+01  0.24236384458E+02  0.22397275462E+02  0.33289881756E+02  0.10566000000E+00 0. -1.
         22    1    1    0    0    0 -0.40992203877E+01  0.24660296138E+02  0.15876884061E+02  0.29614342148E+02  0.00000000000E+00 0.  1.
</event>
<event>
 5    1  0.1751020E-003  0.9118800E+02  0.7818608E-02  0.1130116E+00
         25   -1    0    0    0    0  0.00000000000E+00  0.00000000000E+00  0.99999998245E-14  0.12500000000E+03  0.12500000000E+03 0.  0.
        -13    1    3    3    0    0  0.24478088482E+02  0.19148817210E+02 -0.92240952098E+01  0.32418345312E+02  0.10566000000E+00 0.  1.
         23    2    1    0    0    0 -0.23388829322E+02 -0.19614280562E+02 -0.27540306187E+01  0.94351312856E+02  0.89234680557E+02 0.  0.
         13    1    3    3    0    0 -0.47866917804E+02 -0.38763097772E+02  0.64700645910E+01  0.61932967544E+02  0.10566000000E+00 0. -1.
         22    1    1    0    0    0  0.23388829322E+02  0.19614280562E+02  0.27540306187E+01  0.30648687144E+02  0.00000000000E+00 0. -1.
</event>
<event>
 5    1  0.1751020E-003  0.9118800E+02  0.7818608E-02  0.1130116E+00
         25   -1    0    0    0    0  0.00000000000E+00  0.00000000000E+00  0.99999998245E-14  0.12500000000E+03  0.12500000000E+03 0.  0.
        -13    1    3    3    0    0  0.46108669703E+02  0.25799372560E+02 -0.24352934939E+01  0.52891954631E+02  0.10566000000E+00 0.  1.
         23    2    1    0    0    0  0.12718998225E+02  0.35016317389E+02  0.12373392287E+01  0.87724721225E+02  0.79411462059E+02 0.  0.
         13    1    3    3    0    0 -0.33389671479E+02  0.92169448292E+01  0.36726327226E+01  0.34832766594E+02  0.10566000000E+00 0. -1.
         22    1    1    0    0    0 -0.12718998225E+02 -0.35016317389E+02 -0.12373392287E+01  0.37275278775E+02  0.00000000000E+00 0.  1.
</event>
<event>
 5    1  0.1751020E-003  0.9118800E+02  0.7818608E-02  0.1130116E+00
         25   -1    0    0    0    0  0.00000000000E+00  0.00000000000E+00  0.99999998245E-14  0.12500000000E+03  0.12500000000E+03 0.  0.
        -13    1    3    3    0    0 -0.22013759153E+02  0.23641532566E+02 -0.54332184596E+01  0.32757574407E+02  0.10566000000E+00 0.  1.
         23    2    1    0    0    0 -0.28694417599E+02 -0.22153820706E+02 -0.22783924552E+02  0.82183314103E+02  0.70148617419E+02 0.  0.
         13    1    3    3    0    0 -0.66806584454E+01 -0.45795353272E+02 -0.17350706093E+02  0.49425739696E+02  0.10566000000E+00 0. -1.
         22    1    1    0    0    0  0.28694417599E+02  0.22153820706E+02  0.22783924552E+02  0.42816685897E+02  0.00000000000E+00 0. -1.
</event>
<event>
 5    1  0.1751020E-003  0.9118800E+02  0.7818608E-02  0.1130116E+00
         25   -1    0    0    0    0  0.00000000000E+00  0.00000000000E+00  0.99999998245E-14  0.12500000000E+03  0.12500000000E+03 0.  0.
        -13    1    3    3    0    0 -0.51872052614E+02  0.70986650085E+01 -0.47615113696E+01  0.52571703814E+02  0.10566000000E+00 0.  1.
         23    2    1    0    0    0 -0.12422077508E+02  0.13719862191E+02 -0.22103578838E+02  0.96171007204E+02  0.91748306802E+02 0.  0.
         13    1    3    3    0    0  0.39449975106E+02  0.66211971828E+01 -0.17342067469E+02  0.43599303391E+02  0.10566000000E+00 0. -1.
         22    1    1    0    0    0  0.12422077508E+02 -0.13719862191E+02  0.22103578838E+02  0.28828992796E+02  0.00000000000E+00 0.  1.
</event>
<event>
 5    1  0.1751020E-003  0.9118800E+02  0.7818608E-02  0.1130116E+00
         25   -1    0    0    0    0  0.00000000000E+00  0.00000000000E+00  0.99999998245E-14  0.12500000000E+03  0.12500000000E+03 0.  0.
        -13    1    3    3    0    0  0.17286429148E+02  0.22930424091E+02 -0.24625852795E+02  0.37829469618E+02  0.10566000000E+00 0.  1.
         23    2    1    0    0    0 -0.22503163660E+00  0.20347475886E+00  0.27589860968E+02  0.97408471057E+02  0.93419043905E+02 0.  0.
         13    1    3    3    0    0 -0.17511460784E+02 -0.22726949332E+02  0.52215713762E+02  0.59579001439E+02  0.10566000000E+00 0. -1.
         22    1    1    0    0    0  0.22503163660E+00 -0.20347475886E+00 -0.27589860968E+02  0.27591528943E+02  0.00000000000E+00 0. -1.
</event>
<event>
 5    1  0.1751020E-003  0.9118800E+02  0.7818608E-02  0.1130116E+00
         25   -1    0    0    0    0  0.00000000000E+00  0.00000000000E+00  0.99999998245E-14  0.12500000000E+03  0.12500000000E+03 0.  0.
        -13    1    3    3    0    0  0.32233754679E+02 -0.43342735425E+02  0.17165822409E+02  0.56677017192E+02  0.10566000000E+00 0.  1.
         23    2    1    0    0    0  0.19777883575E+02 -0.96111279484E+01  0.23083985676E+02  0.93118832301E+02  0.87491188558E+02 0.  0.
         13    1    3    3    0    0 -0.12455871103E+02  0.33731607477E+02  0.59181632674E+01  0.36441815109E+02  0.10566000000E+00 0. -1.
         22    1    1    0    0    0 -0.19777883575E+02  0.96111279484E+01 -0.23083985676E+02  0.31881167699E+02  0.00000000000E+00 0.  1.
</event>
<event>
 5    1  0.1751020E-003  0.9118800E+02  0.7818608E-02  0.1130116E+00
         25   -1    0    0    0    0  0.00000000000E+00  0.00000000000E+00  0.99999998245E-14  0.12500000000E+03  0.12500000000E+03 0.  0.
        -13    1    3    3    0    0  0.29861416938E+02  0.24504522727E+02  0.43795991831E+02  0.58397567759E+02  0.10566000000E+00 0.  1.
         23    2    1    0    0    0  0.58328581445E+01  0.24525677569E+02  0.15992922462E+02  0.95145274022E+02  0.90340016080E+02 0.  0.
         13    1    3    3    0    0 -0.24028558794E+02  0.21154842103E-01 -0.27803069369E+02  0.36747706263E+02  0.10566000000E+00 0. -1.
         22    1    1    0    0    0 -0.58328581445E+01 -0.24525677569E+02 -0.15992922462E+02  0.29854725978E+02  0.00000000000E+00 0.  1.
</event>
<event>
 5    1  0.1751020E-003  0.9118800E+02  0.7818608E-02  0.1130116E+00
         25   -1    0    0    0    0  0.00000000000E+00  0.00000000000E+00  0.99999998245E-14  0.12500000000E+03  0.12500000000E+03 0.  0.
        -13    1    3    3    0    0 -0.49184221175E+01  0.14945613652E+02  0.42044453369E+02  0.44892198283E+02  0.10566000000E+00 0.  1.
         23    2    1    0    0    0  0.12802928010E+02  0.27706151424E+02 -0.23719875791E+01  0.94386732983E+02  0.89284283307E+02 0.  0.
         13    1    3    3    0    0  0.17721350128E+02  0.12760537772E+02 -0.44416440948E+02  0.49494534700E+02  0.10566000000E+00 0. -1.
         22    1    1    0    0    0 -0.12802928010E+02 -0.27706151424E+02  0.23719875791E+01  0.30613267017E+02  0.00000000000E+00 0. -1.
</event>
<event>
 5    1  0.1751020E-003  0.9118800E+02  0.7818608E-02  0.1130116E+00
         25   -1    0    0    0    0  0.00000000000E+00  0.00000000000E+00  0.99999998245E-14  0.12500000000E+03  0.12500000000E+03 0.  0.
        -13    1    3    3    0    0 -0.26274268162E+02 -0.20541726609E+01  0.42772755421E+02  0.50240188725E+02  0.10566000000E+00 0.  1.
         23    2    1    0    0    0  0.15117985461E+02  0.35049591841E+01  0.24882352446E+02  0.95674760248E+02  0.91069698923E+02 0.  0.
         13    1    3    3    0    0  0.41392253623E+02  0.55591318450E+01 -0.17890402975E+02  0.45434571523E+02  0.10566000000E+00 0. -1.
         22    1    1    0    0    0 -0.15117985461E+02 -0.35049591841E+01 -0.24882352446E+02  0.29325239752E+02  0.00000000000E+00 0.  1.
</event>
<event>
 5    1  0.1751020E-003  0.9118800E+02  0.7818608E-02  0.1130116E+00
         25   -1    0    0    0    0  0.00000000000E+00  0.00000000000E+00  0.99999998245E-14  0.12500000000E+03  0.12500000000E+03 0.  0.
        -13    1    3    3    0    0 -0.31034070280E+02  0.52709993749E+02  0.85817745025E+01  0.61766617010E+02  0.10566000000E+00 0. -1.
         23    2    1    0    0    0 -0.10207202052E+02  0.26467207567E+02  0.88942035847E+01  0.95271109883E+02  0.90513962850E+02 0.  0.
         13    1    3    3    0    0  0.20826868228E+02 -0.26242786182E+02  0.31242908214E+00  0.33504492874E+02  0.10566000000E+00 0.  1.
         22    1    1    0    0    0  0.10207202052E+02 -0.26467207567E+02 -0.88942035847E+01  0.29728890117E+02  0.00000000000E+00 0. -1.
</event>
<event>
 5    1  0.1751020E-003  0.9118800E+02  0.7818608E-02  0.1130116E+00
         25   -1    0    0    0    0  0.00000000000E+00  0.00000000000E+00  0.99999998245E-14  0.12500000000E+03  0.12500000000E+03 0.  0.
        -13    1    3    3    0    0 -0.35581518549E+02 -0.15055214385E+01  0.27997200461E+02  0.45300832827E+02  0.10566000000E+00 0. -1.
         23    2    1    0    0    0  0.93922460201E+00  0.27773312681E+02  0.94915755516E+01  0.95634560337E+02  0.91014504801E+02 0.  0.
         13    1    3    3    0    0  0.36520743151E+02  0.29278834120E+02 -0.18505624910E+02  0.50333727510E+02  0.10566000000E+00 0.  1.
         22    1    1    0    0    0 -0.93922460201E+00 -0.27773312681E+02 -0.94915755516E+01  0.29365439663E+02  0.00000000000E+00 0.  1.
</event>
<event>
 5    1  0.1751020E-003  0.9118800E+02  0.7818608E-02  0.1130116E+00
         25   -1    0    0    0    0  0.00000000000E+00  0.00000000000E+00  0.99999998245E-14  0.12500000000E+03  0.12500000000E+03 0.  0.
        -13    1    3    3    0    0 -0.30423291427E+02 -0.25979258114E+02  0.28800556218E+02  0.49294844719E+02  0.10566000000E+00 0.  1.
         23    2    1    0    0    0 -0.24822345345E+02  0.14268322947E+02  0.65270811060E+01  0.95634430775E+02  0.91014326860E+02 0.  0.
         13    1    3    3    0    0  0.56009460825E+01  0.40247581060E+02 -0.22273475112E+02  0.46339586056E+02  0.10566000000E+00 0. -1.
         22    1    1    0    0    0  0.24822345345E+02 -0.14268322947E+02 -0.65270811060E+01  0.29365569225E+02  0.00000000000E+00 0. -1.
</event>
<event>
 5    1  0.1751020E-003  0.9118800E+02  0.7818608E-02  0.1130116E+00
         25   -1    0    0    0    0  0.00000000000E+00  0.00000000000E+00  0.99999998245E-14  0.12500000000E+03  0.12500000000E+03 0.  0.
        -13    1    3    3    0    0 -0.31614481894E+02  0.23359536146E+02 -0.20557707442E+02  0.44359597538E+02  0.10566000000E+00 0. -1.
         23    2    1    0    0    0  0.63802019825E+01  0.23552651818E+02  0.14965829133E+02  0.96374654122E+02  0.92025341784E+02 0.  0.
         13    1    3    3    0    0  0.37994683877E+02  0.19311567192E+00  0.35523536575E+02  0.52015056584E+02  0.10566000000E+00 0.  1.
         22    1    1    0    0    0 -0.63802019825E+01 -0.23552651818E+02 -0.14965829133E+02  0.28625345878E+02  0.00000000000E+00 0.  1.
</event>
<event>
 5    1  0.1751020E-003  0.9118800E+02  0.7818608E-02  0.1130116E+00
         25   -1    0    0    0    0  0.00000000000E+00  0.00000000000E+00  0.99999998245E-14  0.12500000000E+03  0.12500000000E+03 0.  0.
        -13    1    3    3    0    0  0.14867338596E+02  0.37829638670E+02 -0.46290008934E+01  0.40909144847E+02  0.10566000000E+00 0. -1.
         23    2    1    0    0    0  0.21793732185E+02 -0.17651289608E+02 -0.20365457989E+01  0.96880926293E+02  0.92710471756E+02 0.  0.
         13    1    3    3    0    0  0.69263935882E+01 -0.55480928278E+02  0.25924550945E+01  0.55971781445E+02  0.10566000000E+00 0.  1.
         22    1    1    0    0    0 -0.21793732185E+02  0.17651289608E+02  0.20365457989E+01  0.28119073707E+02  0.00000000000E+00 0.  1.
</event>
<event>
 5    1  0.1751020E-003  0.9118800E+02  0.7818608E-02  0.1130116E+00
         25   -1    0    0    0    0  0.00000000000E+00  0.00000000000E+00  0.99999998245E-14  0.12500000000E+03  0.12500000000E+03 0.  0.
        -13    1    3    3    0    0 -0.17689470608E+02 -0.19130883435E+02  0.43667121196E+02  0.50850139715E+02  0.10566000000E+00 0. -1.
         23    2    1    0    0    0  0.11002237440E+02 -0.24818603134E+02  0.85840512438E+01  0.96527237121E+02  0.92232365687E+02 0.  0.
         13    1    3    3    0    0  0.28691708048E+02 -0.56877196990E+01 -0.35083069952E+02  0.45677097406E+02  0.10566000000E+00 0.  1.
         22    1    1    0    0    0 -0.11002237440E+02  0.24818603134E+02 -0.85840512438E+01  0.28472762879E+02  0.00000000000E+00 0. -1.
</event>
<event>
 5    1  0.1751020E-003  0.9118800E+02  0.7818608E-02  0.1130116E+00
         25   -1    0    0    0    0  0.00000000000E+00  0.00000000000E+00  0.99999998245E-14  0.12500000000E+03  0.12500000000E+03 0.  0.
        -13    1    3    3    0    0 -0.19325896429E+02 -0.16777002778E+02 -0.22576959381E+02  0.34127530733E+02  0.10566000000E+00 0.  1.
         23    2    1    0    0    0  0.41178589794E+01  0.21632826358E+02  0.19389584729E+02  0.95659039982E+02  0.91048119121E+02 0.  0.
         13    1    3    3    0    0  0.23443755408E+02  0.38409829137E+02  0.41966544110E+02  0.61531509249E+02  0.10566000000E+00 0. -1.
         22    1    1    0    0    0 -0.41178589794E+01 -0.21632826358E+02 -0.19389584729E+02  0.29340960018E+02  0.00000000000E+00 0. -1.
</event>
<event>
 5    1  0.1751020E-003  0.9118800E+02  0.7818608E-02  0.1130116E+00
         25   -1    0    0    0    0  0.00000000000E+00  0.00000000000E+00  0.99999998245E-14  0.12500000000E+03  0.12500000000E+03 0.  0.
        -13    1    3    3    0    0 -0.20969769714E+02 -0.30029841073E+02  0.12430125207E+02  0.38678699221E+02  0.10566000000E+00 0.  1.
         23    2    1    0    0    0  0.29144943237E+02 -0.56604014323E+01  0.38206130470E+01  0.95065656101E+02  0.90229784579E+02 0.  0.
         13    1    3    3    0    0  0.50114712950E+02  0.24369439641E+02 -0.86095121595E+01  0.56386956880E+02  0.10566000000E+00 0. -1.
         22    1    1    0    0    0 -0.29144943237E+02  0.56604014323E+01 -0.38206130470E+01  0.29934343899E+02  0.00000000000E+00 0. -1.
</event>
<event>
 5    1  0.1751020E-003  0.9118800E+02  0.7818608E-02  0.1130116E+00
         25   -1    0    0    0    0  0.00000000000E+00  0.00000000000E+00  0.99999998245E-14  0.12500000000E+03  0.12500000000E+03 0.  0.
        -13    1    3    3    0    0  0.11917381490E+02  0.28303351189E+02 -0.14525975522E+02  0.33972324015E+02  0.10566000000E+00 0. -1.
         23    2    1    0    0    0  0.24891847937E+01 -0.29826856384E+02  0.15888818115E+01  0.95027313298E+02  0.90176650662E+02 0.  0.
         13    1    3    3    0    0 -0.94281966961E+01 -0.58130207573E+02  0.16114857333E+02  0.61054989283E+02  0.10566000000E+00 0.  1.
         22    1    1    0    0    0 -0.24891847937E+01  0.29826856384E+02 -0.15888818115E+01  0.29972686702E+02  0.00000000000E+00 0.  1.
</event>
<event>
 5    1  0.1751020E-003  0.9118800E+02  0.7818608E-02  0.1130116E+00
         25   -1    0    0    0    0  0.00000000000E+00  0.00000000000E+00  0.99999998245E-14  0.12500000000E+03  0.12500000000E+03 0.  0.
        -13    1    3    3    0    0 -0.41861411371E+02 -0.28697886274E+00  0.15236416238E+02  0.44549070278E+02  0.10566000000E+00 0. -1.
         23    2    1    0    0    0  0.60401977941E+01 -0.18658644675E+02  0.21107186453E+02  0.96187809343E+02  0.91771195567E+02 0.  0.
         13    1    3    3    0    0  0.47901609165E+02 -0.18371665812E+02  0.58707702154E+01  0.51638739065E+02  0.10566000000E+00 0.  1.
         22    1    1    0    0    0 -0.60401977941E+01  0.18658644675E+02 -0.21107186453E+02  0.28812190657E+02  0.00000000000E+00 0. -1.
</event>
<event>
 5    1  0.1751020E-003  0.9118800E+02  0.7818608E-02  0.1130116E+00
         25   -1    0    0    0    0  0.00000000000E+00  0.00000000000E+00  0.99999998245E-14  0.12500000000E+03  0.12500000000E+03 0.  0.
        -13    1    3    3    0    0 -0.74216031332E+01 -0.20257488892E+02 -0.40183859155E+02  0.45609206854E+02  0.10566000000E+00 0. -1.
         23    2    1    0    0    0  0.72912794899E+00 -0.15588888973E+02  0.16044958582E+02  0.10261728830E+03  0.10014650306E+03 0.  0.
         13    1    3    3    0    0  0.81507310822E+01  0.46685999196E+01  0.56228817737E+02  0.57008081449E+02  0.10566000000E+00 0.  1.
         22    1    1    0    0    0 -0.72912794899E+00  0.15588888973E+02 -0.16044958582E+02  0.22382711696E+02  0.00000000000E+00 0. -1.
</event>
<event>
 5    1  0.1751020E-003  0.9118800E+02  0.7818608E-02  0.1130116E+00
         25   -1    0    0    0    0  0.00000000000E+00  0.00000000000E+00  0.99999998245E-14  0.12500000000E+03  0.12500000000E+03 0.  0.
        -13    1    3    3    0    0  0.68473483867E+01  0.34264230237E+02  0.11036517016E+02  0.36643410397E+02  0.10566000000E+00 0. -1.
         23    2    1    0    0    0 -0.21065025968E+02 -0.60832964726E+01 -0.20513842285E+02  0.94974018912E+02  0.90102745396E+02 0.  0.
         13    1    3    3    0    0 -0.27912374354E+02 -0.40347526709E+02 -0.31550359301E+02  0.58330608515E+02  0.10566000000E+00 0.  1.
         22    1    1    0    0    0  0.21065025968E+02  0.60832964726E+01  0.20513842285E+02  0.30025981088E+02  0.00000000000E+00 0.  1.
</event>
<event>
 5    1  0.1751020E-003  0.9118800E+02  0.7818608E-02  0.1130116E+00
         25   -1    0    0    0    0  0.00000000000E+00  0.00000000000E+00  0.99999998245E-14  0.12500000000E+03  0.12500000000E+03 0.  0.
        -13    1    3    3    0    0 -0.47457364128E+02 -0.20667899908E+02  0.76316880762E+01  0.52322245016E+02  0.10566000000E+00 0.  1.
         23    2    1    0    0    0 -0.35812428441E+02 -0.26925802997E+02 -0.14332323716E+02  0.77958057003E+02  0.62165217371E+02 0.  0.
         13    1    3    3    0    0  0.11644935687E+02 -0.62579030890E+01 -0.21964011792E+02  0.25635811988E+02  0.10566000000E+00 0. -1.
         22    1    1    0    0    0  0.35812428441E+02  0.26925802997E+02  0.14332323716E+02  0.47041942997E+02  0.00000000000E+00 0.  1.
</event>
<event>
 5    1  0.1751020E-003  0.9118800E+02  0.7818608E-02  0.1130116E+00
         25   -1    0    0    0    0  0.00000000000E+00  0.00000000000E+00  0.99999998245E-14  0.12500000000E+03  0.12500000000E+03 0.  0.
        -13    1    3    3    0    0  0.16349236314E+02 -0.34078043093E+01 -0.32703412392E+02  0.36721043073E+02  0.10566000000E+00 0.  1.
         23    2    1    0    0    0  0.68062560156E+01  0.10702840111E+02  0.25043268331E+02  0.96927928539E+02  0.92773822465E+02 0.  0.
         13    1    3    3    0    0 -0.95429802987E+01  0.14110644420E+02  0.57746680723E+02  0.60206885466E+02  0.10566000000E+00 0. -1.
         22    1    1    0    0    0 -0.68062560156E+01 -0.10702840111E+02 -0.25043268331E+02  0.28072071461E+02  0.00000000000E+00 0. -1.
</event>
<event>
 5    1  0.1751020E-003  0.9118800E+02  0.7818608E-02  0.1130116E+00
         25   -1    0    0    0    0  0.00000000000E+00  0.00000000000E+00  0.99999998245E-14  0.12500000000E+03  0.12500000000E+03 0.  0.
        -13    1    3    3    0    0 -0.17712229436E+01  0.36861858899E+02 -0.45902419741E+02  0.58898023518E+02  0.10566000000E+00 0.  1.
         23    2    1    0    0    0  0.19764029335E+01  0.26664012351E+02 -0.99252136577E+01  0.96480084338E+02  0.92168438658E+02 0.  0.
         13    1    3    3    0    0  0.37476258771E+01 -0.10197846548E+02  0.35977206083E+02  0.37582060821E+02  0.10566000000E+00 0. -1.
         22    1    1    0    0    0 -0.19764029335E+01 -0.26664012351E+02  0.99252136577E+01  0.28519915662E+02  0.00000000000E+00 0.  1.
</event>
<event>
 5    1  0.1751020E-003  0.9118800E+02  0.7818608E-02  0.1130116E+00
         25   -1    0    0    0    0  0.00000000000E+00  0.00000000000E+00  0.99999998245E-14  0.12500000000E+03  0.12500000000E+03 0.  0.
        -13    1    3    3    0    0  0.47994567839E+02  0.13042672725E+02 -0.53569683521E+01  0.50022976000E+02  0.10566000000E+00 0. -1.
         23    2    1    0    0    0  0.18510975087E+02 -0.21974418623E+02  0.10674809633E+01  0.96248116790E+02  0.91853302595E+02 0.  0.
         13    1    3    3    0    0 -0.29483592752E+02 -0.35017091348E+02  0.64244493154E+01  0.46225140790E+02  0.10566000000E+00 0.  1.
         22    1    1    0    0    0 -0.18510975087E+02  0.21974418623E+02 -0.10674809633E+01  0.28751883210E+02  0.00000000000E+00 0. -1.
</event>
<event>
 5    1  0.1751020E-003  0.9118800E+02  0.7818608E-02  0.1130116E+00
         25   -1    0    0    0    0  0.00000000000E+00  0.00000000000E+00  0.99999998245E-14  0.12500000000E+03  0.12500000000E+03 0.  0.
        -13    1    3    3    0    0  0.29353251643E+02  0.10666714793E+02  0.18912094305E+02  0.36511240208E+02  0.10566000000E+00 0.  1.
         23    2    1    0    0    0 -0.27802469800E+02  0.90798969539E+01  0.72729095092E+01  0.94861700971E+02  0.89946791175E+02 0.  0.
         13    1    3    3    0    0 -0.57155721442E+02 -0.15868178389E+01 -0.11639184796E+02  0.58350460763E+02  0.10566000000E+00 0. -1.
         22    1    1    0    0    0  0.27802469800E+02 -0.90798969539E+01 -0.72729095092E+01  0.30138299029E+02  0.00000000000E+00 0. -1.
</event>
<event>
 5    1  0.1751020E-003  0.9118800E+02  0.7818608E-02  0.1130116E+00
         25   -1    0    0    0    0  0.00000000000E+00  0.00000000000E+00  0.99999998245E-14  0.12500000000E+03  0.12500000000E+03 0.  0.
        -13    1    3    3    0    0 -0.55663889738E+02  0.96846658416E+01 -0.22241613330E+02  0.60720358207E+02  0.10566000000E+00 0.  1.
         23    2    1    0    0    0 -0.26796090334E+02 -0.34244662971E+01 -0.29694868862E+01  0.97823258492E+02  0.93972414160E+02 0.  0.
         13    1    3    3    0    0  0.28867799404E+02 -0.13109132139E+02  0.19272126444E+02  0.37102900285E+02  0.10566000000E+00 0. -1.
         22    1    1    0    0    0  0.26796090334E+02  0.34244662971E+01  0.29694868862E+01  0.27176741508E+02  0.00000000000E+00 0.  1.
</event>
<event>
 5    1  0.1751020E-003  0.9118800E+02  0.7818608E-02  0.1130116E+00
         25   -1    0    0    0    0  0.00000000000E+00  0.00000000000E+00  0.99999998245E-14  0.12500000000E+03  0.12500000000E+03 0.  0.
        -13    1    3    3    0    0  0.26496522399E+01 -0.17146100446E+01 -0.35772448523E+02  0.35911554993E+02  0.10566000000E+00 0. -1.
         23    2    1    0    0    0  0.79438411954E+01  0.23457258955E+02  0.17232754684E+02  0.94828565751E+02  0.89900731019E+02 0.  0.
         13    1    3    3    0    0  0.52941889554E+01  0.25171869000E+02  0.53005203207E+02  0.58917010759E+02  0.10566000000E+00 0.  1.
         22    1    1    0    0    0 -0.79438411954E+01 -0.23457258955E+02 -0.17232754684E+02  0.30171434249E+02  0.00000000000E+00 0.  1.
</event>
<event>
 5    1  0.1751020E-003  0.9118800E+02  0.7818608E-02  0.1130116E+00
         25   -1    0    0    0    0  0.00000000000E+00  0.00000000000E+00  0.99999998245E-14  0.12500000000E+03  0.12500000000E+03 0.  0.
        -13    1    3    3    0    0  0.14636208605E+02  0.29959716445E+02 -0.50763226305E+02  0.60734829552E+02  0.10566000000E+00 0.  1.
         23    2    1    0    0    0  0.14958560507E+02  0.72346860332E+01 -0.23284155727E+02  0.96394910901E+02  0.92052852890E+02 0.  0.
         13    1    3    3    0    0  0.32235190259E+00 -0.22725030412E+02  0.27479070578E+02  0.35660081349E+02  0.10566000000E+00 0. -1.
         22    1    1    0    0    0 -0.14958560507E+02 -0.72346860332E+01  0.23284155727E+02  0.28605089099E+02  0.00000000000E+00 0.  1.
</event>
<event>
 5    1  0.1751020E-003  0.9118800E+02  0.7818608E-02  0.1130116E+00
         25   -1    0    0    0    0  0.00000000000E+00  0.00000000000E+00  0.99999998245E-14  0.12500000000E+03  0.12500000000E+03 0.  0.
        -13    1    3    3    0    0  0.18254584481E+02  0.14491498183E+02 -0.10145552619E+02  0.25420007399E+02  0.10566000000E+00 0.  1.
         23    2    1    0    0    0 -0.27856984494E+02  0.28116956447E+01  0.27251904240E+02  0.85928482213E+02  0.76531827060E+02 0.  0.
         13    1    3    3    0    0 -0.46111568975E+02 -0.11679802538E+02  0.37397456859E+02  0.60508474814E+02  0.10566000000E+00 0. -1.
         22    1    1    0    0    0  0.27856984494E+02 -0.28116956447E+01 -0.27251904240E+02  0.39071517787E+02  0.00000000000E+00 0. -1.
</event>
<event>
 5    1  0.1751020E-003  0.9118800E+02  0.7818608E-02  0.1130116E+00
         25   -1    0    0    0    0  0.00000000000E+00  0.00000000000E+00  0.99999998245E-14  0.12500000000E+03  0.12500000000E+03 0.  0.
        -13    1    3    3    0    0  0.15705143666E+01  0.27063414456E+02 -0.20798613615E+02  0.34168529522E+02  0.10566000000E+00 0. -1.
         23    2    1    0    0    0  0.88419273860E+01 -0.19343601852E+02  0.19564585291E+02  0.96101425465E+02  0.91653458016E+02 0.  0.
         13    1    3    3    0    0  0.72714130194E+01 -0.46407016308E+02  0.40363198906E+02  0.61932895943E+02  0.10566000000E+00 0.  1.
         22    1    1    0    0    0 -0.88419273860E+01  0.19343601852E+02 -0.19564585291E+02  0.28898574535E+02  0.00000000000E+00 0.  1.
</event>
<event>
 5    1  0.1751020E-003  0.9118800E+02  0.7818608E-02  0.1130116E+00
         25   -1    0    0    0    0  0.00000000000E+00  0.00000000000E+00  0.99999998245E-14  0.12500000000E+03  0.12500000000E+03 0.  0.
        -13    1    3    3    0    0 -0.22095396808E+01 -0.28207699052E+01  0.38585848405E+02  0.38752002137E+02  0.10566000000E+00 0.  1.
         23    2    1    0    0    0  0.27158503807E+02  0.89998775925E+01 -0.81955501679E+01  0.95238461594E+02  0.90468864249E+02 0.  0.
         13    1    3    3    0    0  0.29368043488E+02  0.11820647498E+02 -0.46781398573E+02  0.56486459457E+02  0.10566000000E+00 0. -1.
         22    1    1    0    0    0 -0.27158503807E+02 -0.89998775925E+01  0.81955501679E+01  0.29761538406E+02  0.00000000000E+00 0. -1.
</event>
<event>
 5    1  0.1751020E-003  0.9118800E+02  0.7818608E-02  0.1130116E+00
         25   -1    0    0    0    0  0.00000000000E+00  0.00000000000E+00  0.99999998245E-14  0.12500000000E+03  0.12500000000E+03 0.  0.
        -13    1    3    3    0    0 -0.68043255412E+01 -0.38998770303E+02 -0.19449679004E+02  0.44107869010E+02  0.10566000000E+00 0. -1.
         23    2    1    0    0    0 -0.27360376800E+02  0.64837319512E+01 -0.27132827431E+01  0.96751267252E+02  0.92535489478E+02 0.  0.
         13    1    3    3    0    0 -0.20556051258E+02  0.45482502254E+02  0.16736396261E+02  0.52643398242E+02  0.10566000000E+00 0.  1.
         22    1    1    0    0    0  0.27360376800E+02 -0.64837319512E+01  0.27132827431E+01  0.28248732748E+02  0.00000000000E+00 0.  1.
</event>
<event>
 5    1  0.1751020E-003  0.9118800E+02  0.7818608E-02  0.1130116E+00
         25   -1    0    0    0    0  0.00000000000E+00  0.00000000000E+00  0.99999998245E-14  0.12500000000E+03  0.12500000000E+03 0.  0.
        -13    1    3    3    0    0  0.18796278063E+02  0.45356451874E+02 -0.35174987267E+02  0.60397008939E+02  0.10566000000E+00 0.  1.
         23    2    1    0    0    0  0.54142268825E+01  0.30652235273E+02 -0.10360327712E+02  0.92194363742E+02  0.86160263089E+02 0.  0.
         13    1    3    3    0    0 -0.13382051180E+02 -0.14704216600E+02  0.24814659554E+02  0.31797354803E+02  0.10566000000E+00 0. -1.
         22    1    1    0    0    0 -0.54142268825E+01 -0.30652235273E+02  0.10360327712E+02  0.32805636258E+02  0.00000000000E+00 0.  1.
</event>
<event>
 5    1  0.1751020E-003  0.9118800E+02  0.7818608E-02  0.1130116E+00
         25   -1    0    0    0    0  0.00000000000E+00  0.00000000000E+00  0.99999998245E-14  0.12500000000E+03  0.12500000000E+03 0.  0.
        -13    1    3    3    0    0 -0.22358694488E+02 -0.21693832846E+02 -0.95294572702E+01  0.32578448745E+02  0.10566000000E+00 0. -1.
         23    2    1    0    0    0  0.25986346692E+02  0.62535986450E+01  0.15859168183E+02  0.93920892453E+02  0.88629696566E+02 0.  0.
         13    1    3    3    0    0  0.48345041180E+02  0.27947431491E+02  0.25388625453E+02  0.61342443708E+02  0.10566000000E+00 0.  1.
         22    1    1    0    0    0 -0.25986346692E+02 -0.62535986450E+01 -0.15859168183E+02  0.31079107547E+02  0.00000000000E+00 0.  1.
</event>
<event>
 5    1  0.1751020E-003  0.9118800E+02  0.7818608E-02  0.1130116E+00
         25   -1    0    0    0    0  0.00000000000E+00  0.00000000000E+00  0.99999998245E-14  0.12500000000E+03  0.12500000000E+03 0.  0.
        -13    1    3    3    0    0 -0.36538959391E+01 -0.18362295617E+02 -0.32858854020E+02  0.37818518049E+02  0.10566000000E+00 0.  1.
         23    2    1    0    0    0 -0.10778631826E+02 -0.82909665525E+01  0.24764400198E+02  0.96747662971E+02  0.92530620569E+02 0.  0.
         13    1    3    3    0    0 -0.71247358869E+01  0.10071329065E+02  0.57623254218E+02  0.58929144922E+02  0.10566000000E+00 0. -1.
         22    1    1    0    0    0  0.10778631826E+02  0.82909665525E+01 -0.24764400198E+02  0.28252337029E+02  0.00000000000E+00 0. -1.
</event>
<event>
 5    1  0.1751020E-003  0.9118800E+02  0.7818608E-02  0.1130116E+00
         25   -1    0    0    0    0  0.00000000000E+00  0.00000000000E+00  0.99999998245E-14  0.12500000000E+03  0.12500000000E+03 0.  0.
        -13    1    3    3    0    0 -0.30591793302E+02 -0.39526147220E+02  0.26367810025E+01  0.50051352725E+02  0.10566000000E+00 0. -1.
         23    2    1    0    0    0 -0.18043577302E+02  0.19790531047E+00 -0.20488277954E+02  0.97698363019E+02  0.93806133886E+02 0.  0.
         13    1    3    3    0    0  0.12548216000E+02  0.39724052530E+02 -0.23125058956E+02  0.47647010294E+02  0.10566000000E+00 0.  1.
         22    1    1    0    0    0  0.18043577302E+02 -0.19790531047E+00  0.20488277954E+02  0.27301636981E+02  0.00000000000E+00 0. -1.
</event>
<event>
 5    1  0.1751020E-003  0.9118800E+02  0.7818608E-02  0.1130116E+00
         25   -1    0    0    0    0  0.00000000000E+00  0.00000000000E+00  0.99999998245E-14  0.12500000000E+03  0.12500000000E+03 0.  0.
        -13    1    3    3    0    0 -0.40085648909E+02  0.38159000234E+01  0.90061474319E+01  0.41261873407E+02  0.10566000000E+00 0.  1.
         23    2    1    0    0    0  0.12676312918E+02  0.17550001660E+02  0.18402825327E+02  0.96585999095E+02  0.92311969829E+02 0.  0.
         13    1    3    3    0    0  0.52761961827E+02  0.13734101636E+02  0.93966778948E+01  0.55324125687E+02  0.10566000000E+00 0. -1.
         22    1    1    0    0    0 -0.12676312918E+02 -0.17550001660E+02 -0.18402825327E+02  0.28414000905E+02  0.00000000000E+00 0. -1.
</event>
<event>
 5    1  0.1751020E-003  0.9118800E+02  0.7818608E-02  0.1130116E+00
         25   -1    0    0    0    0  0.00000000000E+00  0.00000000000E+00  0.99999998245E-14  0.12500000000E+03  0.12500000000E+03 0.  0.
        -13    1    3    3    0    0 -0.28967386542E+02 -0.21082233795E+02 -0.13311151323E+02  0.38219994485E+02  0.10566000000E+00 0. -1.
         23    2    1    0    0    0  0.18664263724E+02 -0.14512286928E+02  0.17726595150E+02  0.95450154183E+02  0.90760886651E+02 0.  0.
         13    1    3    3    0    0  0.47631650265E+02  0.65699468673E+01  0.31037746473E+02  0.57230159697E+02  0.10566000000E+00 0.  1.
         22    1    1    0    0    0 -0.18664263724E+02  0.14512286928E+02 -0.17726595150E+02  0.29549845817E+02  0.00000000000E+00 0.  1.
</event>
<event>
 5    1  0.1751020E-003  0.9118800E+02  0.7818608E-02  0.1130116E+00
         25   -1    0    0    0    0  0.00000000000E+00  0.00000000000E+00  0.99999998245E-14  0.12500000000E+03  0.12500000000E+03 0.  0.
        -13    1    3    3    0    0 -0.49316776813E+02 -0.10492514042E+02 -0.61329202723E+01  0.50792334080E+02  0.10566000000E+00 0. -1.
         23    2    1    0    0    0 -0.80765157932E+01 -0.27393593240E+02  0.29861729805E+01  0.96284911857E+02  0.91903362095E+02 0.  0.
         13    1    3    3    0    0  0.41240261020E+02 -0.16901079198E+02  0.91190932528E+01  0.45492577778E+02  0.10566000000E+00 0.  1.
         22    1    1    0    0    0  0.80765157932E+01  0.27393593240E+02 -0.29861729805E+01  0.28715088143E+02  0.00000000000E+00 0. -1.
</event>
<event>
 5    1  0.1751020E-003  0.9118800E+02  0.7818608E-02  0.1130116E+00
         25   -1    0    0    0    0  0.00000000000E+00  0.00000000000E+00  0.99999998245E-14  0.12500000000E+03  0.12500000000E+03 0.  0.
        -13    1    3    3    0    0 -0.17704498383E+02  0.56404638806E+02 -0.15234663365E+02  0.61049477260E+02  0.10566000000E+00 0.  1.
         23    2    1    0    0    0 -0.26543980629E+00  0.29275416977E+02 -0.28947740706E+01  0.95580614990E+02  0.90940385679E+02 0.  0.
         13    1    3    3    0    0  0.17439058576E+02 -0.27129221829E+02  0.12339889295E+02  0.34531137730E+02  0.10566000000E+00 0. -1.
         22    1    1    0    0    0  0.26543980629E+00 -0.29275416977E+02  0.28947740706E+01  0.29419385010E+02  0.00000000000E+00 0.  1.
</event>
<event>
 5    1  0.1751020E-003  0.9118800E+02  0.7818608E-02  0.1130116E+00
         25   -1    0    0    0    0  0.00000000000E+00  0.00000000000E+00  0.99999998245E-14  0.12500000000E+03  0.12500000000E+03 0.  0.
        -13    1    3    3    0    0  0.28195955396E+01  0.19773857277E+02 -0.44296529665E+02  0.48591658287E+02  0.10566000000E+00 0.  1.
         23    2    1    0    0    0 -0.24317363406E+02 -0.53439602460E+01 -0.13727182929E+02  0.96568896868E+02  0.92288808731E+02 0.  0.
         13    1    3    3    0    0 -0.27136958946E+02 -0.25117817523E+02  0.30569346736E+02  0.47977238581E+02  0.10566000000E+00 0. -1.
         22    1    1    0    0    0  0.24317363406E+02  0.53439602460E+01  0.13727182929E+02  0.28431103132E+02  0.00000000000E+00 0.  1.
</event>
<event>
 5    1  0.1751020E-003  0.9118800E+02  0.7818608E-02  0.1130116E+00
         25   -1    0    0    0    0  0.00000000000E+00  0.00000000000E+00  0.99999998245E-14  0.12500000000E+03  0.12500000000E+03 0.  0.
        -13    1    3    3    0    0 -0.31260010673E+02 -0.45856603648E+02  0.26172898759E+02  0.61359988257E+02  0.10566000000E+00 0. -1.
         23    2    1    0    0    0 -0.20495035009E+02 -0.15235413550E+02  0.12191485433E+02  0.96701650170E+02  0.92468440792E+02 0.  0.
         13    1    3    3    0    0  0.10764975665E+02  0.30621190099E+02 -0.13981413326E+02  0.35341661913E+02  0.10566000000E+00 0.  1.
         22    1    1    0    0    0  0.20495035009E+02  0.15235413550E+02 -0.12191485433E+02  0.28298349830E+02  0.00000000000E+00 0. -1.
</event>
<event>
 5    1  0.1751020E-003  0.9118800E+02  0.7818608E-02  0.1130116E+00
         25   -1    0    0    0    0  0.00000000000E+00  0.00000000000E+00  0.99999998245E-14  0.12500000000E+03  0.12500000000E+03 0.  0.
        -13    1    3    3    0    0 -0.34132213509E+02 -0.41669634191E+01 -0.11418019658E+02  0.36231946127E+02  0.10566000000E+00 0.  1.
         23    2    1    0    0    0  0.25930848242E+02 -0.86394452108E+01 -0.78309228953E+01  0.96568111961E+02  0.92287745612E+02 0.  0.
         13    1    3    3    0    0  0.60063061751E+02 -0.44724817916E+01  0.35870967630E+01  0.60336165834E+02  0.10566000000E+00 0. -1.
         22    1    1    0    0    0 -0.25930848242E+02  0.86394452108E+01  0.78309228953E+01  0.28431888039E+02  0.00000000000E+00 0. -1.
</event>
<event>
 5    1  0.1751020E-003  0.9118800E+02  0.7818608E-02  0.1130116E+00
         25   -1    0    0    0    0  0.00000000000E+00  0.00000000000E+00  0.99999998245E-14  0.12500000000E+03  0.12500000000E+03 0.  0.
        -13    1    3    3    0    0 -0.45930993424E+01  0.20403854253E+02 -0.36488596887E+02  0.42057611639E+02  0.10566000000E+00 0. -1.
         23    2    1    0    0    0 -0.18935216948E+02  0.13602512275E+02  0.15887891486E+02  0.96786601109E+02  0.92583207318E+02 0.  0.
         13    1    3    3    0    0 -0.14342117606E+02 -0.68013419775E+01  0.52376488373E+02  0.54728989470E+02  0.10566000000E+00 0.  1.
         22    1    1    0    0    0  0.18935216948E+02 -0.13602512275E+02 -0.15887891486E+02  0.28213398891E+02  0.00000000000E+00 0. -1.
</event>
<event>
 4    1  0.1751020E-003  0.9118800E+02  0.7818608E-02  0.1130116E+00
         25   -1    0    0    0    0  0.00000000000E+00  0.00000000000E+00  0.99999998245E-14  0.12500000000E+03  0.12500000000E+03 0.  0.
        -13    1    1    0    0    0 -0.19846629839E+02 -0.57855104824E+01  0.59289509396E+00  0.20681478094E+02  0.10566000000E+00 0. -1.
         13    1    1    0    0    0  0.10848425484E+02 -0.36213937331E+02  0.32691721029E+02  0.49978969381E+02  0.10566000000E+00 0.  1.
         22    1    1    0    0    0  0.89982043550E+01  0.41999447813E+02 -0.33284616123E+02  0.54339552525E+02  0.00000000000E+00 0.  1.
</event>
<event>
 5    1  0.1751020E-003  0.9118800E+02  0.7818608E-02  0.1130116E+00
         25   -1    0    0    0    0  0.00000000000E+00  0.00000000000E+00  0.99999998245E-14  0.12500000000E+03  0.12500000000E+03 0.  0.
        -13    1    3    3    0    0 -0.24017761156E+02 -0.29979379779E+02 -0.24492715856E+02  0.45557879197E+02  0.10566000000E+00 0. -1.
         23    2    1    0    0    0 -0.19918462758E+01  0.15058653084E+02 -0.25059036789E+02  0.95696658738E+02  0.91099751287E+02 0.  0.
         13    1    3    3    0    0  0.22025914881E+02  0.45038032863E+02 -0.56632093313E+00  0.50138779541E+02  0.10566000000E+00 0.  1.
         22    1    1    0    0    0  0.19918462758E+01 -0.15058653084E+02  0.25059036789E+02  0.29303341262E+02  0.00000000000E+00 0.  1.
</event>
<event>
 5    1  0.1751020E-003  0.9118800E+02  0.7818608E-02  0.1130116E+00
         25   -1    0    0    0    0  0.00000000000E+00  0.00000000000E+00  0.99999998245E-14  0.12500000000E+03  0.12500000000E+03 0.  0.
        -13    1    3    3    0    0 -0.14559478840E+02 -0.25031472120E+02  0.16518500012E+02  0.33338041743E+02  0.10566000000E+00 0. -1.
         23    2    1    0    0    0  0.17838262008E+01  0.25362615096E+02 -0.15483133135E+02  0.95231363953E+02  0.90459056972E+02 0.  0.
         13    1    3    3    0    0  0.16343305041E+02  0.50394087216E+02 -0.32001633147E+02  0.61893322210E+02  0.10566000000E+00 0.  1.
         22    1    1    0    0    0 -0.17838262008E+01 -0.25362615096E+02  0.15483133135E+02  0.29768636047E+02  0.00000000000E+00 0.  1.
</event>
<event>
 5    1  0.1751020E-003  0.9118800E+02  0.7818608E-02  0.1130116E+00
         25   -1    0    0    0    0  0.00000000000E+00  0.00000000000E+00  0.99999998245E-14  0.12500000000E+03  0.12500000000E+03 0.  0.
        -13    1    3    3    0    0 -0.13031025909E+02 -0.91734299697E+01  0.58457367854E+02  0.60590712771E+02  0.10566000000E+00 0.  1.
         23    2    1    0    0    0 -0.27245524116E+01 -0.14607942948E+02  0.26324491970E+02  0.94770973212E+02  0.89820617361E+02 0.  0.
         13    1    3    3    0    0  0.10306473497E+02 -0.54345129788E+01 -0.32132875883E+02  0.34180260441E+02  0.10566000000E+00 0. -1.
         22    1    1    0    0    0  0.27245524116E+01  0.14607942948E+02 -0.26324491970E+02  0.30229026788E+02  0.00000000000E+00 0.  1.
</event>
<event>
 5    1  0.1751020E-003  0.9118800E+02  0.7818608E-02  0.1130116E+00
         25   -1    0    0    0    0  0.00000000000E+00  0.00000000000E+00  0.99999998245E-14  0.12500000000E+03  0.12500000000E+03 0.  0.
        -13    1    3    3    0    0  0.16082569891E+02  0.39427801586E+01 -0.49210720077E+01  0.17274914860E+02  0.10566000000E+00 0.  1.
         23    2    1    0    0    0 -0.34222196292E+02  0.24104517000E+02 -0.26333689234E+02  0.75546490038E+02  0.57110616434E+02 0.  0.
         13    1    3    3    0    0 -0.50304766183E+02  0.20161736841E+02 -0.21412617227E+02  0.58271575178E+02  0.10566000000E+00 0. -1.
         22    1    1    0    0    0  0.34222196292E+02 -0.24104517000E+02  0.26333689234E+02  0.49453509962E+02  0.00000000000E+00 0. -1.
</event>
<event>
 5    1  0.1751020E-003  0.9118800E+02  0.7818608E-02  0.1130116E+00
         25   -1    0    0    0    0  0.00000000000E+00  0.00000000000E+00  0.99999998245E-14  0.12500000000E+03  0.12500000000E+03 0.  0.
        -13    1    3    3    0    0 -0.28804568176E+02  0.36499112741E+02 -0.27104748741E+02  0.53819763536E+02  0.10566000000E+00 0.  1.
         23    2    1    0    0    0 -0.20508421485E+02  0.17159792131E+02 -0.38786789789E+02  0.77888760578E+02  0.62025721636E+02 0.  0.
         13    1    3    3    0    0  0.82961466907E+01 -0.19339320610E+02 -0.11682041047E+02  0.24068997042E+02  0.10566000000E+00 0. -1.
         22    1    1    0    0    0  0.20508421485E+02 -0.17159792131E+02  0.38786789789E+02  0.47111239422E+02  0.00000000000E+00 0.  1.
</event>
<event>
 5    1  0.1751020E-003  0.9118800E+02  0.7818608E-02  0.1130116E+00
         25   -1    0    0    0    0  0.00000000000E+00  0.00000000000E+00  0.99999998245E-14  0.12500000000E+03  0.12500000000E+03 0.  0.
        -13    1    3    3    0    0 -0.21640494857E+01  0.32697838880E+02 -0.85610029161E+01  0.33869362447E+02  0.10566000000E+00 0.  1.
         23    2    1    0    0    0  0.11972975650E+02 -0.26803821771E+02  0.13977873254E+00  0.95643287896E+02  0.91026490507E+02 0.  0.
         13    1    3    3    0    0  0.14137025136E+02 -0.59501660652E+02  0.87007816486E+01  0.61773925449E+02  0.10566000000E+00 0. -1.
         22    1    1    0    0    0 -0.11972975650E+02  0.26803821771E+02 -0.13977873254E+00  0.29356712104E+02  0.00000000000E+00 0. -1.
</event>
<event>
 5    1  0.1751020E-003  0.9118800E+02  0.7818608E-02  0.1130116E+00
         25   -1    0    0    0    0  0.00000000000E+00  0.00000000000E+00  0.99999998245E-14  0.12500000000E+03  0.12500000000E+03 0.  0.
        -13    1    3    3    0    0 -0.37335455808E+00  0.73987989710E+01 -0.36784921021E+02  0.37523635197E+02  0.10566000000E+00 0. -1.
         23    2    1    0    0    0 -0.67793415580E+01 -0.26420559594E+02  0.10295804638E+02  0.95845085588E+02  0.91303183937E+02 0.  0.
         13    1    3    3    0    0 -0.64059869999E+01 -0.33819358565E+02  0.47080725659E+02  0.58321450391E+02  0.10566000000E+00 0.  1.
         22    1    1    0    0    0  0.67793415580E+01  0.26420559594E+02 -0.10295804638E+02  0.29154914412E+02  0.00000000000E+00 0.  1.
</event>
<event>
 5    1  0.1751020E-003  0.9118800E+02  0.7818608E-02  0.1130116E+00
         25   -1    0    0    0    0  0.00000000000E+00  0.00000000000E+00  0.99999998245E-14  0.12500000000E+03  0.12500000000E+03 0.  0.
        -13    1    3    3    0    0  0.26556578045E+02  0.33269229451E+02  0.18484168664E+02  0.46408718157E+02  0.10566000000E+00 0.  1.
         23    2    1    0    0    0  0.70976905061E+01  0.19977841203E+02 -0.22750547393E+02  0.93902110098E+02  0.88603202676E+02 0.  0.
         13    1    3    3    0    0 -0.19458887539E+02 -0.13291388247E+02 -0.41234716057E+02  0.47493391942E+02  0.10566000000E+00 0. -1.
         22    1    1    0    0    0 -0.70976905061E+01 -0.19977841203E+02  0.22750547393E+02  0.31097889902E+02  0.00000000000E+00 0. -1.
</event>
<event>
 5    1  0.1751020E-003  0.9118800E+02  0.7818608E-02  0.1130116E+00
         25   -1    0    0    0    0  0.00000000000E+00  0.00000000000E+00  0.99999998245E-14  0.12500000000E+03  0.12500000000E+03 0.  0.
        -13    1    3    3    0    0  0.30109469070E+02 -0.24977951056E+01  0.28242596569E+02  0.41357883566E+02  0.10566000000E+00 0. -1.
         23    2    1    0    0    0 -0.16300953590E+02  0.21046456209E+02  0.11206574871E+02  0.96116410762E+02  0.91673893179E+02 0.  0.
         13    1    3    3    0    0 -0.46410422660E+02  0.23544251315E+02 -0.17036021698E+02  0.54758527197E+02  0.10566000000E+00 0.  1.
         22    1    1    0    0    0  0.16300953590E+02 -0.21046456209E+02 -0.11206574871E+02  0.28883589238E+02  0.00000000000E+00 0.  1.
</event>
<event>
 5    1  0.1751020E-003  0.9118800E+02  0.7818608E-02  0.1130116E+00
         25   -1    0    0    0    0  0.00000000000E+00  0.00000000000E+00  0.99999998245E-14  0.12500000000E+03  0.12500000000E+03 0.  0.
        -13    1    3    3    0    0  0.48649355906E+02 -0.18023617943E+01  0.47244264861E+01  0.48911549840E+02  0.10566000000E+00 0. -1.
         23    2    1    0    0    0  0.69645571383E+01  0.15753434445E+01 -0.24204942628E+02  0.99763795635E+02  0.96519163428E+02 0.  0.
         13    1    3    3    0    0 -0.41684798768E+02  0.33777052388E+01 -0.28929369114E+02  0.50852245795E+02  0.10566000000E+00 0.  1.
         22    1    1    0    0    0 -0.69645571383E+01 -0.15753434445E+01  0.24204942628E+02  0.25236204365E+02  0.00000000000E+00 0.  1.
</event>
<event>
 5    1  0.1751020E-003  0.9118800E+02  0.7818608E-02  0.1130116E+00
         25   -1    0    0    0    0  0.00000000000E+00  0.00000000000E+00  0.99999998245E-14  0.12500000000E+03  0.12500000000E+03 0.  0.
        -13    1    3    3    0    0 -0.12251540017E+02 -0.38851748409E+02  0.27291315516E+02  0.49034535318E+02  0.10566000000E+00 0.  1.
         23    2    1    0    0    0 -0.11394661270E+02 -0.21203460668E+02 -0.16204680254E+02  0.95982475779E+02  0.91491086696E+02 0.  0.
         13    1    3    3    0    0  0.85687874662E+00  0.17648287741E+02 -0.43495995771E+02  0.46947940461E+02  0.10566000000E+00 0. -1.
         22    1    1    0    0    0  0.11394661270E+02  0.21203460668E+02  0.16204680254E+02  0.29017524221E+02  0.00000000000E+00 0.  1.
</event>
<event>
 5    1  0.1751020E-003  0.9118800E+02  0.7818608E-02  0.1130116E+00
         25   -1    0    0    0    0  0.00000000000E+00  0.00000000000E+00  0.99999998245E-14  0.12500000000E+03  0.12500000000E+03 0.  0.
        -13    1    3    3    0    0  0.22014225614E+02  0.32593842909E+02 -0.29936474351E+01  0.39445631114E+02  0.10566000000E+00 0.  1.
         23    2    1    0    0    0  0.11203209331E+02 -0.17153199244E+02  0.20944525928E+02  0.95701240470E+02  0.91106037767E+02 0.  0.
         13    1    3    3    0    0 -0.10811016283E+02 -0.49747042153E+02  0.23938173363E+02  0.56255609357E+02  0.10566000000E+00 0. -1.
         22    1    1    0    0    0 -0.11203209331E+02  0.17153199244E+02 -0.20944525928E+02  0.29298759530E+02  0.00000000000E+00 0. -1.
</event>
<event>
 5    1  0.1751020E-003  0.9118800E+02  0.7818608E-02  0.1130116E+00
         25   -1    0    0    0    0  0.00000000000E+00  0.00000000000E+00  0.99999998245E-14  0.12500000000E+03  0.12500000000E+03 0.  0.
        -13    1    3    3    0    0  0.20759974310E+02  0.57075548670E+02 -0.21279977725E+01  0.60771163622E+02  0.10566000000E+00 0. -1.
         23    2    1    0    0    0  0.17599454614E+02  0.22306249024E+02  0.42772211742E+01  0.96266671456E+02  0.91878549532E+02 0.  0.
         13    1    3    3    0    0 -0.31605196961E+01 -0.34769299647E+02  0.64052189467E+01  0.35495507835E+02  0.10566000000E+00 0.  1.
         22    1    1    0    0    0 -0.17599454614E+02 -0.22306249024E+02 -0.42772211742E+01  0.28733328544E+02  0.00000000000E+00 0. -1.
</event>
<event>
 5    1  0.1751020E-003  0.9118800E+02  0.7818608E-02  0.1130116E+00
         25   -1    0    0    0    0  0.00000000000E+00  0.00000000000E+00  0.99999998245E-14  0.12500000000E+03  0.12500000000E+03 0.  0.
        -13    1    3    3    0    0 -0.85249750117E+01  0.20206584571E+02 -0.28022274504E+02  0.35584270280E+02  0.10566000000E+00 0.  1.
         23    2    1    0    0    0 -0.48916127011E+01 -0.26809186174E+02  0.98054600583E+01  0.96037828377E+02  0.91566681136E+02 0.  0.
         13    1    3    3    0    0  0.36333623106E+01 -0.47015770745E+02  0.37827734562E+02  0.60453558097E+02  0.10566000000E+00 0. -1.
         22    1    1    0    0    0  0.48916127011E+01  0.26809186174E+02 -0.98054600583E+01  0.28962171623E+02  0.00000000000E+00 0. -1.
</event>
<event>
 5    1  0.1751020E-003  0.9118800E+02  0.7818608E-02  0.1130116E+00
         25   -1    0    0    0    0  0.00000000000E+00  0.00000000000E+00  0.99999998245E-14  0.12500000000E+03  0.12500000000E+03 0.  0.
        -13    1    3    3    0    0 -0.62837562613E+01 -0.12995143160E+02 -0.38426527334E+02  0.41048367879E+02  0.10566000000E+00 0.  1.
         23    2    1    0    0    0  0.22359335700E+02  0.12761008477E+02  0.46531438945E+01  0.98838291754E+02  0.95313026069E+02 0.  0.
         13    1    3    3    0    0  0.28643091961E+02  0.25756151637E+02  0.43079671229E+02  0.57789923875E+02  0.10566000000E+00 0. -1.
         22    1    1    0    0    0 -0.22359335700E+02 -0.12761008477E+02 -0.46531438945E+01  0.26161708246E+02  0.00000000000E+00 0. -1.
</event>
<event>
 5    1  0.1751020E-003  0.9118800E+02  0.7818608E-02  0.1130116E+00
         25   -1    0    0    0    0  0.00000000000E+00  0.00000000000E+00  0.99999998245E-14  0.12500000000E+03  0.12500000000E+03 0.  0.
        -13    1    3    3    0    0 -0.16253891210E+01  0.23532482319E+02  0.40902075957E+02  0.47216634734E+02  0.10566000000E+00 0. -1.
         23    2    1    0    0    0 -0.14740041524E+02  0.17841557932E+02 -0.97792676877E+01  0.99875826579E+02  0.96664143531E+02 0.  0.
         13    1    3    3    0    0 -0.13114652404E+02 -0.56909243870E+01 -0.50681343645E+02  0.52659191845E+02  0.10566000000E+00 0.  1.
         22    1    1    0    0    0  0.14740041524E+02 -0.17841557932E+02  0.97792676877E+01  0.25124173421E+02  0.00000000000E+00 0.  1.
</event>
<event>
 5    1  0.1751020E-003  0.9118800E+02  0.7818608E-02  0.1130116E+00
         25   -1    0    0    0    0  0.00000000000E+00  0.00000000000E+00  0.99999998245E-14  0.12500000000E+03  0.12500000000E+03 0.  0.
        -13    1    3    3    0    0  0.22209360061E+02 -0.41548107661E+02 -0.29002352292E+02  0.55323128319E+02  0.10566000000E+00 0.  1.
         23    2    1    0    0    0  0.20528049455E+02 -0.20399903959E+02  0.52243818841E+01  0.95591649791E+02  0.90955552045E+02 0.  0.
         13    1    3    3    0    0 -0.16813106062E+01  0.21148203702E+02  0.34226734176E+02  0.40268521472E+02  0.10566000000E+00 0. -1.
         22    1    1    0    0    0 -0.20528049455E+02  0.20399903959E+02 -0.52243818841E+01  0.29408350209E+02  0.00000000000E+00 0.  1.
</event>
<event>
 5    1  0.1751020E-003  0.9118800E+02  0.7818608E-02  0.1130116E+00
         25   -1    0    0    0    0  0.00000000000E+00  0.00000000000E+00  0.99999998245E-14  0.12500000000E+03  0.12500000000E+03 0.  0.
        -13    1    3    3    0    0 -0.23412985697E+02 -0.29907185212E+02 -0.11058236056E+01  0.37997916211E+02  0.10566000000E+00 0. -1.
         23    2    1    0    0    0  0.15480367742E+02  0.43905763398E+01 -0.25138886266E+02  0.95152344335E+02  0.90349798470E+02 0.  0.
         13    1    3    3    0    0  0.38893353439E+02  0.34297761551E+02 -0.24033062660E+02  0.57154428123E+02  0.10566000000E+00 0.  1.
         22    1    1    0    0    0 -0.15480367742E+02 -0.43905763398E+01  0.25138886266E+02  0.29847655665E+02  0.00000000000E+00 0.  1.
</event>
<event>
 5    1  0.1751020E-003  0.9118800E+02  0.7818608E-02  0.1130116E+00
         25   -1    0    0    0    0  0.00000000000E+00  0.00000000000E+00  0.99999998245E-14  0.12500000000E+03  0.12500000000E+03 0.  0.
        -13    1    3    3    0    0  0.17336998801E+01  0.48752980928E+02  0.21688319427E+01  0.48832098672E+02  0.10566000000E+00 0. -1.
         23    2    1    0    0    0  0.99197657397E+01  0.77653497787E+01 -0.23822539679E+02  0.98051608466E+02  0.94275670862E+02 0.  0.
         13    1    3    3    0    0  0.81860658596E+01 -0.40987631150E+02 -0.25991371622E+02  0.49219509794E+02  0.10566000000E+00 0.  1.
         22    1    1    0    0    0 -0.99197657397E+01 -0.77653497787E+01  0.23822539679E+02  0.26948391534E+02  0.00000000000E+00 0. -1.
</event>
<event>
 5    1  0.1751020E-003  0.9118800E+02  0.7818608E-02  0.1130116E+00
         25   -1    0    0    0    0  0.00000000000E+00  0.00000000000E+00  0.99999998245E-14  0.12500000000E+03  0.12500000000E+03 0.  0.
        -13    1    3    3    0    0  0.16521646190E+02  0.23029195027E+02 -0.84187152859E+01  0.29566781149E+02  0.10566000000E+00 0.  1.
         23    2    1    0    0    0 -0.42543573791E+01 -0.21371911173E+02  0.27189241945E+02  0.90155875367E+02  0.83150278664E+02 0.  0.
         13    1    3    3    0    0 -0.20776003569E+02 -0.44401106200E+02  0.35607957230E+02  0.60589094219E+02  0.10566000000E+00 0. -1.
         22    1    1    0    0    0  0.42543573791E+01  0.21371911173E+02 -0.27189241945E+02  0.34844124633E+02  0.00000000000E+00 0. -1.
</event>
<event>
 5    1  0.1751020E-003  0.9118800E+02  0.7818608E-02  0.1130116E+00
         25   -1    0    0    0    0  0.00000000000E+00  0.00000000000E+00  0.99999998245E-14  0.12500000000E+03  0.12500000000E+03 0.  0.
        -13    1    3    3    0    0  0.16390854958E+02 -0.14791789218E+02  0.22807879927E+02  0.31743782152E+02  0.10566000000E+00 0.  1.
         23    2    1    0    0    0 -0.11891901621E+02  0.21129276806E+02 -0.19385301815E+02  0.93957229682E+02  0.88680930423E+02 0.  0.
         13    1    3    3    0    0 -0.28282756579E+02  0.35921066024E+02 -0.42193181742E+02  0.62213447530E+02  0.10566000000E+00 0. -1.
         22    1    1    0    0    0  0.11891901621E+02 -0.21129276806E+02  0.19385301815E+02  0.31042770318E+02  0.00000000000E+00 0. -1.
</event>
<event>
 5    1  0.1751020E-003  0.9118800E+02  0.7818608E-02  0.1130116E+00
         25   -1    0    0    0    0  0.00000000000E+00  0.00000000000E+00  0.99999998245E-14  0.12500000000E+03  0.12500000000E+03 0.  0.
        -13    1    3    3    0    0 -0.12390714775E+01  0.93976537031E+01  0.49939741402E+02  0.50831487570E+02  0.10566000000E+00 0. -1.
         23    2    1    0    0    0 -0.18012924742E+02  0.20743234374E+02  0.97257376563E+01  0.95856609617E+02  0.91318959719E+02 0.  0.
         13    1    3    3    0    0 -0.16773853264E+02  0.11345580671E+02 -0.40214003745E+02  0.45025122047E+02  0.10566000000E+00 0.  1.
         22    1    1    0    0    0  0.18012924742E+02 -0.20743234374E+02 -0.97257376563E+01  0.29143390383E+02  0.00000000000E+00 0. -1.
</event>
<event>
 5    1  0.1751020E-003  0.9118800E+02  0.7818608E-02  0.1130116E+00
         25   -1    0    0    0    0  0.00000000000E+00  0.00000000000E+00  0.99999998245E-14  0.12500000000E+03  0.12500000000E+03 0.  0.
        -13    1    3    3    0    0  0.25459548519E+02 -0.31755387099E+02 -0.12399822796E+02  0.42548325349E+02  0.10566000000E+00 0.  1.
         23    2    1    0    0    0  0.22391051339E+02  0.19031595006E+02  0.23413898043E+01  0.95520466511E+02  0.90857672366E+02 0.  0.
         13    1    3    3    0    0 -0.30684971807E+01  0.50786982105E+02  0.14741212600E+02  0.52972141162E+02  0.10566000000E+00 0. -1.
         22    1    1    0    0    0 -0.22391051339E+02 -0.19031595006E+02 -0.23413898043E+01  0.29479533489E+02  0.00000000000E+00 0. -1.
</event>
<event>
 5    1  0.1751020E-003  0.9118800E+02  0.7818608E-02  0.1130116E+00
         25   -1    0    0    0    0  0.00000000000E+00  0.00000000000E+00  0.99999998245E-14  0.12500000000E+03  0.12500000000E+03 0.  0.
        -13    1    3    3    0    0 -0.43901548620E+02 -0.37930189114E+02 -0.70378362092E+01  0.58443027985E+02  0.10566000000E+00 0. -1.
         23    2    1    0    0    0 -0.19880250358E+02 -0.17769640250E+02 -0.19266541480E+02  0.92103433469E+02  0.86028241685E+02 0.  0.
         13    1    3    3    0    0  0.24021298263E+02  0.20160548864E+02 -0.12228705271E+02  0.33660405484E+02  0.10566000000E+00 0.  1.
         22    1    1    0    0    0  0.19880250358E+02  0.17769640250E+02  0.19266541480E+02  0.32896566531E+02  0.00000000000E+00 0. -1.
</event>
<event>
 5    1  0.1751020E-003  0.9118800E+02  0.7818608E-02  0.1130116E+00
         25   -1    0    0    0    0  0.00000000000E+00  0.00000000000E+00  0.99999998245E-14  0.12500000000E+03  0.12500000000E+03 0.  0.
        -13    1    3    3    0    0  0.46631986849E+02  0.36081801191E+02  0.17804680794E+02  0.61591041531E+02  0.10566000000E+00 0.  1.
         23    2    1    0    0    0  0.20345615055E+02  0.92000746275E+01  0.12050319312E+02  0.99626872076E+02  0.96341673325E+02 0.  0.
         13    1    3    3    0    0 -0.26286371794E+02 -0.26881726564E+02 -0.57543614814E+01  0.38035830545E+02  0.10566000000E+00 0. -1.
         22    1    1    0    0    0 -0.20345615055E+02 -0.92000746275E+01 -0.12050319312E+02  0.25373127924E+02  0.00000000000E+00 0.  1.
</event>
<event>
 5    1  0.1751020E-003  0.9118800E+02  0.7818608E-02  0.1130116E+00
         25   -1    0    0    0    0  0.00000000000E+00  0.00000000000E+00  0.99999998245E-14  0.12500000000E+03  0.12500000000E+03 0.  0.
        -13    1    3    3    0    0 -0.17035022178E+02  0.30087439885E+02 -0.40364401643E+02  0.53148302922E+02  0.10566000000E+00 0.  1.
         23    2    1    0    0    0  0.85489174979E+00  0.30610346418E+02 -0.34357635833E+01  0.94185577741E+02  0.89002215901E+02 0.  0.
         13    1    3    3    0    0  0.17889913928E+02  0.52290653309E+00  0.36928638060E+02  0.41037274819E+02  0.10566000000E+00 0. -1.
         22    1    1    0    0    0 -0.85489174979E+00 -0.30610346418E+02  0.34357635833E+01  0.30814422259E+02  0.00000000000E+00 0.  1.
</event>
<event>
 5    1  0.1751020E-003  0.9118800E+02  0.7818608E-02  0.1130116E+00
         25   -1    0    0    0    0  0.00000000000E+00  0.00000000000E+00  0.99999998245E-14  0.12500000000E+03  0.12500000000E+03 0.  0.
        -13    1    3    3    0    0  0.23970088411E+02 -0.39114604035E+02 -0.36184342794E+02  0.58428034493E+02  0.10566000000E+00 0. -1.
         23    2    1    0    0    0  0.19620209426E+02 -0.24901258276E+02 -0.50910822341E+01  0.92891677092E+02  0.87166044266E+02 0.  0.
         13    1    3    3    0    0 -0.43498789845E+01  0.14213345759E+02  0.31093260560E+02  0.34463642598E+02  0.10566000000E+00 0.  1.
         22    1    1    0    0    0 -0.19620209426E+02  0.24901258276E+02  0.50910822341E+01  0.32108322908E+02  0.00000000000E+00 0. -1.
</event>
<event>
 5    1  0.1751020E-003  0.9118800E+02  0.7818608E-02  0.1130116E+00
         25   -1    0    0    0    0  0.00000000000E+00  0.00000000000E+00  0.99999998245E-14  0.12500000000E+03  0.12500000000E+03 0.  0.
        -13    1    3    3    0    0  0.19179254660E+02 -0.38224487602E+02 -0.44748616417E+02  0.61898344864E+02  0.10566000000E+00 0.  1.
         23    2    1    0    0    0  0.13580812594E+02 -0.14531101468E+02 -0.23500126036E+02  0.94212871127E+02  0.89040540102E+02 0.  0.
         13    1    3    3    0    0 -0.55984420660E+01  0.23693386134E+02  0.21248490381E+02  0.32314526262E+02  0.10566000000E+00 0. -1.
         22    1    1    0    0    0 -0.13580812594E+02  0.14531101468E+02  0.23500126036E+02  0.30787128873E+02  0.00000000000E+00 0.  1.
</event>
<event>
 5    1  0.1751020E-003  0.9118800E+02  0.7818608E-02  0.1130116E+00
         25   -1    0    0    0    0  0.00000000000E+00  0.00000000000E+00  0.99999998245E-14  0.12500000000E+03  0.12500000000E+03 0.  0.
        -13    1    3    3    0    0 -0.14966044847E+02  0.17388247479E+02 -0.49544841939E+02  0.54598866064E+02  0.10566000000E+00 0.  1.
         23    2    1    0    0    0  0.21847218568E+01  0.26184204481E+02 -0.13533458857E+02  0.95444288495E+02  0.90752807801E+02 0.  0.
         13    1    3    3    0    0  0.17150766704E+02  0.87959570026E+01  0.36011383081E+02  0.40845422431E+02  0.10566000000E+00 0. -1.
         22    1    1    0    0    0 -0.21847218568E+01 -0.26184204481E+02  0.13533458857E+02  0.29555711505E+02  0.00000000000E+00 0.  1.
</event>
<event>
 5    1  0.1751020E-003  0.9118800E+02  0.7818608E-02  0.1130116E+00
         25   -1    0    0    0    0  0.00000000000E+00  0.00000000000E+00  0.99999998245E-14  0.12500000000E+03  0.12500000000E+03 0.  0.
        -13    1    3    3    0    0  0.30493686696E+01  0.51264398661E+02  0.58646867864E+01  0.51688905333E+02  0.10566000000E+00 0. -1.
         23    2    1    0    0    0  0.23736337534E+02  0.15111932727E+02  0.13093060129E+02  0.93964335776E+02  0.88690946235E+02 0.  0.
         13    1    3    3    0    0  0.20686968864E+02 -0.36152465934E+02  0.72283733426E+01  0.42275430443E+02  0.10566000000E+00 0.  1.
         22    1    1    0    0    0 -0.23736337534E+02 -0.15111932727E+02 -0.13093060129E+02  0.31035664224E+02  0.00000000000E+00 0. -1.
</event>
<event>
 5    1  0.1751020E-003  0.9118800E+02  0.7818608E-02  0.1130116E+00
         25   -1    0    0    0    0  0.00000000000E+00  0.00000000000E+00  0.99999998245E-14  0.12500000000E+03  0.12500000000E+03 0.  0.
        -13    1    3    3    0    0  0.19241311179E+02 -0.44761020943E+02 -0.72845933991E+01  0.49263105025E+02  0.10566000000E+00 0. -1.
         23    2    1    0    0    0 -0.17495013682E+02 -0.14689394582E+02 -0.15431723799E+02  0.97432049109E+02  0.93450587356E+02 0.  0.
         13    1    3    3    0    0 -0.36736324862E+02  0.30071626360E+02 -0.81471304000E+01  0.48168944083E+02  0.10566000000E+00 0.  1.
         22    1    1    0    0    0  0.17495013682E+02  0.14689394582E+02  0.15431723799E+02  0.27567950891E+02  0.00000000000E+00 0.  1.
</event>
<event>
 5    1  0.1751020E-003  0.9118800E+02  0.7818608E-02  0.1130116E+00
         25   -1    0    0    0    0  0.00000000000E+00  0.00000000000E+00  0.99999998245E-14  0.12500000000E+03  0.12500000000E+03 0.  0.
        -13    1    3    3    0    0 -0.29336649725E+02  0.36824359121E+02 -0.34689442888E+02  0.58481117069E+02  0.10566000000E+00 0.  1.
         23    2    1    0    0    0 -0.26158277852E+02  0.83954191610E+01 -0.11875499816E+02  0.95070648872E+02  0.90236701058E+02 0.  0.
         13    1    3    3    0    0  0.31783718725E+01 -0.28428939960E+02  0.22813943072E+02  0.36589531803E+02  0.10566000000E+00 0. -1.
         22    1    1    0    0    0  0.26158277852E+02 -0.83954191610E+01  0.11875499816E+02  0.29929351128E+02  0.00000000000E+00 0.  1.
</event>
<event>
 5    1  0.1751020E-003  0.9118800E+02  0.7818608E-02  0.1130116E+00
         25   -1    0    0    0    0  0.00000000000E+00  0.00000000000E+00  0.99999998245E-14  0.12500000000E+03  0.12500000000E+03 0.  0.
        -13    1    3    3    0    0 -0.78855429173E+01  0.13203493871E+01  0.37824329364E+02  0.38660265978E+02  0.10566000000E+00 0.  1.
         23    2    1    0    0    0 -0.22483927058E+02  0.12073229295E+02 -0.15608017730E+02  0.95085119773E+02  0.90256744586E+02 0.  0.
         13    1    3    3    0    0 -0.14598384141E+02  0.10752879908E+02 -0.53432347094E+02  0.56424853795E+02  0.10566000000E+00 0. -1.
         22    1    1    0    0    0  0.22483927058E+02 -0.12073229295E+02  0.15608017730E+02  0.29914880227E+02  0.00000000000E+00 0. -1.
</event>
<event>
 5    1  0.1751020E-003  0.9118800E+02  0.7818608E-02  0.1130116E+00
         25   -1    0    0    0    0  0.00000000000E+00  0.00000000000E+00  0.99999998245E-14  0.12500000000E+03  0.12500000000E+03 0.  0.
        -13    1    3    3    0    0 -0.80227010174E+01 -0.37217726077E+02  0.45169442399E+02  0.59074635476E+02  0.10566000000E+00 0. -1.
         23    2    1    0    0    0 -0.17334366221E+02 -0.13833862938E+02  0.15713346079E+02  0.97819763411E+02  0.93967764966E+02 0.  0.
         13    1    3    3    0    0 -0.93116652039E+01  0.23383863139E+02 -0.29456096320E+02  0.38745127934E+02  0.10566000000E+00 0.  1.
         22    1    1    0    0    0  0.17334366221E+02  0.13833862938E+02 -0.15713346079E+02  0.27180236589E+02  0.00000000000E+00 0. -1.
</event>
<event>
 5    1  0.1751020E-003  0.9118800E+02  0.7818608E-02  0.1130116E+00
         25   -1    0    0    0    0  0.00000000000E+00  0.00000000000E+00  0.99999998245E-14  0.12500000000E+03  0.12500000000E+03 0.  0.
        -13    1    3    3    0    0 -0.25664704479E+02 -0.27283621091E+02  0.54580840859E+01  0.37853333826E+02  0.10566000000E+00 0.  1.
         23    2    1    0    0    0  0.54895946492E+01  0.97089855049E+01 -0.26789002482E+02  0.95981890087E+02  0.91490286489E+02 0.  0.
         13    1    3    3    0    0  0.31154299128E+02  0.36992606596E+02 -0.32247086568E+02  0.58128556261E+02  0.10566000000E+00 0. -1.
         22    1    1    0    0    0 -0.54895946492E+01 -0.97089855049E+01  0.26789002482E+02  0.29018109913E+02  0.00000000000E+00 0. -1.
</event>
<event>
 5    1  0.1751020E-003  0.9118800E+02  0.7818608E-02  0.1130116E+00
         25   -1    0    0    0    0  0.00000000000E+00  0.00000000000E+00  0.99999998245E-14  0.12500000000E+03  0.12500000000E+03 0.  0.
        -13    1    3    3    0    0  0.36637557107E+02 -0.15914518941E+02  0.31192949470E+02  0.50681296003E+02  0.10566000000E+00 0. -1.
         23    2    1    0    0    0  0.22784596220E+01 -0.27021451617E+02  0.81378597702E+00  0.97870450181E+02  0.94035166535E+02 0.  0.
         13    1    3    3    0    0 -0.34359097485E+02 -0.11106932676E+02 -0.30379163493E+02  0.47189154178E+02  0.10566000000E+00 0.  1.
         22    1    1    0    0    0 -0.22784596220E+01  0.27021451617E+02 -0.81378597702E+00  0.27129549819E+02  0.00000000000E+00 0.  1.
</event>
<event>
 5    1  0.1751020E-003  0.9118800E+02  0.7818608E-02  0.1130116E+00
         25   -1    0    0    0    0  0.00000000000E+00  0.00000000000E+00  0.99999998245E-14  0.12500000000E+03  0.12500000000E+03 0.  0.
        -13    1    3    3    0    0 -0.18591370980E+02  0.30282205550E+02 -0.12544399202E+02  0.37683207975E+02  0.10566000000E+00 0.  1.
         23    2    1    0    0    0  0.49204710778E+01 -0.25188417895E+02 -0.80682076740E+01  0.98097148725E+02  0.94336033313E+02 0.  0.
         13    1    3    3    0    0  0.23511842057E+02 -0.55470623445E+02  0.44761915283E+01  0.60413940750E+02  0.10566000000E+00 0. -1.
         22    1    1    0    0    0 -0.49204710778E+01  0.25188417895E+02  0.80682076740E+01  0.26902851275E+02  0.00000000000E+00 0. -1.
</event>
<event>
 5    1  0.1751020E-003  0.9118800E+02  0.7818608E-02  0.1130116E+00
         25   -1    0    0    0    0  0.00000000000E+00  0.00000000000E+00  0.99999998245E-14  0.12500000000E+03  0.12500000000E+03 0.  0.
        -13    1    3    3    0    0  0.15536865159E+02  0.61662082275E+01 -0.55403348276E+02  0.57870186341E+02  0.10566000000E+00 0. -1.
         23    2    1    0    0    0  0.22967496474E+02  0.44858906732E+01 -0.19601319123E+02  0.94473932111E+02  0.89406280695E+02 0.  0.
         13    1    3    3    0    0  0.74306313150E+01 -0.16803175543E+01  0.35802029154E+02  0.36603745770E+02  0.10566000000E+00 0.  1.
         22    1    1    0    0    0 -0.22967496474E+02 -0.44858906732E+01  0.19601319123E+02  0.30526067889E+02  0.00000000000E+00 0. -1.
</event>
<event>
 5    1  0.1751020E-003  0.9118800E+02  0.7818608E-02  0.1130116E+00
         25   -1    0    0    0    0  0.00000000000E+00  0.00000000000E+00  0.99999998245E-14  0.12500000000E+03  0.12500000000E+03 0.  0.
        -13    1    3    3    0    0  0.10983269607E+02  0.30550748744E+02 -0.29941238335E+02  0.44164118661E+02  0.10566000000E+00 0.  1.
         23    2    1    0    0    0  0.38401819865E+01  0.21307798069E+02  0.20043365936E+02  0.95495665161E+02  0.90823544801E+02 0.  0.
         13    1    3    3    0    0 -0.71430876208E+01 -0.92429506750E+01  0.49984604271E+02  0.51331546500E+02  0.10566000000E+00 0. -1.
         22    1    1    0    0    0 -0.38401819865E+01 -0.21307798069E+02 -0.20043365936E+02  0.29504334839E+02  0.00000000000E+00 0. -1.
</event>
<event>
 5    1  0.1751020E-003  0.9118800E+02  0.7818608E-02  0.1130116E+00
         25   -1    0    0    0    0  0.00000000000E+00  0.00000000000E+00  0.99999998245E-14  0.12500000000E+03  0.12500000000E+03 0.  0.
        -13    1    3    3    0    0  0.15164538878E+01 -0.48632659932E+02  0.31354130080E+02  0.57883744537E+02  0.10566000000E+00 0.  1.
         23    2    1    0    0    0 -0.12711551178E+02 -0.26341618731E+02  0.47989764168E+01  0.95360590671E+02  0.90637451794E+02 0.  0.
         13    1    3    3    0    0 -0.14228005066E+02  0.22291041201E+02 -0.26555153664E+02  0.37476846134E+02  0.10566000000E+00 0. -1.
         22    1    1    0    0    0  0.12711551178E+02  0.26341618731E+02 -0.47989764168E+01  0.29639409329E+02  0.00000000000E+00 0.  1.
</event>
<event>
 5    1  0.1751020E-003  0.9118800E+02  0.7818608E-02  0.1130116E+00
         25   -1    0    0    0    0  0.00000000000E+00  0.00000000000E+00  0.99999998245E-14  0.12500000000E+03  0.12500000000E+03 0.  0.
        -13    1    3    3    0    0 -0.27174705347E+02  0.15536516178E+02 -0.22999843176E+02  0.38843942846E+02  0.10566000000E+00 0. -1.
         23    2    1    0    0    0  0.18558910521E+02  0.19572410945E+02  0.10893552310E+02  0.95910793894E+02  0.91393098610E+02 0.  0.
         13    1    3    3    0    0  0.45733615868E+02  0.40358947673E+01  0.33893395486E+02  0.57066851048E+02  0.10566000000E+00 0.  1.
         22    1    1    0    0    0 -0.18558910521E+02 -0.19572410945E+02 -0.10893552310E+02  0.29089206106E+02  0.00000000000E+00 0.  1.
</event>
<event>
 5    1  0.1751020E-003  0.9118800E+02  0.7818608E-02  0.1130116E+00
         25   -1    0    0    0    0  0.00000000000E+00  0.00000000000E+00  0.99999998245E-14  0.12500000000E+03  0.12500000000E+03 0.  0.
        -13    1    3    3    0    0  0.41190423199E+02 -0.19665149426E+02 -0.25094318176E+02  0.52087474828E+02  0.10566000000E+00 0. -1.
         23    2    1    0    0    0  0.21813709809E+02  0.16345196196E+02 -0.13440705082E+02  0.94608291798E+02  0.89593933665E+02 0.  0.
         13    1    3    3    0    0 -0.19376713390E+02  0.36010345622E+02  0.11653613094E+02  0.42520816970E+02  0.10566000000E+00 0.  1.
         22    1    1    0    0    0 -0.21813709809E+02 -0.16345196196E+02  0.13440705082E+02  0.30391708202E+02  0.00000000000E+00 0.  1.
</event>
<event>
 5    1  0.1751020E-003  0.9118800E+02  0.7818608E-02  0.1130116E+00
         25   -1    0    0    0    0  0.00000000000E+00  0.00000000000E+00  0.99999998245E-14  0.12500000000E+03  0.12500000000E+03 0.  0.
        -13    1    3    3    0    0  0.26426217357E+02 -0.45406722409E+01  0.23652017457E+02  0.35754604767E+02  0.10566000000E+00 0.  1.
         23    2    1    0    0    0 -0.24356618539E+02  0.18176118378E+02  0.72178526032E+01  0.93763586279E+02  0.88407559461E+02 0.  0.
         13    1    3    3    0    0 -0.50782835896E+02  0.22716790618E+02 -0.16434164854E+02  0.58008981513E+02  0.10566000000E+00 0. -1.
         22    1    1    0    0    0  0.24356618539E+02 -0.18176118378E+02 -0.72178526032E+01  0.31236413721E+02  0.00000000000E+00 0. -1.
</event>
<event>
 5    1  0.1751020E-003  0.9118800E+02  0.7818608E-02  0.1130116E+00
         25   -1    0    0    0    0  0.00000000000E+00  0.00000000000E+00  0.99999998245E-14  0.12500000000E+03  0.12500000000E+03 0.  0.
        -13    1    3    3    0    0  0.65014945318E+01 -0.41370280603E+02  0.17720483828E+02  0.45473027824E+02  0.10566000000E+00 0. -1.
         23    2    1    0    0    0 -0.34855581974E+01  0.46939134117E+01  0.30206184862E+02  0.94233207139E+02  0.89069084337E+02 0.  0.
         13    1    3    3    0    0 -0.99870527292E+01  0.46064194015E+02  0.12485701034E+02  0.48760179315E+02  0.10566000000E+00 0.  1.
         22    1    1    0    0    0  0.34855581974E+01 -0.46939134117E+01 -0.30206184862E+02  0.30766792861E+02  0.00000000000E+00 0.  1.
</event>
<event>
 5    1  0.1751020E-003  0.9118800E+02  0.7818608E-02  0.1130116E+00
         25   -1    0    0    0    0  0.00000000000E+00  0.00000000000E+00  0.99999998245E-14  0.12500000000E+03  0.12500000000E+03 0.  0.
        -13    1    3    3    0    0  0.69389848548E+01  0.22507385503E+02 -0.34505755260E+02  0.41777867623E+02  0.10566000000E+00 0.  1.
         23    2    1    0    0    0  0.10380006118E+02  0.70712261841E+01  0.21569226854E+02  0.10004046647E+03  0.96876811563E+02 0.  0.
         13    1    3    3    0    0  0.34410212631E+01 -0.15436159319E+02  0.56074982114E+02  0.58262598852E+02  0.10566000000E+00 0. -1.
         22    1    1    0    0    0 -0.10380006118E+02 -0.70712261841E+01 -0.21569226854E+02  0.24959533526E+02  0.00000000000E+00 0. -1.
</event>
<event>
 5    1  0.1751020E-003  0.9118800E+02  0.7818608E-02  0.1130116E+00
         25   -1    0    0    0    0  0.00000000000E+00  0.00000000000E+00  0.99999998245E-14  0.12500000000E+03  0.12500000000E+03 0.  0.
        -13    1    3    3    0    0  0.37193589687E+02 -0.21413659472E+01 -0.49488172839E+02  0.61943837279E+02  0.10566000000E+00 0.  1.
         23    2    1    0    0    0  0.20167787042E+02 -0.68857400041E+01 -0.29184507775E+02  0.88862920100E+02  0.81183311247E+02 0.  0.
         13    1    3    3    0    0 -0.17025802645E+02 -0.47443740570E+01  0.20303665064E+02  0.26919082821E+02  0.10566000000E+00 0. -1.
         22    1    1    0    0    0 -0.20167787042E+02  0.68857400041E+01  0.29184507775E+02  0.36137079900E+02  0.00000000000E+00 0.  1.
</event>
<event>
 5    1  0.1751020E-003  0.9118800E+02  0.7818608E-02  0.1130116E+00
         25   -1    0    0    0    0  0.00000000000E+00  0.00000000000E+00  0.99999998245E-14  0.12500000000E+03  0.12500000000E+03 0.  0.
        -13    1    3    3    0    0  0.52425599800E+02 -0.25419653356E+02 -0.16435873372E+02  0.60537190129E+02  0.10566000000E+00 0. -1.
         23    2    1    0    0    0  0.38755233120E+02 -0.20453986486E+02 -0.18444038612E+01  0.81139590939E+02  0.68263443620E+02 0.  0.
         13    1    3    3    0    0 -0.13670366680E+02  0.49656668703E+01  0.14591469510E+02  0.20602400810E+02  0.10566000000E+00 0.  1.
         22    1    1    0    0    0 -0.38755233120E+02  0.20453986486E+02  0.18444038612E+01  0.43860409061E+02  0.00000000000E+00 0. -1.
</event>
<event>
 5    1  0.1751020E-003  0.9118800E+02  0.7818608E-02  0.1130116E+00
         25   -1    0    0    0    0  0.00000000000E+00  0.00000000000E+00  0.99999998245E-14  0.12500000000E+03  0.12500000000E+03 0.  0.
        -13    1    3    3    0    0  0.25349889138E+02 -0.19930955985E+02 -0.53193404486E+02  0.62204576445E+02  0.10566000000E+00 0. -1.
         23    2    1    0    0    0  0.14430821296E+02 -0.12590148767E+02 -0.23484191358E+02  0.94697067914E+02  0.89717707163E+02 0.  0.
         13    1    3    3    0    0 -0.10919067842E+02  0.73408072184E+01  0.29709213128E+02  0.32492491470E+02  0.10566000000E+00 0.  1.
         22    1    1    0    0    0 -0.14430821296E+02  0.12590148767E+02  0.23484191358E+02  0.30302932086E+02  0.00000000000E+00 0. -1.
</event>
<event>
 5    1  0.1751020E-003  0.9118800E+02  0.7818608E-02  0.1130116E+00
         25   -1    0    0    0    0  0.00000000000E+00  0.00000000000E+00  0.99999998245E-14  0.12500000000E+03  0.12500000000E+03 0.  0.
        -13    1    3    3    0    0 -0.54501372462E+02  0.64578641907E+01 -0.11474014696E+02  0.56069312350E+02  0.10566000000E+00 0.  1.
         23    2    1    0    0    0 -0.25437966810E+02 -0.51324292203E+01  0.13170370103E+02  0.95898614573E+02  0.91376439213E+02 0.  0.
         13    1    3    3    0    0  0.29063405652E+02 -0.11590293411E+02  0.24644384799E+02  0.39829302223E+02  0.10566000000E+00 0. -1.
         22    1    1    0    0    0  0.25437966810E+02  0.51324292203E+01 -0.13170370103E+02  0.29101385427E+02  0.00000000000E+00 0.  1.
</event>
<event>
 5    1  0.1751020E-003  0.9118800E+02  0.7818608E-02  0.1130116E+00
         25   -1    0    0    0    0  0.00000000000E+00  0.00000000000E+00  0.99999998245E-14  0.12500000000E+03  0.12500000000E+03 0.  0.
        -13    1    3    3    0    0  0.88152875069E+01  0.23733481550E+01 -0.34592752044E+02  0.35777251618E+02  0.10566000000E+00 0.  1.
         23    2    1    0    0    0 -0.22549947204E+02 -0.10756354268E+02  0.14963930484E+02  0.95877526005E+02  0.91347586182E+02 0.  0.
         13    1    3    3    0    0 -0.31365234711E+02 -0.13129702423E+02  0.49556682528E+02  0.60100274387E+02  0.10566000000E+00 0. -1.
         22    1    1    0    0    0  0.22549947204E+02  0.10756354268E+02 -0.14963930484E+02  0.29122473995E+02  0.00000000000E+00 0. -1.
</event>
<event>
 5    1  0.1751020E-003  0.9118800E+02  0.7818608E-02  0.1130116E+00
         25   -1    0    0    0    0  0.00000000000E+00  0.00000000000E+00  0.99999998245E-14  0.12500000000E+03  0.12500000000E+03 0.  0.
        -13    1    3    3    0    0 -0.15086868174E+02 -0.39327170894E+02 -0.22543977976E+02  0.47775329081E+02  0.10566000000E+00 0.  1.
         23    2    1    0    0    0  0.21666950030E+02 -0.17777123544E+02  0.19246520464E+01  0.96907525374E+02  0.92746327925E+02 0.  0.
         13    1    3    3    0    0  0.36753818204E+02  0.21550047350E+02  0.24468630023E+02  0.49132196293E+02  0.10566000000E+00 0. -1.
         22    1    1    0    0    0 -0.21666950030E+02  0.17777123544E+02 -0.19246520464E+01  0.28092474626E+02  0.00000000000E+00 0.  1.
</event>
<event>
 5    1  0.1751020E-003  0.9118800E+02  0.7818608E-02  0.1130116E+00
         25   -1    0    0    0    0  0.00000000000E+00  0.00000000000E+00  0.99999998245E-14  0.12500000000E+03  0.12500000000E+03 0.  0.
        -13    1    3    3    0    0  0.13569463020E+02  0.16877412559E+02 -0.49233597806E+02  0.53786017683E+02  0.10566000000E+00 0.  1.
         23    2    1    0    0    0  0.24543756876E+02 -0.43531788445E+01 -0.13852567782E+02  0.96482640343E+02  0.92171905078E+02 0.  0.
         13    1    3    3    0    0  0.10974293856E+02 -0.21230591403E+02  0.35381030023E+02  0.42696622660E+02  0.10566000000E+00 0. -1.
         22    1    1    0    0    0 -0.24543756876E+02  0.43531788445E+01  0.13852567782E+02  0.28517359657E+02  0.00000000000E+00 0. -1.
</event>
<event>
 5    1  0.1751020E-003  0.9118800E+02  0.7818608E-02  0.1130116E+00
         25   -1    0    0    0    0  0.00000000000E+00  0.00000000000E+00  0.99999998245E-14  0.12500000000E+03  0.12500000000E+03 0.  0.
        -13    1    3    3    0    0 -0.51715733966E+02  0.14854818143E+02  0.18578140785E+02  0.56923995299E+02  0.10566000000E+00 0. -1.
         23    2    1    0    0    0 -0.16201118805E+02  0.23858495025E+02  0.74753475192E+01  0.95207637624E+02  0.90426265023E+02 0.  0.
         13    1    3    3    0    0  0.35514615160E+02  0.90036768816E+01 -0.11102793266E+02  0.38283642326E+02  0.10566000000E+00 0.  1.
         22    1    1    0    0    0  0.16201118805E+02 -0.23858495025E+02 -0.74753475192E+01  0.29792362376E+02  0.00000000000E+00 0. -1.
</event>
<event>
 5    1  0.1751020E-003  0.9118800E+02  0.7818608E-02  0.1130116E+00
         25   -1    0    0    0    0  0.00000000000E+00  0.00000000000E+00  0.99999998245E-14  0.12500000000E+03  0.12500000000E+03 0.  0.
        -13    1    3    3    0    0  0.28049593246E+01 -0.29804862792E+02  0.15307027739E+02  0.33623115637E+02  0.10566000000E+00 0. -1.
         23    2    1    0    0    0 -0.57919409147E+00  0.22958031636E+02 -0.17746936460E+02  0.95976553683E+02  0.91482995254E+02 0.  0.
         13    1    3    3    0    0 -0.33841534161E+01  0.52762894429E+02 -0.33053964199E+02  0.62353438046E+02  0.10566000000E+00 0.  1.
         22    1    1    0    0    0  0.57919409147E+00 -0.22958031636E+02  0.17746936460E+02  0.29023446317E+02  0.00000000000E+00 0.  1.
</event>
<event>
 5    1  0.1751020E-003  0.9118800E+02  0.7818608E-02  0.1130116E+00
         25   -1    0    0    0    0  0.00000000000E+00  0.00000000000E+00  0.99999998245E-14  0.12500000000E+03  0.12500000000E+03 0.  0.
        -13    1    3    3    0    0 -0.53576210351E+01 -0.22742787986E+02  0.34855379550E+02  0.41962449358E+02  0.10566000000E+00 0.  1.
         23    2    1    0    0    0 -0.21616249078E+02 -0.35683354080E+01 -0.15444297802E+02  0.98194747224E+02  0.94465267723E+02 0.  0.
         13    1    3    3    0    0 -0.16258628043E+02  0.19174452578E+02 -0.50299677352E+02  0.56232297866E+02  0.10566000000E+00 0. -1.
         22    1    1    0    0    0  0.21616249078E+02  0.35683354080E+01  0.15444297802E+02  0.26805252776E+02  0.00000000000E+00 0. -1.
</event>
<event>
 5    1  0.1751020E-003  0.9118800E+02  0.7818608E-02  0.1130116E+00
         25   -1    0    0    0    0  0.00000000000E+00  0.00000000000E+00  0.99999998245E-14  0.12500000000E+03  0.12500000000E+03 0.  0.
        -13    1    3    3    0    0  0.13637590689E+02 -0.19469146988E+02 -0.22743002587E+02  0.32898129049E+02  0.10566000000E+00 0. -1.
         23    2    1    0    0    0 -0.26354421318E+02 -0.31514771631E+01  0.18521646362E+02  0.92634297238E+02  0.86796165292E+02 0.  0.
         13    1    3    3    0    0 -0.39992012007E+02  0.16317669825E+02  0.41264648949E+02  0.59736168188E+02  0.10566000000E+00 0.  1.
         22    1    1    0    0    0  0.26354421318E+02  0.31514771631E+01 -0.18521646362E+02  0.32365702762E+02  0.00000000000E+00 0.  1.
</event>
<event>
 5    1  0.1751020E-003  0.9118800E+02  0.7818608E-02  0.1130116E+00
         25   -1    0    0    0    0  0.00000000000E+00  0.00000000000E+00  0.99999998245E-14  0.12500000000E+03  0.12500000000E+03 0.  0.
        -13    1    3    3    0    0  0.52549515844E+01  0.33343004518E+02 -0.78802704632E+01  0.34662375756E+02  0.10566000000E+00 0.  1.
         23    2    1    0    0    0 -0.45705492796E+00 -0.27942126306E+02 -0.68726325765E+01  0.96221459380E+02  0.91817018275E+02 0.  0.
         13    1    3    3    0    0 -0.57120065124E+01 -0.61285130824E+02  0.10076378867E+01  0.61559083624E+02  0.10566000000E+00 0. -1.
         22    1    1    0    0    0  0.45705492796E+00  0.27942126306E+02  0.68726325765E+01  0.28778540620E+02  0.00000000000E+00 0. -1.
</event>
<event>
 5    1  0.1751020E-003  0.9118800E+02  0.7818608E-02  0.1130116E+00
         25   -1    0    0    0    0  0.00000000000E+00  0.00000000000E+00  0.99999998245E-14  0.12500000000E+03  0.12500000000E+03 0.  0.
        -13    1    3    3    0    0 -0.21874811127E+02 -0.14004052410E+02  0.27249056099E+02  0.37644960726E+02  0.10566000000E+00 0. -1.
         23    2    1    0    0    0 -0.13519334191E+02  0.17801526867E+02 -0.19861475433E+02  0.95097743193E+02  0.90274225548E+02 0.  0.
         13    1    3    3    0    0  0.83554769355E+01  0.31805579277E+02 -0.47110531532E+02  0.57452782467E+02  0.10566000000E+00 0.  1.
         22    1    1    0    0    0  0.13519334191E+02 -0.17801526867E+02  0.19861475433E+02  0.29902256807E+02  0.00000000000E+00 0.  1.
</event>
<event>
 5    1  0.1751020E-003  0.9118800E+02  0.7818608E-02  0.1130116E+00
         25   -1    0    0    0    0  0.00000000000E+00  0.00000000000E+00  0.99999998245E-14  0.12500000000E+03  0.12500000000E+03 0.  0.
        -13    1    3    3    0    0 -0.97107764804E+00  0.25155495911E+02 -0.22550989468E+02  0.33797932723E+02  0.10566000000E+00 0.  1.
         23    2    1    0    0    0 -0.14720791559E+02 -0.21173353742E+02  0.15150540868E+02  0.95090946163E+02  0.90264813415E+02 0.  0.
         13    1    3    3    0    0 -0.13749713911E+02 -0.46328849654E+02  0.37701530335E+02  0.61293013440E+02  0.10566000000E+00 0. -1.
         22    1    1    0    0    0  0.14720791559E+02  0.21173353742E+02 -0.15150540868E+02  0.29909053837E+02  0.00000000000E+00 0. -1.
</event>
<event>
 5    1  0.1751020E-003  0.9118800E+02  0.7818608E-02  0.1130116E+00
         25   -1    0    0    0    0  0.00000000000E+00  0.00000000000E+00  0.99999998245E-14  0.12500000000E+03  0.12500000000E+03 0.  0.
        -13    1    3    3    0    0 -0.50566550773E+02 -0.21186980447E+02  0.27145190346E+02  0.61177910397E+02  0.10566000000E+00 0. -1.
         23    2    1    0    0    0 -0.24182769397E+02 -0.16244231246E+02  0.62251188566E+01  0.95210178092E+02  0.90429776750E+02 0.  0.
         13    1    3    3    0    0  0.26383781376E+02  0.49427492010E+01 -0.20920071489E+02  0.34032267696E+02  0.10566000000E+00 0.  1.
         22    1    1    0    0    0  0.24182769397E+02  0.16244231246E+02 -0.62251188566E+01  0.29789821908E+02  0.00000000000E+00 0. -1.
</event>
<event>
 5    1  0.1751020E-003  0.9118800E+02  0.7818608E-02  0.1130116E+00
         25   -1    0    0    0    0  0.00000000000E+00  0.00000000000E+00  0.99999998245E-14  0.12500000000E+03  0.12500000000E+03 0.  0.
        -13    1    3    3    0    0  0.28587290117E+02 -0.24621206992E+02  0.19602953255E+01  0.37779503858E+02  0.10566000000E+00 0. -1.
         23    2    1    0    0    0  0.38205725703E+01  0.26414260471E+02 -0.11269089725E+02  0.96029285231E+02  0.91555017928E+02 0.  0.
         13    1    3    3    0    0 -0.24766717546E+02  0.51035467463E+02 -0.13229385050E+02  0.58249781373E+02  0.10566000000E+00 0.  1.
         22    1    1    0    0    0 -0.38205725703E+01 -0.26414260471E+02  0.11269089725E+02  0.28970714769E+02  0.00000000000E+00 0.  1.
</event>
<event>
 5    1  0.1751020E-003  0.9118800E+02  0.7818608E-02  0.1130116E+00
         25   -1    0    0    0    0  0.00000000000E+00  0.00000000000E+00  0.99999998245E-14  0.12500000000E+03  0.12500000000E+03 0.  0.
        -13    1    3    3    0    0  0.22085048094E+02 -0.16345447785E+02 -0.48924847226E+02  0.56112163144E+02  0.10566000000E+00 0.  1.
         23    2    1    0    0    0 -0.65374051965E+01 -0.17817480095E+02 -0.25981740672E+02  0.92824681634E+02  0.87069916782E+02 0.  0.
         13    1    3    3    0    0 -0.28622453290E+02 -0.14720323095E+01  0.22943106554E+02  0.36712518490E+02  0.10566000000E+00 0. -1.
         22    1    1    0    0    0  0.65374051965E+01  0.17817480095E+02  0.25981740672E+02  0.32175318366E+02  0.00000000000E+00 0.  1.
</event>
<event>
 5    1  0.1751020E-003  0.9118800E+02  0.7818608E-02  0.1130116E+00
         25   -1    0    0    0    0  0.00000000000E+00  0.00000000000E+00  0.99999998245E-14  0.12500000000E+03  0.12500000000E+03 0.  0.
        -13    1    3    3    0    0 -0.25201026560E+02 -0.94033963053E+01 -0.34803284795E+02  0.43986309214E+02  0.10566000000E+00 0.  1.
         23    2    1    0    0    0  0.20651847234E+02  0.10164391941E+02 -0.14369631160E+02  0.97865152343E+02  0.94028123909E+02 0.  0.
         13    1    3    3    0    0  0.45852873794E+02  0.19567788246E+02  0.20433653636E+02  0.53878843129E+02  0.10566000000E+00 0. -1.
         22    1    1    0    0    0 -0.20651847234E+02 -0.10164391941E+02  0.14369631160E+02  0.27134847657E+02  0.00000000000E+00 0. -1.
</event>
<event>
 5    1  0.1751020E-003  0.9118800E+02  0.7818608E-02  0.1130116E+00
         25   -1    0    0    0    0  0.00000000000E+00  0.00000000000E+00  0.99999998245E-14  0.12500000000E+03  0.12500000000E+03 0.  0.
        -13    1    3    3    0    0  0.17962410749E+02  0.44017250247E+00  0.28213725824E+02  0.33449475940E+02  0.10566000000E+00 0. -1.
         23    2    1    0    0    0 -0.21801780879E+02 -0.83170197851E+01 -0.18357329945E+02  0.95310236944E+02  0.90567981296E+02 0.  0.
         13    1    3    3    0    0 -0.39764191627E+02 -0.87571922876E+01 -0.46571055769E+02  0.61860761004E+02  0.10566000000E+00 0.  1.
         22    1    1    0    0    0  0.21801780879E+02  0.83170197851E+01  0.18357329945E+02  0.29689763056E+02  0.00000000000E+00 0.  1.
</event>
<event>
 5    1  0.1751020E-003  0.9118800E+02  0.7818608E-02  0.1130116E+00
         25   -1    0    0    0    0  0.00000000000E+00  0.00000000000E+00  0.99999998245E-14  0.12500000000E+03  0.12500000000E+03 0.  0.
        -13    1    3    3    0    0  0.62969206017E+01  0.24642452966E+02 -0.50190307261E+02  0.56267040123E+02  0.10566000000E+00 0.  1.
         23    2    1    0    0    0  0.18596554005E+02 -0.85803325330E+00 -0.21134036898E+02  0.96835917243E+02  0.92649766923E+02 0.  0.
         13    1    3    3    0    0  0.12299633404E+02 -0.25500486219E+02  0.29056270363E+02  0.40568877120E+02  0.10566000000E+00 0. -1.
         22    1    1    0    0    0 -0.18596554005E+02  0.85803325330E+00  0.21134036898E+02  0.28164082757E+02  0.00000000000E+00 0.  1.
</event>
<event>
 5    1  0.1751020E-003  0.9118800E+02  0.7818608E-02  0.1130116E+00
         25   -1    0    0    0    0  0.00000000000E+00  0.00000000000E+00  0.99999998245E-14  0.12500000000E+03  0.12500000000E+03 0.  0.
        -13    1    3    3    0    0  0.82699542351E+01 -0.32661346894E+02  0.17627801462E+02  0.38025074259E+02  0.10566000000E+00 0. -1.
         23    2    1    0    0    0 -0.29572866480E+01  0.23825896725E+02  0.16931436990E+02  0.95621564752E+02  0.90996654818E+02 0.  0.
         13    1    3    3    0    0 -0.11227240883E+02  0.56487243619E+02 -0.69636447278E+00  0.57596490493E+02  0.10566000000E+00 0.  1.
         22    1    1    0    0    0  0.29572866480E+01 -0.23825896725E+02 -0.16931436990E+02  0.29378435248E+02  0.00000000000E+00 0.  1.
</event>
<event>
 5    1  0.1751020E-003  0.9118800E+02  0.7818608E-02  0.1130116E+00
         25   -1    0    0    0    0  0.00000000000E+00  0.00000000000E+00  0.99999998245E-14  0.12500000000E+03  0.12500000000E+03 0.  0.
        -13    1    3    3    0    0  0.32161158492E+02  0.86034154188E+01 -0.11314131984E+02  0.35162190191E+02  0.10566000000E+00 0. -1.
         23    2    1    0    0    0 -0.92593528543E+01 -0.18146215413E+02  0.22267863906E+02  0.94819236060E+02  0.89887757870E+02 0.  0.
         13    1    3    3    0    0 -0.41420511346E+02 -0.26749630832E+02  0.33581995890E+02  0.59657045869E+02  0.10566000000E+00 0.  1.
         22    1    1    0    0    0  0.92593528543E+01  0.18146215413E+02 -0.22267863906E+02  0.30180763940E+02  0.00000000000E+00 0.  1.
</event>
<event>
 5    1  0.1751020E-003  0.9118800E+02  0.7818608E-02  0.1130116E+00
         25   -1    0    0    0    0  0.00000000000E+00  0.00000000000E+00  0.99999998245E-14  0.12500000000E+03  0.12500000000E+03 0.  0.
        -13    1    3    3    0    0  0.14170978087E+02  0.99011406597E+01 -0.30882662631E+02  0.35392078514E+02  0.10566000000E+00 0.  1.
         23    2    1    0    0    0 -0.25897448466E+02 -0.15237206371E+02  0.47056593482E+01  0.94586293798E+02  0.89563237155E+02 0.  0.
         13    1    3    3    0    0 -0.40068426552E+02 -0.25138347030E+02  0.35588321979E+02  0.59194215285E+02  0.10566000000E+00 0. -1.
         22    1    1    0    0    0  0.25897448466E+02  0.15237206371E+02 -0.47056593482E+01  0.30413706202E+02  0.00000000000E+00 0. -1.
</event>
<event>
 5    1  0.1751020E-003  0.9118800E+02  0.7818608E-02  0.1130116E+00
         25   -1    0    0    0    0  0.00000000000E+00  0.00000000000E+00  0.99999998245E-14  0.12500000000E+03  0.12500000000E+03 0.  0.
        -13    1    3    3    0    0  0.12517574696E+02  0.48086518648E+02 -0.37739997832E+02  0.62396486699E+02  0.10566000000E+00 0. -1.
         23    2    1    0    0    0  0.84881480744E+01  0.22653896755E+02 -0.17759790212E+02  0.94989037931E+02  0.90123578950E+02 0.  0.
         13    1    3    3    0    0 -0.40294266215E+01 -0.25432621893E+02  0.19980207619E+02  0.32592551232E+02  0.10566000000E+00 0.  1.
         22    1    1    0    0    0 -0.84881480744E+01 -0.22653896755E+02  0.17759790212E+02  0.30010962069E+02  0.00000000000E+00 0. -1.
</event>
<event>
 5    1  0.1751020E-003  0.9118800E+02  0.7818608E-02  0.1130116E+00
         25   -1    0    0    0    0  0.00000000000E+00  0.00000000000E+00  0.99999998245E-14  0.12500000000E+03  0.12500000000E+03 0.  0.
        -13    1    3    3    0    0  0.32075503404E+02  0.39924191274E+01  0.12039804189E+02  0.34492685863E+02  0.10566000000E+00 0. -1.
         23    2    1    0    0    0 -0.10118912277E+02 -0.80844395269E+01 -0.28156670726E+02  0.94007280621E+02  0.88751451567E+02 0.  0.
         13    1    3    3    0    0 -0.42194415681E+02 -0.12076858654E+02 -0.40196474915E+02  0.59514594758E+02  0.10566000000E+00 0.  1.
         22    1    1    0    0    0  0.10118912277E+02  0.80844395269E+01  0.28156670726E+02  0.30992719379E+02  0.00000000000E+00 0.  1.
</event>
<event>
 5    1  0.1751020E-003  0.9118800E+02  0.7818608E-02  0.1130116E+00
         25   -1    0    0    0    0  0.00000000000E+00  0.00000000000E+00  0.99999998245E-14  0.12500000000E+03  0.12500000000E+03 0.  0.
        -13    1    3    3    0    0  0.14354005879E+02  0.59096366388E+02 -0.95572042281E+01  0.61561102343E+02  0.10566000000E+00 0.  1.
         23    2    1    0    0    0  0.24177246407E+01  0.28079631444E+02 -0.10798292297E+02  0.94818644645E+02  0.89886935432E+02 0.  0.
         13    1    3    3    0    0 -0.11936281238E+02 -0.31016734944E+02 -0.12410880692E+01  0.33257542302E+02  0.10566000000E+00 0. -1.
         22    1    1    0    0    0 -0.24177246407E+01 -0.28079631444E+02  0.10798292297E+02  0.30181355355E+02  0.00000000000E+00 0.  1.
</event>
<event>
 5    1  0.1751020E-003  0.9118800E+02  0.7818608E-02  0.1130116E+00
         25   -1    0    0    0    0  0.00000000000E+00  0.00000000000E+00  0.99999998245E-14  0.12500000000E+03  0.12500000000E+03 0.  0.
        -13    1    3    3    0    0 -0.46744190880E+02 -0.33388974670E+01  0.11266318019E+02  0.48198637980E+02  0.10566000000E+00 0.  1.
         23    2    1    0    0    0  0.48823831780E+01  0.16301652861E+02  0.13191598034E+02  0.10346863195E+03  0.10120354731E+03 0.  0.
         13    1    3    3    0    0  0.51626574058E+02  0.19640550328E+02  0.19252800146E+01  0.55269993969E+02  0.10566000000E+00 0. -1.
         22    1    1    0    0    0 -0.48823831780E+01 -0.16301652861E+02 -0.13191598034E+02  0.21531368051E+02  0.00000000000E+00 0. -1.
</event>
<event>
 5    1  0.1751020E-003  0.9118800E+02  0.7818608E-02  0.1130116E+00
         25   -1    0    0    0    0  0.00000000000E+00  0.00000000000E+00  0.99999998245E-14  0.12500000000E+03  0.12500000000E+03 0.  0.
        -13    1    3    3    0    0 -0.22453053293E+02 -0.28788050530E+02 -0.44258807474E+02  0.57373727947E+02  0.10566000000E+00 0.  1.
         23    2    1    0    0    0  0.28278465686E+01 -0.69545475936E+01 -0.30650551088E+02  0.93443404328E+02  0.87953687142E+02 0.  0.
         13    1    3    3    0    0  0.25280899862E+02  0.21833502937E+02  0.13608256386E+02  0.36069676381E+02  0.10566000000E+00 0. -1.
         22    1    1    0    0    0 -0.28278465686E+01  0.69545475936E+01  0.30650551088E+02  0.31556595672E+02  0.00000000000E+00 0.  1.
</event>
<event>
 5    1  0.1751020E-003  0.9118800E+02  0.7818608E-02  0.1130116E+00
         25   -1    0    0    0    0  0.00000000000E+00  0.00000000000E+00  0.99999998245E-14  0.12500000000E+03  0.12500000000E+03 0.  0.
        -13    1    3    3    0    0  0.37171418728E+02 -0.48732777830E+02  0.54899365887E+00  0.61293642112E+02  0.10566000000E+00 0. -1.
         23    2    1    0    0    0  0.99629506310E+01 -0.27302559912E+02 -0.17342104515E+00  0.95935928746E+02  0.91427469540E+02 0.  0.
         13    1    3    3    0    0 -0.27208468097E+02  0.21430217918E+02 -0.72241470402E+00  0.34642286634E+02  0.10566000000E+00 0.  1.
         22    1    1    0    0    0 -0.99629506310E+01  0.27302559912E+02  0.17342104515E+00  0.29064071254E+02  0.00000000000E+00 0. -1.
</event>
<event>
 5    1  0.1751020E-003  0.9118800E+02  0.7818608E-02  0.1130116E+00
         25   -1    0    0    0    0  0.00000000000E+00  0.00000000000E+00  0.99999998245E-14  0.12500000000E+03  0.12500000000E+03 0.  0.
        -13    1    3    3    0    0 -0.14003457735E+02  0.25697456723E+02  0.39593373396E+02  0.49235175347E+02  0.10566000000E+00 0.  1.
         23    2    1    0    0    0 -0.26511216026E+02  0.15216798741E+02 -0.24496437671E+01  0.94334118410E+02  0.89210591314E+02 0.  0.
         13    1    3    3    0    0 -0.12507758291E+02 -0.10480657983E+02 -0.42043017163E+02  0.45098943063E+02  0.10566000000E+00 0. -1.
         22    1    1    0    0    0  0.26511216026E+02 -0.15216798741E+02  0.24496437671E+01  0.30665881590E+02  0.00000000000E+00 0. -1.
</event>
<event>
 5    1  0.1751020E-003  0.9118800E+02  0.7818608E-02  0.1130116E+00
         25   -1    0    0    0    0  0.00000000000E+00  0.00000000000E+00  0.99999998245E-14  0.12500000000E+03  0.12500000000E+03 0.  0.
        -13    1    3    3    0    0 -0.43667283654E+02 -0.29817791649E+02 -0.27683769131E+02  0.59685296328E+02  0.10566000000E+00 0.  1.
         23    2    1    0    0    0 -0.27047038148E+02 -0.24813393446E+01 -0.13107344705E+02  0.94842052412E+02  0.89919481220E+02 0.  0.
         13    1    3    3    0    0  0.16620245506E+02  0.27336452304E+02  0.14576424425E+02  0.35156756083E+02  0.10566000000E+00 0. -1.
         22    1    1    0    0    0  0.27047038148E+02  0.24813393446E+01  0.13107344705E+02  0.30157947588E+02  0.00000000000E+00 0.  1.
</event>
<event>
 5    1  0.1751020E-003  0.9118800E+02  0.7818608E-02  0.1130116E+00
         25   -1    0    0    0    0  0.00000000000E+00  0.00000000000E+00  0.99999998245E-14  0.12500000000E+03  0.12500000000E+03 0.  0.
        -13    1    3    3    0    0 -0.96043773269E+01  0.21718432986E+01 -0.35319623020E+02  0.36666713808E+02  0.10566000000E+00 0.  1.
         23    2    1    0    0    0  0.83622235103E+01  0.21754702689E+02  0.17539686104E+02  0.95830933169E+02  0.91283806299E+02 0.  0.
         13    1    3    3    0    0  0.17966600837E+02  0.19582859391E+02  0.52859309124E+02  0.59164219362E+02  0.10566000000E+00 0. -1.
         22    1    1    0    0    0 -0.83622235103E+01 -0.21754702689E+02 -0.17539686104E+02  0.29169066831E+02  0.00000000000E+00 0. -1.
</event>
<event>
 5    1  0.1751020E-003  0.9118800E+02  0.7818608E-02  0.1130116E+00
         25   -1    0    0    0    0  0.00000000000E+00  0.00000000000E+00  0.99999998245E-14  0.12500000000E+03  0.12500000000E+03 0.  0.
        -13    1    3    3    0    0  0.28029141020E+02 -0.46724453404E+02  0.25139188766E+02  0.60006643533E+02  0.10566000000E+00 0. -1.
         23    2    1    0    0    0  0.11738112095E+02 -0.28369382229E+02  0.12244446432E+01  0.94273718281E+02  0.89125919744E+02 0.  0.
         13    1    3    3    0    0 -0.16291028925E+02  0.18355071176E+02 -0.23914744123E+02  0.34267074748E+02  0.10566000000E+00 0.  1.
         22    1    1    0    0    0 -0.11738112095E+02  0.28369382229E+02 -0.12244446432E+01  0.30726281719E+02  0.00000000000E+00 0. -1.
</event>
<event>
 5    1  0.1751020E-003  0.9118800E+02  0.7818608E-02  0.1130116E+00
         25   -1    0    0    0    0  0.00000000000E+00  0.00000000000E+00  0.99999998245E-14  0.12500000000E+03  0.12500000000E+03 0.  0.
        -13    1    3    3    0    0 -0.47421426986E+02 -0.22722121512E+02 -0.30104457477E+02  0.60591881201E+02  0.10566000000E+00 0.  1.
         23    2    1    0    0    0 -0.22241474210E+02 -0.18265394246E+02 -0.62789273782E+01  0.95542696474E+02  0.90888250717E+02 0.  0.
         13    1    3    3    0    0  0.25179952776E+02  0.44567272653E+01  0.23825530099E+02  0.34950815273E+02  0.10566000000E+00 0. -1.
         22    1    1    0    0    0  0.22241474210E+02  0.18265394246E+02  0.62789273782E+01  0.29457303526E+02  0.00000000000E+00 0.  1.
</event>
<event>
 5    1  0.1751020E-003  0.9118800E+02  0.7818608E-02  0.1130116E+00
         25   -1    0    0    0    0  0.00000000000E+00  0.00000000000E+00  0.99999998245E-14  0.12500000000E+03  0.12500000000E+03 0.  0.
        -13    1    3    3    0    0  0.27593460355E+02  0.31211381155E+02 -0.19569332798E+02  0.46027375747E+02  0.10566000000E+00 0.  1.
         23    2    1    0    0    0 -0.17160692274E+02  0.21772070485E+02  0.31526910975E+01  0.97099249586E+02  0.93004367620E+02 0.  0.
         13    1    3    3    0    0 -0.44754152629E+02 -0.94393106698E+01  0.22722023895E+02  0.51071873839E+02  0.10566000000E+00 0. -1.
         22    1    1    0    0    0  0.17160692274E+02 -0.21772070485E+02 -0.31526910975E+01  0.27900750414E+02  0.00000000000E+00 0. -1.
</event>
<event>
 5    1  0.1751020E-003  0.9118800E+02  0.7818608E-02  0.1130116E+00
         25   -1    0    0    0    0  0.00000000000E+00  0.00000000000E+00  0.99999998245E-14  0.12500000000E+03  0.12500000000E+03 0.  0.
        -13    1    3    3    0    0  0.35037254592E+02  0.31324581521E+02 -0.15815052129E+02  0.49587958767E+02  0.10566000000E+00 0.  1.
         23    2    1    0    0    0  0.26980981855E+02 -0.11111060484E+02  0.65013394125E+00  0.95813501048E+02  0.91259932401E+02 0.  0.
         13    1    3    3    0    0 -0.80562727368E+01 -0.42435642005E+02  0.16465186071E+02  0.46225542281E+02  0.10566000000E+00 0. -1.
         22    1    1    0    0    0 -0.26980981855E+02  0.11111060484E+02 -0.65013394125E+00  0.29186498952E+02  0.00000000000E+00 0.  1.
</event>
<event>
 5    1  0.1751020E-003  0.9118800E+02  0.7818608E-02  0.1130116E+00
         25   -1    0    0    0    0  0.00000000000E+00  0.00000000000E+00  0.99999998245E-14  0.12500000000E+03  0.12500000000E+03 0.  0.
        -13    1    3    3    0    0  0.34080438482E+02 -0.24569969506E+02 -0.10434834688E+02  0.43290375693E+02  0.10566000000E+00 0.  1.
         23    2    1    0    0    0  0.11206657183E+02  0.24439187949E+02 -0.18674067385E+01  0.98049113545E+02  0.94272362791E+02 0.  0.
         13    1    3    3    0    0 -0.22873781300E+02  0.49009157455E+02  0.85674279496E+01  0.54758737851E+02  0.10566000000E+00 0. -1.
         22    1    1    0    0    0 -0.11206657183E+02 -0.24439187949E+02  0.18674067385E+01  0.26950886455E+02  0.00000000000E+00 0. -1.
</event>
<event>
 5    1  0.1751020E-003  0.9118800E+02  0.7818608E-02  0.1130116E+00
         25   -1    0    0    0    0  0.00000000000E+00  0.00000000000E+00  0.99999998245E-14  0.12500000000E+03  0.12500000000E+03 0.  0.
        -13    1    3    3    0    0 -0.49023428374E+02 -0.10122000032E+02  0.15081470764E+02  0.52280142871E+02  0.10566000000E+00 0.  1.
         23    2    1    0    0    0 -0.18337764337E+02 -0.11428157117E+02 -0.17602177896E+02  0.97130428014E+02  0.93046262706E+02 0.  0.
         13    1    3    3    0    0  0.30685664036E+02 -0.13061570846E+01 -0.32683648660E+02  0.44850285144E+02  0.10566000000E+00 0. -1.
         22    1    1    0    0    0  0.18337764337E+02  0.11428157117E+02  0.17602177896E+02  0.27869571986E+02  0.00000000000E+00 0.  1.
</event>
<event>
 5    1  0.1751020E-003  0.9118800E+02  0.7818608E-02  0.1130116E+00
         25   -1    0    0    0    0  0.00000000000E+00  0.00000000000E+00  0.99999998245E-14  0.12500000000E+03  0.12500000000E+03 0.  0.
        -13    1    3    3    0    0 -0.99401818279E+01  0.11076343152E+02 -0.36574414702E+02  0.39486599844E+02  0.10566000000E+00 0.  1.
         23    2    1    0    0    0  0.15116186797E+02  0.19719986986E+02  0.13923262608E+02  0.96517826072E+02  0.92219610269E+02 0.  0.
         13    1    3    3    0    0  0.25056368624E+02  0.86436438340E+01  0.50497677310E+02  0.57031226228E+02  0.10566000000E+00 0. -1.
         22    1    1    0    0    0 -0.15116186797E+02 -0.19719986986E+02 -0.13923262608E+02  0.28482173928E+02  0.00000000000E+00 0. -1.
</event>
<event>
 5    1  0.1751020E-003  0.9118800E+02  0.7818608E-02  0.1130116E+00
         25   -1    0    0    0    0  0.00000000000E+00  0.00000000000E+00  0.99999998245E-14  0.12500000000E+03  0.12500000000E+03 0.  0.
        -13    1    3    3    0    0  0.18465104537E+02 -0.56700141081E+01 -0.58787997302E+02  0.61880117456E+02  0.10566000000E+00 0.  1.
         23    2    1    0    0    0  0.17942745469E+02 -0.72417565018E+00 -0.47654753828E+02  0.74074150889E+02  0.53791613864E+02 0.  0.
         13    1    3    3    0    0 -0.52235906852E+00  0.49458384579E+01  0.11133243474E+02  0.12194033432E+02  0.10566000000E+00 0. -1.
         22    1    1    0    0    0 -0.17942745469E+02  0.72417565018E+00  0.47654753828E+02  0.50925849111E+02  0.00000000000E+00 0.  1.
</event>
<event>
 5    1  0.1751020E-003  0.9118800E+02  0.7818608E-02  0.1130116E+00
         25   -1    0    0    0    0  0.00000000000E+00  0.00000000000E+00  0.99999998245E-14  0.12500000000E+03  0.12500000000E+03 0.  0.
        -13    1    3    3    0    0 -0.28583336369E+02  0.13865120868E+02  0.18118940748E+02  0.36572610961E+02  0.10566000000E+00 0.  1.
         23    2    1    0    0    0  0.17676933323E+01 -0.24567814295E+02 -0.15430374701E+02  0.95934578923E+02  0.91425624039E+02 0.  0.
         13    1    3    3    0    0  0.30351029701E+02 -0.38432935163E+02 -0.33549315449E+02  0.59361967962E+02  0.10566000000E+00 0. -1.
         22    1    1    0    0    0 -0.17676933323E+01  0.24567814295E+02  0.15430374701E+02  0.29065421077E+02  0.00000000000E+00 0. -1.
</event>
<event>
 5    1  0.1751020E-003  0.9118800E+02  0.7818608E-02  0.1130116E+00
         25   -1    0    0    0    0  0.00000000000E+00  0.00000000000E+00  0.99999998245E-14  0.12500000000E+03  0.12500000000E+03 0.  0.
        -13    1    3    3    0    0 -0.12437456289E+02 -0.54662535851E+02  0.19553597333E+01  0.56093829788E+02  0.10566000000E+00 0. -1.
         23    2    1    0    0    0 -0.16307926161E+02 -0.12728662522E+02  0.14150138063E+02  0.99936207142E+02  0.96742192374E+02 0.  0.
         13    1    3    3    0    0 -0.38704698723E+01  0.41933873329E+02  0.12194778329E+02  0.43842377353E+02  0.10566000000E+00 0.  1.
         22    1    1    0    0    0  0.16307926161E+02  0.12728662522E+02 -0.14150138063E+02  0.25063792858E+02  0.00000000000E+00 0. -1.
</event>
<event>
 5    1  0.1751020E-003  0.9118800E+02  0.7818608E-02  0.1130116E+00
         25   -1    0    0    0    0  0.00000000000E+00  0.00000000000E+00  0.99999998245E-14  0.12500000000E+03  0.12500000000E+03 0.  0.
        -13    1    3    3    0    0  0.33757580948E+01  0.92655716605E+00 -0.12908141128E+02  0.13374809244E+02  0.10566000000E+00 0.  1.
         23    2    1    0    0    0 -0.40026791723E+02 -0.93357529967E-01  0.30430825936E+02  0.74718910728E+02  0.55269590934E+02 0.  0.
         13    1    3    3    0    0 -0.43402549817E+02 -0.10199146960E+01  0.43338967064E+02  0.61344101484E+02  0.10566000000E+00 0. -1.
         22    1    1    0    0    0  0.40026791723E+02  0.93357529967E-01 -0.30430825936E+02  0.50281089272E+02  0.00000000000E+00 0. -1.
</event>
<event>
 5    1  0.1751020E-003  0.9118800E+02  0.7818608E-02  0.1130116E+00
         25   -1    0    0    0    0  0.00000000000E+00  0.00000000000E+00  0.99999998245E-14  0.12500000000E+03  0.12500000000E+03 0.  0.
        -13    1    3    3    0    0 -0.25131131797E+02 -0.23145765758E+02 -0.13407189877E+02  0.36702372707E+02  0.10566000000E+00 0.  1.
         23    2    1    0    0    0  0.20323293327E+02 -0.30061939151E+01  0.19782682822E+02  0.96479340941E+02  0.92167430447E+02 0.  0.
         13    1    3    3    0    0  0.45454425124E+02  0.20139571843E+02  0.33189872699E+02  0.59776968234E+02  0.10566000000E+00 0. -1.
         22    1    1    0    0    0 -0.20323293327E+02  0.30061939151E+01 -0.19782682822E+02  0.28520659059E+02  0.00000000000E+00 0. -1.
</event>
<event>
 5    1  0.1751020E-003  0.9118800E+02  0.7818608E-02  0.1130116E+00
         25   -1    0    0    0    0  0.00000000000E+00  0.00000000000E+00  0.99999998245E-14  0.12500000000E+03  0.12500000000E+03 0.  0.
        -13    1    3    3    0    0 -0.33679744358E+02  0.26667295176E+01 -0.16614193333E+02  0.37649425101E+02  0.10566000000E+00 0.  1.
         23    2    1    0    0    0  0.15608373730E+02  0.23555858963E+02  0.65735742056E+01  0.95987731908E+02  0.91498267618E+02 0.  0.
         13    1    3    3    0    0  0.49288118088E+02  0.20889129445E+02  0.23187767538E+02  0.58338306807E+02  0.10566000000E+00 0. -1.
         22    1    1    0    0    0 -0.15608373730E+02 -0.23555858963E+02 -0.65735742056E+01  0.29012268092E+02  0.00000000000E+00 0. -1.
</event>
<event>
 5    1  0.1751020E-003  0.9118800E+02  0.7818608E-02  0.1130116E+00
         25   -1    0    0    0    0  0.00000000000E+00  0.00000000000E+00  0.99999998245E-14  0.12500000000E+03  0.12500000000E+03 0.  0.
        -13    1    3    3    0    0  0.19399429760E+02  0.53573605893E+02 -0.20822251305E+02  0.60663386296E+02  0.10566000000E+00 0. -1.
         23    2    1    0    0    0  0.96187541269E+01  0.27580112143E+02  0.67307861572E+00  0.95782949300E+02  0.91218075648E+02 0.  0.
         13    1    3    3    0    0 -0.97806756330E+01 -0.25993493750E+02  0.21495329920E+02  0.35119563004E+02  0.10566000000E+00 0.  1.
         22    1    1    0    0    0 -0.96187541269E+01 -0.27580112143E+02 -0.67307861572E+00  0.29217050700E+02  0.00000000000E+00 0. -1.
</event>
<event>
 5    1  0.1751020E-003  0.9118800E+02  0.7818608E-02  0.1130116E+00
         25   -1    0    0    0    0  0.00000000000E+00  0.00000000000E+00  0.99999998245E-14  0.12500000000E+03  0.12500000000E+03 0.  0.
        -13    1    3    3    0    0  0.31619878962E+02 -0.17586932146E+02 -0.11754572681E+02  0.38043370919E+02  0.10566000000E+00 0.  1.
         23    2    1    0    0    0 -0.93748302704E+01  0.23105406802E+02 -0.15008126952E+02  0.95896887783E+02  0.91374076990E+02 0.  0.
         13    1    3    3    0    0 -0.40994709233E+02  0.40692338948E+02 -0.32535542710E+01  0.57853516865E+02  0.10566000000E+00 0. -1.
         22    1    1    0    0    0  0.93748302704E+01 -0.23105406802E+02  0.15008126952E+02  0.29103112217E+02  0.00000000000E+00 0. -1.
</event>
<event>
 5    1  0.1751020E-003  0.9118800E+02  0.7818608E-02  0.1130116E+00
         25   -1    0    0    0    0  0.00000000000E+00  0.00000000000E+00  0.99999998245E-14  0.12500000000E+03  0.12500000000E+03 0.  0.
        -13    1    3    3    0    0 -0.22723690840E+02  0.38001006690E+02  0.42323115787E+02  0.61251121858E+02  0.10566000000E+00 0.  1.
         23    2    1    0    0    0 -0.21353133228E+02  0.32600769000E+02  0.26910157060E+02  0.77640492073E+02  0.61523353439E+02 0.  0.
         13    1    3    3    0    0  0.13705576116E+01 -0.54002376899E+01 -0.15412958728E+02  0.16389370215E+02  0.10566000000E+00 0. -1.
         22    1    1    0    0    0  0.21353133228E+02 -0.32600769000E+02 -0.26910157060E+02  0.47359507927E+02  0.00000000000E+00 0.  1.
</event>
<event>
 5    1  0.1751020E-003  0.9118800E+02  0.7818608E-02  0.1130116E+00
         25   -1    0    0    0    0  0.00000000000E+00  0.00000000000E+00  0.99999998245E-14  0.12500000000E+03  0.12500000000E+03 0.  0.
        -13    1    3    3    0    0  0.22246204630E+02 -0.37336963064E+02  0.38544454148E+02  0.58091553094E+02  0.10566000000E+00 0. -1.
         23    2    1    0    0    0  0.19014017807E+02 -0.34563448225E+01  0.21278921404E+02  0.96255058031E+02  0.91862748205E+02 0.  0.
         13    1    3    3    0    0 -0.32321868228E+01  0.33880618242E+02 -0.17265532744E+02  0.38163504937E+02  0.10566000000E+00 0.  1.
         22    1    1    0    0    0 -0.19014017807E+02  0.34563448225E+01 -0.21278921404E+02  0.28744941969E+02  0.00000000000E+00 0. -1.
</event>
<event>
 5    1  0.1751020E-003  0.9118800E+02  0.7818608E-02  0.1130116E+00
         25   -1    0    0    0    0  0.00000000000E+00  0.00000000000E+00  0.99999998245E-14  0.12500000000E+03  0.12500000000E+03 0.  0.
        -13    1    3    3    0    0  0.21456915462E+02  0.49017540973E+02  0.17843751515E+02  0.56405045664E+02  0.10566000000E+00 0. -1.
         23    2    1    0    0    0  0.46394842741E+01  0.12841304931E+02  0.24597574298E+02  0.96867019567E+02  0.92691719651E+02 0.  0.
         13    1    3    3    0    0 -0.16817431188E+02 -0.36176236042E+02  0.67538227838E+01  0.40461973903E+02  0.10566000000E+00 0.  1.
         22    1    1    0    0    0 -0.46394842741E+01 -0.12841304931E+02 -0.24597574298E+02  0.28132980433E+02  0.00000000000E+00 0. -1.
</event>
<event>
 5    1  0.1751020E-003  0.9118800E+02  0.7818608E-02  0.1130116E+00
         25   -1    0    0    0    0  0.00000000000E+00  0.00000000000E+00  0.99999998245E-14  0.12500000000E+03  0.12500000000E+03 0.  0.
        -13    1    3    3    0    0  0.55014247721E+02 -0.60835959238E+01  0.19695224017E+02  0.58749388122E+02  0.10566000000E+00 0.  1.
         23    2    1    0    0    0  0.30070098206E+02 -0.73228335386E+01 -0.47404057176E+01  0.93690158999E+02  0.88303679141E+02 0.  0.
         13    1    3    3    0    0 -0.24944149515E+02 -0.12392376148E+01 -0.24435629735E+02  0.34940770877E+02  0.10566000000E+00 0. -1.
         22    1    1    0    0    0 -0.30070098206E+02  0.73228335386E+01  0.47404057176E+01  0.31309841001E+02  0.00000000000E+00 0. -1.
</event>
<event>
 5    1  0.1751020E-003  0.9118800E+02  0.7818608E-02  0.1130116E+00
         25   -1    0    0    0    0  0.00000000000E+00  0.00000000000E+00  0.99999998245E-14  0.12500000000E+03  0.12500000000E+03 0.  0.
        -13    1    3    3    0    0  0.21052994019E+02  0.25100659938E+02 -0.51462576809E+02  0.61005570749E+02  0.10566000000E+00 0. -1.
         23    2    1    0    0    0  0.79708116194E+01  0.25457624109E+01 -0.26904927258E+02  0.96823948913E+02  0.92633618240E+02 0.  0.
         13    1    3    3    0    0 -0.13082182400E+02 -0.22554897527E+02  0.24557649551E+02  0.35818378164E+02  0.10566000000E+00 0.  1.
         22    1    1    0    0    0 -0.79708116194E+01 -0.25457624109E+01  0.26904927258E+02  0.28176051087E+02  0.00000000000E+00 0. -1.
</event>
<event>
 5    1  0.1751020E-003  0.9118800E+02  0.7818608E-02  0.1130116E+00
         25   -1    0    0    0    0  0.00000000000E+00  0.00000000000E+00  0.99999998245E-14  0.12500000000E+03  0.12500000000E+03 0.  0.
        -13    1    3    3    0    0  0.76257030733E+01  0.30241291080E+02  0.30368133032E+02  0.43530698380E+02  0.10566000000E+00 0.  1.
         23    2    1    0    0    0 -0.28512480204E+01 -0.19701704705E+02  0.22150992881E+02  0.95218239321E+02  0.90440919004E+02 0.  0.
         13    1    3    3    0    0 -0.10476951094E+02 -0.49942995785E+02 -0.82171401514E+01  0.51687540941E+02  0.10566000000E+00 0. -1.
         22    1    1    0    0    0  0.28512480204E+01  0.19701704705E+02 -0.22150992881E+02  0.29781760679E+02  0.00000000000E+00 0. -1.
</event>
<event>
 5    1  0.1751020E-003  0.9118800E+02  0.7818608E-02  0.1130116E+00
         25   -1    0    0    0    0  0.00000000000E+00  0.00000000000E+00  0.99999998245E-14  0.12500000000E+03  0.12500000000E+03 0.  0.
        -13    1    3    3    0    0  0.46424375914E+01  0.31131371202E+02  0.33978299057E+02  0.46316848668E+02  0.10566000000E+00 0. -1.
         23    2    1    0    0    0 -0.27674129752E+02  0.35288881684E+01  0.86520845843E+01  0.95790941869E+02  0.91229027548E+02 0.  0.
         13    1    3    3    0    0 -0.32316567343E+02 -0.27602483034E+02 -0.25326214473E+02  0.49474093201E+02  0.10566000000E+00 0.  1.
         22    1    1    0    0    0  0.27674129752E+02 -0.35288881684E+01 -0.86520845843E+01  0.29209058131E+02  0.00000000000E+00 0.  1.
</event>
<event>
 5    1  0.1751020E-003  0.9118800E+02  0.7818608E-02  0.1130116E+00
         25   -1    0    0    0    0  0.00000000000E+00  0.00000000000E+00  0.99999998245E-14  0.12500000000E+03  0.12500000000E+03 0.  0.
        -13    1    3    3    0    0  0.16434235833E+02  0.40321345500E+02  0.32339072449E+01  0.43661932280E+02  0.10566000000E+00 0. -1.
         23    2    1    0    0    0  0.14457235016E+02 -0.59429563473E+01  0.25536367011E+02  0.95059451999E+02  0.90221189306E+02 0.  0.
         13    1    3    3    0    0 -0.19770008175E+01 -0.46264301847E+02  0.22302459766E+02  0.51397519719E+02  0.10566000000E+00 0.  1.
         22    1    1    0    0    0 -0.14457235016E+02  0.59429563473E+01 -0.25536367011E+02  0.29940548001E+02  0.00000000000E+00 0. -1.
</event>
<event>
 5    1  0.1751020E-003  0.9118800E+02  0.7818608E-02  0.1130116E+00
         25   -1    0    0    0    0  0.00000000000E+00  0.00000000000E+00  0.99999998245E-14  0.12500000000E+03  0.12500000000E+03 0.  0.
        -13    1    3    3    0    0 -0.76400162417E+01 -0.45072840308E+02 -0.14457554353E+02  0.47947500702E+02  0.10566000000E+00 0.  1.
         23    2    1    0    0    0 -0.28843516224E+02 -0.39113188125E+01 -0.23996571454E+01  0.95793747288E+02  0.91232871390E+02 0.  0.
         13    1    3    3    0    0 -0.21203499983E+02  0.41161521496E+02  0.12057897208E+02  0.47846246587E+02  0.10566000000E+00 0. -1.
         22    1    1    0    0    0  0.28843516224E+02  0.39113188125E+01  0.23996571454E+01  0.29206252712E+02  0.00000000000E+00 0. -1.
</event>
<event>
 5    1  0.1751020E-003  0.9118800E+02  0.7818608E-02  0.1130116E+00
         25   -1    0    0    0    0  0.00000000000E+00  0.00000000000E+00  0.99999998245E-14  0.12500000000E+03  0.12500000000E+03 0.  0.
        -13    1    3    3    0    0  0.25506256202E+01 -0.55302180505E+02 -0.17741868321E+02  0.58134515697E+02  0.10566000000E+00 0.  1.
         23    2    1    0    0    0  0.17373846982E+02 -0.27455137335E+02 -0.51388341184E+01  0.92105581916E+02  0.86031363344E+02 0.  0.
         13    1    3    3    0    0  0.14823221362E+02  0.27847043171E+02  0.12603034203E+02  0.33971066219E+02  0.10566000000E+00 0. -1.
         22    1    1    0    0    0 -0.17373846982E+02  0.27455137335E+02  0.51388341184E+01  0.32894418084E+02  0.00000000000E+00 0.  1.
</event>
<event>
 5    1  0.1751020E-003  0.9118800E+02  0.7818608E-02  0.1130116E+00
         25   -1    0    0    0    0  0.00000000000E+00  0.00000000000E+00  0.99999998245E-14  0.12500000000E+03  0.12500000000E+03 0.  0.
        -13    1    3    3    0    0  0.23429632373E+02 -0.82741268401E+01  0.50277707146E+02  0.56082687596E+02  0.10566000000E+00 0.  1.
         23    2    1    0    0    0  0.24263645768E+02  0.83997697684E+01  0.14625439022E+02  0.95450311259E+02  0.90761102983E+02 0.  0.
         13    1    3    3    0    0  0.83401339541E+00  0.16673896608E+02 -0.35652268124E+02  0.39367623663E+02  0.10566000000E+00 0. -1.
         22    1    1    0    0    0 -0.24263645768E+02 -0.83997697684E+01 -0.14625439022E+02  0.29549688741E+02  0.00000000000E+00 0.  1.
</event>
<event>
 5    1  0.1751020E-003  0.9118800E+02  0.7818608E-02  0.1130116E+00
         25   -1    0    0    0    0  0.00000000000E+00  0.00000000000E+00  0.99999998245E-14  0.12500000000E+03  0.12500000000E+03 0.  0.
        -13    1    3    3    0    0 -0.19350334106E+02 -0.34268034466E+02 -0.77034221579E+01  0.40100966238E+02  0.10566000000E+00 0. -1.
         23    2    1    0    0    0  0.76500701178E+01  0.40428246361E+01  0.25848340958E+02  0.97741886820E+02  0.93864112978E+02 0.  0.
         13    1    3    3    0    0  0.27000404224E+02  0.38310859103E+02  0.33551763116E+02  0.57640920583E+02  0.10566000000E+00 0.  1.
         22    1    1    0    0    0 -0.76500701178E+01 -0.40428246361E+01 -0.25848340958E+02  0.27258113180E+02  0.00000000000E+00 0.  1.
</event>
<event>
 5    1  0.1751020E-003  0.9118800E+02  0.7818608E-02  0.1130116E+00
         25   -1    0    0    0    0  0.00000000000E+00  0.00000000000E+00  0.99999998245E-14  0.12500000000E+03  0.12500000000E+03 0.  0.
        -13    1    3    3    0    0 -0.18275292277E+02  0.44700364011E+02  0.15933982186E+02  0.50852844589E+02  0.10566000000E+00 0. -1.
         23    2    1    0    0    0 -0.22280731014E+02  0.14348813174E+00  0.19032409890E+02  0.95696686372E+02  0.91099789204E+02 0.  0.
         13    1    3    3    0    0 -0.40054387378E+01 -0.44556875879E+02  0.30984277041E+01  0.44843841783E+02  0.10566000000E+00 0.  1.
         22    1    1    0    0    0  0.22280731014E+02 -0.14348813174E+00 -0.19032409890E+02  0.29303313628E+02  0.00000000000E+00 0. -1.
</event>
<event>
 5    1  0.1751020E-003  0.9118800E+02  0.7818608E-02  0.1130116E+00
         25   -1    0    0    0    0  0.00000000000E+00  0.00000000000E+00  0.99999998245E-14  0.12500000000E+03  0.12500000000E+03 0.  0.
        -13    1    3    3    0    0 -0.65774911074E+01  0.39108593146E+01  0.31929084567E+02  0.32833455730E+02  0.10566000000E+00 0.  1.
         23    2    1    0    0    0 -0.11854689548E+02  0.33894273723E+01 -0.28736298526E+02  0.93730258473E+02  0.88360424503E+02 0.  0.
         13    1    3    3    0    0 -0.52771984405E+01 -0.52143194236E+00 -0.60665383092E+02  0.60896802744E+02  0.10566000000E+00 0. -1.
         22    1    1    0    0    0  0.11854689548E+02 -0.33894273723E+01  0.28736298526E+02  0.31269741527E+02  0.00000000000E+00 0. -1.
</event>
<event>
 5    1  0.1751020E-003  0.9118800E+02  0.7818608E-02  0.1130116E+00
         25   -1    0    0    0    0  0.00000000000E+00  0.00000000000E+00  0.99999998245E-14  0.12500000000E+03  0.12500000000E+03 0.  0.
        -13    1    3    3    0    0  0.25815575250E+02  0.18815199698E+01 -0.56582851278E+02  0.62222297174E+02  0.10566000000E+00 0.  1.
         23    2    1    0    0    0  0.83312793148E+01  0.39272164529E+00 -0.28207194665E+02  0.95585543076E+02  0.90947159213E+02 0.  0.
         13    1    3    3    0    0 -0.17484295935E+02 -0.14887983245E+01  0.28375656613E+02  0.33363245901E+02  0.10566000000E+00 0. -1.
         22    1    1    0    0    0 -0.83312793148E+01 -0.39272164529E+00  0.28207194665E+02  0.29414456924E+02  0.00000000000E+00 0.  1.
</event>
<event>
 5    1  0.1751020E-003  0.9118800E+02  0.7818608E-02  0.1130116E+00
         25   -1    0    0    0    0  0.00000000000E+00  0.00000000000E+00  0.99999998245E-14  0.12500000000E+03  0.12500000000E+03 0.  0.
        -13    1    3    3    0    0  0.13793772860E+02 -0.42538351003E+02  0.24798907321E+02  0.51134884806E+02  0.10566000000E+00 0.  1.
         23    2    1    0    0    0 -0.14781594348E+02 -0.25419905056E+02 -0.41956580477E+01  0.95296958894E+02  0.90549653359E+02 0.  0.
         13    1    3    3    0    0 -0.28575367208E+02  0.17118445947E+02 -0.28994565369E+02  0.44162074087E+02  0.10566000000E+00 0. -1.
         22    1    1    0    0    0  0.14781594348E+02  0.25419905056E+02  0.41956580477E+01  0.29703041106E+02  0.00000000000E+00 0.  1.
</event>
<event>
 5    1  0.1751020E-003  0.9118800E+02  0.7818608E-02  0.1130116E+00
         25   -1    0    0    0    0  0.00000000000E+00  0.00000000000E+00  0.99999998245E-14  0.12500000000E+03  0.12500000000E+03 0.  0.
        -13    1    3    3    0    0 -0.56053899180E+02  0.99169864248E+01  0.80812764507E+01  0.57495255683E+02  0.10566000000E+00 0. -1.
         23    2    1    0    0    0 -0.25344107556E+02 -0.11067145888E+02 -0.49476715466E+01  0.96905784232E+02  0.92743981249E+02 0.  0.
         13    1    3    3    0    0  0.30709791624E+02 -0.20984132313E+02 -0.13028947997E+02  0.39410528548E+02  0.10566000000E+00 0.  1.
         22    1    1    0    0    0  0.25344107556E+02  0.11067145888E+02  0.49476715466E+01  0.28094215768E+02  0.00000000000E+00 0. -1.
</event>
<event>
 5    1  0.1751020E-003  0.9118800E+02  0.7818608E-02  0.1130116E+00
         25   -1    0    0    0    0  0.00000000000E+00  0.00000000000E+00  0.99999998245E-14  0.12500000000E+03  0.12500000000E+03 0.  0.
        -13    1    3    3    0    0 -0.10630841437E+02 -0.40378037017E+02 -0.20292333335E+01  0.41803464150E+02  0.10566000000E+00 0.  1.
         23    2    1    0    0    0  0.29424053719E+02 -0.56141047652E+01  0.18927937689E+01  0.94985407252E+02  0.90118543115E+02 0.  0.
         13    1    3    3    0    0  0.40054895155E+02  0.34763932252E+02  0.39220271024E+01  0.53181943102E+02  0.10566000000E+00 0. -1.
         22    1    1    0    0    0 -0.29424053719E+02  0.56141047652E+01 -0.18927937689E+01  0.30014592748E+02  0.00000000000E+00 0. -1.
</event>
<event>
 5    1  0.1751020E-003  0.9118800E+02  0.7818608E-02  0.1130116E+00
         25   -1    0    0    0    0  0.00000000000E+00  0.00000000000E+00  0.99999998245E-14  0.12500000000E+03  0.12500000000E+03 0.  0.
        -13    1    3    3    0    0 -0.27451924203E+01 -0.26159454516E+02  0.44602051800E+02  0.51780375924E+02  0.10566000000E+00 0.  1.
         23    2    1    0    0    0 -0.77939124650E+01 -0.27403945522E+02  0.17710559278E+00  0.96508726458E+02  0.92207275279E+02 0.  0.
         13    1    3    3    0    0 -0.50487200448E+01 -0.12444910061E+01 -0.44424946207E+02  0.44728350534E+02  0.10566000000E+00 0. -1.
         22    1    1    0    0    0  0.77939124650E+01  0.27403945522E+02 -0.17710559278E+00  0.28491273542E+02  0.00000000000E+00 0.  1.
</event>
<event>
 5    1  0.1751020E-003  0.9118800E+02  0.7818608E-02  0.1130116E+00
         25   -1    0    0    0    0  0.00000000000E+00  0.00000000000E+00  0.99999998245E-14  0.12500000000E+03  0.12500000000E+03 0.  0.
        -13    1    3    3    0    0 -0.23146241534E+01  0.27330809016E+02  0.46610294664E+02  0.54081987197E+02  0.10566000000E+00 0. -1.
         23    2    1    0    0    0 -0.86503904214E+01 -0.87668883839E+01  0.26242684342E+02  0.96010931925E+02  0.91529956742E+02 0.  0.
         13    1    3    3    0    0 -0.63357662680E+01 -0.36097697400E+02 -0.20367610322E+02  0.41928944728E+02  0.10566000000E+00 0.  1.
         22    1    1    0    0    0  0.86503904214E+01  0.87668883839E+01 -0.26242684342E+02  0.28989068075E+02  0.00000000000E+00 0. -1.
</event>
<event>
 5    1  0.1751020E-003  0.9118800E+02  0.7818608E-02  0.1130116E+00
         25   -1    0    0    0    0  0.00000000000E+00  0.00000000000E+00  0.99999998245E-14  0.12500000000E+03  0.12500000000E+03 0.  0.
        -13    1    3    3    0    0 -0.38284468025E+02  0.20351407365E+02  0.15585078451E+02  0.46073703000E+02  0.10566000000E+00 0. -1.
         23    2    1    0    0    0  0.56685506952E+01  0.27621875427E+02 -0.68909021675E+01  0.95972685247E+02  0.91477709370E+02 0.  0.
         13    1    3    3    0    0  0.43953018721E+02  0.72704680623E+01 -0.22475980618E+02  0.49898982247E+02  0.10566000000E+00 0.  1.
         22    1    1    0    0    0 -0.56685506952E+01 -0.27621875427E+02  0.68909021675E+01  0.29027314753E+02  0.00000000000E+00 0.  1.
</event>
<event>
 5    1  0.1751020E-003  0.9118800E+02  0.7818608E-02  0.1130116E+00
         25   -1    0    0    0    0  0.00000000000E+00  0.00000000000E+00  0.99999998245E-14  0.12500000000E+03  0.12500000000E+03 0.  0.
        -13    1    3    3    0    0 -0.72025988611E+01  0.75764186450E+01 -0.39088464454E+02  0.40462312925E+02  0.10566000000E+00 0.  1.
         23    2    1    0    0    0 -0.14507703134E+02  0.18491737541E+02  0.15655374045E+02  0.96759806233E+02  0.92547023498E+02 0.  0.
         13    1    3    3    0    0 -0.73051042729E+01  0.10915318896E+02  0.54743838500E+02  0.56297493308E+02  0.10566000000E+00 0. -1.
         22    1    1    0    0    0  0.14507703134E+02 -0.18491737541E+02 -0.15655374045E+02  0.28240193767E+02  0.00000000000E+00 0. -1.
</event>
<event>
 5    1  0.1751020E-003  0.9118800E+02  0.7818608E-02  0.1130116E+00
         25   -1    0    0    0    0  0.00000000000E+00  0.00000000000E+00  0.99999998245E-14  0.12500000000E+03  0.12500000000E+03 0.  0.
        -13    1    3    3    0    0 -0.11233405597E+02 -0.22750386547E+02  0.48471171811E+02  0.54710466550E+02  0.10566000000E+00 0. -1.
         23    2    1    0    0    0 -0.17348719237E+01  0.11181121878E+02  0.26371897607E+02  0.96303236238E+02  0.91928282152E+02 0.  0.
         13    1    3    3    0    0  0.94985336734E+01  0.33931508425E+02 -0.22099274204E+02  0.41592769688E+02  0.10566000000E+00 0.  1.
         22    1    1    0    0    0  0.17348719237E+01 -0.11181121878E+02 -0.26371897607E+02  0.28696763762E+02  0.00000000000E+00 0. -1.
</event>
<event>
 5    1  0.1751020E-003  0.9118800E+02  0.7818608E-02  0.1130116E+00
         25   -1    0    0    0    0  0.00000000000E+00  0.00000000000E+00  0.99999998245E-14  0.12500000000E+03  0.12500000000E+03 0.  0.
        -13    1    3    3    0    0  0.53829054157E+02  0.77120801435E+01  0.12433771312E+02  0.55782193258E+02  0.10566000000E+00 0. -1.
         23    2    1    0    0    0  0.84103013748E+01  0.51260173594E+00 -0.13878683072E+02  0.10876381284E+03  0.10754512174E+03 0.  0.
         13    1    3    3    0    0 -0.45418752782E+02 -0.71994784076E+01 -0.26312454384E+02  0.52981619580E+02  0.10566000000E+00 0.  1.
         22    1    1    0    0    0 -0.84103013748E+01 -0.51260173594E+00  0.13878683072E+02  0.16236187162E+02  0.00000000000E+00 0. -1.
</event>
<event>
 5    1  0.1751020E-003  0.9118800E+02  0.7818608E-02  0.1130116E+00
         25   -1    0    0    0    0  0.00000000000E+00  0.00000000000E+00  0.99999998245E-14  0.12500000000E+03  0.12500000000E+03 0.  0.
        -13    1    3    3    0    0  0.11128712882E+02 -0.50717649828E+02 -0.17840086403E+02  0.54903625575E+02  0.10566000000E+00 0. -1.
         23    2    1    0    0    0  0.11390795685E+02 -0.11123021617E+02 -0.25214208144E+02  0.95180071620E+02  0.90388151353E+02 0.  0.
         13    1    3    3    0    0  0.26208280296E+00  0.39594628210E+02 -0.73741217415E+01  0.40276446045E+02  0.10566000000E+00 0.  1.
         22    1    1    0    0    0 -0.11390795685E+02  0.11123021617E+02  0.25214208144E+02  0.29819928380E+02  0.00000000000E+00 0. -1.
</event>
<event>
 5    1  0.1751020E-003  0.9118800E+02  0.7818608E-02  0.1130116E+00
         25   -1    0    0    0    0  0.00000000000E+00  0.00000000000E+00  0.99999998245E-14  0.12500000000E+03  0.12500000000E+03 0.  0.
        -13    1    3    3    0    0 -0.28181099040E+02  0.12242197050E+01 -0.21888274419E+02  0.35704072289E+02  0.10566000000E+00 0.  1.
         23    2    1    0    0    0  0.24200412444E+02 -0.13552675371E+02  0.56394725816E+01  0.96695607705E+02  0.92460272151E+02 0.  0.
         13    1    3    3    0    0  0.52381511484E+02 -0.14776895076E+02  0.27527747000E+02  0.60991535416E+02  0.10566000000E+00 0. -1.
         22    1    1    0    0    0 -0.24200412444E+02  0.13552675371E+02 -0.56394725816E+01  0.28304392295E+02  0.00000000000E+00 0. -1.
</event>
<event>
 5    1  0.1751020E-003  0.9118800E+02  0.7818608E-02  0.1130116E+00
         25   -1    0    0    0    0  0.00000000000E+00  0.00000000000E+00  0.99999998245E-14  0.12500000000E+03  0.12500000000E+03 0.  0.
        -13    1    3    3    0    0  0.99679777439E+01 -0.36225968084E+01  0.33614205165E+02  0.35247833136E+02  0.10566000000E+00 0. -1.
         23    2    1    0    0    0  0.73930744823E+01  0.23130277515E+02 -0.18892308062E+02  0.94233352602E+02  0.89069288481E+02 0.  0.
         13    1    3    3    0    0 -0.25749032616E+01  0.26752874324E+02 -0.52506513226E+02  0.58985519465E+02  0.10566000000E+00 0.  1.
         22    1    1    0    0    0 -0.73930744823E+01 -0.23130277515E+02  0.18892308062E+02  0.30766647398E+02  0.00000000000E+00 0.  1.
</event>
<event>
 5    1  0.1751020E-003  0.9118800E+02  0.7818608E-02  0.1130116E+00
         25   -1    0    0    0    0  0.00000000000E+00  0.00000000000E+00  0.99999998245E-14  0.12500000000E+03  0.12500000000E+03 0.  0.
        -13    1    3    3    0    0 -0.85405909520E+01  0.31318302116E+02 -0.85471028375E+01  0.33568465443E+02  0.10566000000E+00 0. -1.
         23    2    1    0    0    0  0.95719115846E+01 -0.27693407110E+02 -0.29806352846E+01  0.95547827322E+02  0.90895306977E+02 0.  0.
         13    1    3    3    0    0  0.18112502537E+02 -0.59011709226E+02  0.55664675529E+01  0.61979361879E+02  0.10566000000E+00 0.  1.
         22    1    1    0    0    0 -0.95719115846E+01  0.27693407110E+02  0.29806352846E+01  0.29452172678E+02  0.00000000000E+00 0.  1.
</event>
<event>
 5    1  0.1751020E-003  0.9118800E+02  0.7818608E-02  0.1130116E+00
         25   -1    0    0    0    0  0.00000000000E+00  0.00000000000E+00  0.99999998245E-14  0.12500000000E+03  0.12500000000E+03 0.  0.
        -13    1    3    3    0    0  0.18366896674E+02  0.43101141328E+02  0.10266692383E+02  0.47963188111E+02  0.10566000000E+00 0.  1.
         23    2    1    0    0    0  0.26534948836E+02 -0.42841735724E+01 -0.32870748370E+01  0.97921179606E+02  0.94102576487E+02 0.  0.
         13    1    3    3    0    0  0.81680521617E+01 -0.47385314901E+02 -0.13553767220E+02  0.49957991495E+02  0.10566000000E+00 0. -1.
         22    1    1    0    0    0 -0.26534948836E+02  0.42841735724E+01  0.32870748370E+01  0.27078820394E+02  0.00000000000E+00 0. -1.
</event>
<event>
 5    1  0.1751020E-003  0.9118800E+02  0.7818608E-02  0.1130116E+00
         25   -1    0    0    0    0  0.00000000000E+00  0.00000000000E+00  0.99999998245E-14  0.12500000000E+03  0.12500000000E+03 0.  0.
        -13    1    3    3    0    0 -0.46460575601E+02 -0.35481781943E+01 -0.41405788902E+02  0.62334783005E+02  0.10566000000E+00 0. -1.
         23    2    1    0    0    0 -0.22291400874E+02  0.14096473416E+01 -0.18585340777E+02  0.95943012022E+02  0.91437153310E+02 0.  0.
         13    1    3    3    0    0  0.24169174727E+02  0.49578255360E+01  0.22820448124E+02  0.33608229017E+02  0.10566000000E+00 0.  1.
         22    1    1    0    0    0  0.22291400874E+02 -0.14096473416E+01  0.18585340777E+02  0.29056987978E+02  0.00000000000E+00 0. -1.
</event>
<event>
 5    1  0.1751020E-003  0.9118800E+02  0.7818608E-02  0.1130116E+00
         25   -1    0    0    0    0  0.00000000000E+00  0.00000000000E+00  0.99999998245E-14  0.12500000000E+03  0.12500000000E+03 0.  0.
        -13    1    3    3    0    0  0.10778581507E+02 -0.28578818627E+02  0.20299814181E+02  0.36674518582E+02  0.10566000000E+00 0.  1.
         23    2    1    0    0    0  0.48364662575E+01  0.36417983646E+01 -0.28727198383E+02  0.95641763880E+02  0.91024397663E+02 0.  0.
         13    1    3    3    0    0 -0.59421152499E+01  0.32220616992E+02 -0.49027012564E+02  0.58967245297E+02  0.10566000000E+00 0. -1.
         22    1    1    0    0    0 -0.48364662575E+01 -0.36417983646E+01  0.28727198383E+02  0.29358236120E+02  0.00000000000E+00 0. -1.
</event>
<event>
 5    1  0.1751020E-003  0.9118800E+02  0.7818608E-02  0.1130116E+00
         25   -1    0    0    0    0  0.00000000000E+00  0.00000000000E+00  0.99999998245E-14  0.12500000000E+03  0.12500000000E+03 0.  0.
        -13    1    3    3    0    0 -0.13382057051E+02 -0.45819111483E+02 -0.23260137955E+02  0.53099111195E+02  0.10566000000E+00 0. -1.
         23    2    1    0    0    0 -0.25963966961E+02 -0.10461914400E+02 -0.47535137933E+00  0.97003478927E+02  0.92875560465E+02 0.  0.
         13    1    3    3    0    0 -0.12581909910E+02  0.35357197083E+02  0.22784786575E+02  0.43904367731E+02  0.10566000000E+00 0.  1.
         22    1    1    0    0    0  0.25963966961E+02  0.10461914400E+02  0.47535137933E+00  0.27996521073E+02  0.00000000000E+00 0. -1.
</event>
<event>
 5    1  0.1751020E-003  0.9118800E+02  0.7818608E-02  0.1130116E+00
         25   -1    0    0    0    0  0.00000000000E+00  0.00000000000E+00  0.99999998245E-14  0.12500000000E+03  0.12500000000E+03 0.  0.
        -13    1    3    3    0    0  0.10264387531E+02  0.39127529437E+02  0.13475335637E+02  0.42637038427E+02  0.10566000000E+00 0.  1.
         23    2    1    0    0    0  0.23816868037E+02 -0.18323000129E+01 -0.17191607066E+02  0.95569541629E+02  0.90925163773E+02 0.  0.
         13    1    3    3    0    0  0.13552480506E+02 -0.40959829450E+02 -0.30666942703E+02  0.52932503202E+02  0.10566000000E+00 0. -1.
         22    1    1    0    0    0 -0.23816868037E+02  0.18323000129E+01  0.17191607066E+02  0.29430458371E+02  0.00000000000E+00 0. -1.
</event>
<event>
 5    1  0.1751020E-003  0.9118800E+02  0.7818608E-02  0.1130116E+00
         25   -1    0    0    0    0  0.00000000000E+00  0.00000000000E+00  0.99999998245E-14  0.12500000000E+03  0.12500000000E+03 0.  0.
        -13    1    3    3    0    0  0.13796329563E+02 -0.41491741387E+02  0.43032130368E+02  0.61348828194E+02  0.10566000000E+00 0. -1.
         23    2    1    0    0    0  0.12805403218E+02 -0.12803099258E+02  0.14774159199E+02  0.10162964523E+03  0.98906073154E+02 0.  0.
         13    1    3    3    0    0 -0.99092634491E+00  0.28688642130E+02 -0.28257971169E+02  0.40280817033E+02  0.10566000000E+00 0.  1.
         22    1    1    0    0    0 -0.12805403218E+02  0.12803099258E+02 -0.14774159199E+02  0.23370354773E+02  0.00000000000E+00 0. -1.
</event>
<event>
 5    1  0.1751020E-003  0.9118800E+02  0.7818608E-02  0.1130116E+00
         25   -1    0    0    0    0  0.00000000000E+00  0.00000000000E+00  0.99999998245E-14  0.12500000000E+03  0.12500000000E+03 0.  0.
        -13    1    3    3    0    0 -0.20881210504E+02  0.42248793499E+02 -0.13118659139E+02  0.48919279286E+02  0.10566000000E+00 0.  1.
         23    2    1    0    0    0 -0.28358119425E+02 -0.34612040249E+01 -0.35912684328E+01  0.96206596596E+02  0.91796781801E+02 0.  0.
         13    1    3    3    0    0 -0.74769089211E+01 -0.45709997524E+02  0.95273907065E+01  0.47287317310E+02  0.10566000000E+00 0. -1.
         22    1    1    0    0    0  0.28358119425E+02  0.34612040249E+01  0.35912684328E+01  0.28793403404E+02  0.00000000000E+00 0. -1.
</event>
<event>
 5    1  0.1751020E-003  0.9118800E+02  0.7818608E-02  0.1130116E+00
         25   -1    0    0    0    0  0.00000000000E+00  0.00000000000E+00  0.99999998245E-14  0.12500000000E+03  0.12500000000E+03 0.  0.
        -13    1    3    3    0    0  0.18535517834E+02 -0.24048168309E+02 -0.11757793841E+02  0.32559740485E+02  0.10566000000E+00 0.  1.
         23    2    1    0    0    0 -0.12530604248E+02  0.21553252738E+02  0.17041399210E+02  0.94801191522E+02  0.89862661214E+02 0.  0.
         13    1    3    3    0    0 -0.31066122083E+02  0.45601421047E+02  0.28799193052E+02  0.62241451037E+02  0.10566000000E+00 0. -1.
         22    1    1    0    0    0  0.12530604248E+02 -0.21553252738E+02 -0.17041399210E+02  0.30198808478E+02  0.00000000000E+00 0. -1.
</event>
<event>
 5    1  0.1751020E-003  0.9118800E+02  0.7818608E-02  0.1130116E+00
         25   -1    0    0    0    0  0.00000000000E+00  0.00000000000E+00  0.99999998245E-14  0.12500000000E+03  0.12500000000E+03 0.  0.
        -13    1    3    3    0    0  0.48281514345E+02  0.10904388898E+02 -0.38038830801E+02  0.62425748993E+02  0.10566000000E+00 0.  1.
         23    2    1    0    0    0  0.24403792949E+02  0.37013207803E+01 -0.20473411842E+02  0.92931238280E+02  0.87222758326E+02 0.  0.
         13    1    3    3    0    0 -0.23877721396E+02 -0.72030681178E+01  0.17565418960E+02  0.30505489287E+02  0.10566000000E+00 0. -1.
         22    1    1    0    0    0 -0.24403792949E+02 -0.37013207803E+01  0.20473411842E+02  0.32068761720E+02  0.00000000000E+00 0.  1.
</event>
<event>
 5    1  0.1751020E-003  0.9118800E+02  0.7818608E-02  0.1130116E+00
         25   -1    0    0    0    0  0.00000000000E+00  0.00000000000E+00  0.99999998245E-14  0.12500000000E+03  0.12500000000E+03 0.  0.
        -13    1    3    3    0    0  0.23899049499E+02  0.25986841362E+02  0.22656638390E+02  0.41950148010E+02  0.10566000000E+00 0. -1.
         23    2    1    0    0    0  0.96986310843E+01 -0.24761333541E+02  0.12491860971E+02  0.95619161446E+02  0.90993353392E+02 0.  0.
         13    1    3    3    0    0 -0.14200418415E+02 -0.50748174903E+02 -0.10164777418E+02  0.53669013435E+02  0.10566000000E+00 0.  1.
         22    1    1    0    0    0 -0.96986310843E+01  0.24761333541E+02 -0.12491860971E+02  0.29380838554E+02  0.00000000000E+00 0. -1.
</event>
<event>
 5    1  0.1751020E-003  0.9118800E+02  0.7818608E-02  0.1130116E+00
         25   -1    0    0    0    0  0.00000000000E+00  0.00000000000E+00  0.99999998245E-14  0.12500000000E+03  0.12500000000E+03 0.  0.
        -13    1    3    3    0    0 -0.30988250320E+02  0.39057795652E+02  0.34611318109E+02  0.60693801697E+02  0.10566000000E+00 0.  1.
         23    2    1    0    0    0 -0.15784341869E+02  0.15866316106E+02  0.35385357412E+01  0.10234152101E+03  0.99801704656E+02 0.  0.
         13    1    3    3    0    0  0.15203908451E+02 -0.23191479546E+02 -0.31072782368E+02  0.41647719312E+02  0.10566000000E+00 0. -1.
         22    1    1    0    0    0  0.15784341869E+02 -0.15866316106E+02 -0.35385357412E+01  0.22658478991E+02  0.00000000000E+00 0.  1.
</event>
<event>
 5    1  0.1751020E-003  0.9118800E+02  0.7818608E-02  0.1130116E+00
         25   -1    0    0    0    0  0.00000000000E+00  0.00000000000E+00  0.99999998245E-14  0.12500000000E+03  0.12500000000E+03 0.  0.
        -13    1    3    3    0    0  0.37555681358E+02 -0.23262049422E+02  0.43105013544E+02  0.61722001768E+02  0.10566000000E+00 0.  1.
         23    2    1    0    0    0  0.16847203531E+02 -0.17606396773E+02  0.18306544680E+02  0.94521432903E+02  0.89472667479E+02 0.  0.
         13    1    3    3    0    0 -0.20708477827E+02  0.56556526486E+01 -0.24798468864E+02  0.32799431136E+02  0.10566000000E+00 0. -1.
         22    1    1    0    0    0 -0.16847203531E+02  0.17606396773E+02 -0.18306544680E+02  0.30478567097E+02  0.00000000000E+00 0.  1.
</event>
<event>
 5    1  0.1751020E-003  0.9118800E+02  0.7818608E-02  0.1130116E+00
         25   -1    0    0    0    0  0.00000000000E+00  0.00000000000E+00  0.99999998245E-14  0.12500000000E+03  0.12500000000E+03 0.  0.
        -13    1    3    3    0    0 -0.45485908454E+02 -0.22582708948E+02 -0.54053255222E+00  0.50786316570E+02  0.10566000000E+00 0.  1.
         23    2    1    0    0    0 -0.24102734834E+02  0.15917306021E+02  0.65212884003E+01  0.95388690339E+02  0.90676196351E+02 0.  0.
         13    1    3    3    0    0  0.21383173620E+02  0.38500014968E+02  0.70618209525E+01  0.44602373769E+02  0.10566000000E+00 0. -1.
         22    1    1    0    0    0  0.24102734834E+02 -0.15917306021E+02 -0.65212884003E+01  0.29611309661E+02  0.00000000000E+00 0. -1.
</event>
<event>
 5    1  0.1751020E-003  0.9118800E+02  0.7818608E-02  0.1130116E+00
         25   -1    0    0    0    0  0.00000000000E+00  0.00000000000E+00  0.99999998245E-14  0.12500000000E+03  0.12500000000E+03 0.  0.
        -13    1    3    3    0    0  0.26888898695E+02 -0.58458078158E+01  0.27311261800E+02  0.38769866226E+02  0.10566000000E+00 0.  1.
         23    2    1    0    0    0  0.69005081347E+00 -0.22086148102E+02 -0.19973118306E+02  0.95214104630E+02  0.90435204194E+02 0.  0.
         13    1    3    3    0    0 -0.26198847882E+02 -0.16240340286E+02 -0.47284380106E+02  0.56444238404E+02  0.10566000000E+00 0. -1.
         22    1    1    0    0    0 -0.69005081347E+00  0.22086148102E+02  0.19973118306E+02  0.29785895370E+02  0.00000000000E+00 0. -1.
</event>
<event>
 5    1  0.1751020E-003  0.9118800E+02  0.7818608E-02  0.1130116E+00
         25   -1    0    0    0    0  0.00000000000E+00  0.00000000000E+00  0.99999998245E-14  0.12500000000E+03  0.12500000000E+03 0.  0.
        -13    1    3    3    0    0 -0.52970973039E+02  0.19117914064E+02 -0.12696287476E+02  0.57728896599E+02  0.10566000000E+00 0. -1.
         23    2    1    0    0    0 -0.20510741967E+02  0.20658760516E+02  0.60803013377E+01  0.95260380190E+02  0.90499143905E+02 0.  0.
         13    1    3    3    0    0  0.32460231072E+02  0.15408464519E+01  0.18776588814E+02  0.37531483591E+02  0.10566000000E+00 0.  1.
         22    1    1    0    0    0  0.20510741967E+02 -0.20658760516E+02 -0.60803013377E+01  0.29739619810E+02  0.00000000000E+00 0. -1.
</event>
<event>
 5    1  0.1751020E-003  0.9118800E+02  0.7818608E-02  0.1130116E+00
         25   -1    0    0    0    0  0.00000000000E+00  0.00000000000E+00  0.99999998245E-14  0.12500000000E+03  0.12500000000E+03 0.  0.
        -13    1    3    3    0    0 -0.17420568195E+00 -0.53859482501E+02  0.62423745397E+01  0.54220407660E+02  0.10566000000E+00 0.  1.
         23    2    1    0    0    0 -0.17524635316E+02 -0.12489222919E+02  0.13400219696E+02  0.99649271806E+02  0.96370731820E+02 0.  0.
         13    1    3    3    0    0 -0.17350429634E+02  0.41370259582E+02  0.71578451559E+01  0.45428864147E+02  0.10566000000E+00 0. -1.
         22    1    1    0    0    0  0.17524635316E+02  0.12489222919E+02 -0.13400219696E+02  0.25350728194E+02  0.00000000000E+00 0. -1.
</event>
<event>
 5    1  0.1751020E-003  0.9118800E+02  0.7818608E-02  0.1130116E+00
         25   -1    0    0    0    0  0.00000000000E+00  0.00000000000E+00  0.99999998245E-14  0.12500000000E+03  0.12500000000E+03 0.  0.
        -13    1    3    3    0    0 -0.19747699780E+02 -0.38599663240E+02 -0.24474428186E+02  0.49788697994E+02  0.10566000000E+00 0.  1.
         23    2    1    0    0    0  0.33129924354E+01  0.60837017497E-01 -0.29707879141E+02  0.95107898986E+02  0.90288286873E+02 0.  0.
         13    1    3    3    0    0  0.23060692216E+02  0.38660500257E+02 -0.52334509550E+01  0.45319200992E+02  0.10566000000E+00 0. -1.
         22    1    1    0    0    0 -0.33129924354E+01 -0.60837017497E-01  0.29707879141E+02  0.29892101014E+02  0.00000000000E+00 0.  1.
</event>
<event>
 5    1  0.1751020E-003  0.9118800E+02  0.7818608E-02  0.1130116E+00
         25   -1    0    0    0    0  0.00000000000E+00  0.00000000000E+00  0.99999998245E-14  0.12500000000E+03  0.12500000000E+03 0.  0.
        -13    1    3    3    0    0 -0.39761950236E+02 -0.41610594043E+02  0.76269309023E+01  0.58057174081E+02  0.10566000000E+00 0.  1.
         23    2    1    0    0    0 -0.11095372271E+02 -0.24756458698E+02 -0.10474660173E+02  0.95918940205E+02  0.91404239788E+02 0.  0.
         13    1    3    3    0    0  0.28666577966E+02  0.16854135345E+02 -0.18101591075E+02  0.37861766124E+02  0.10566000000E+00 0. -1.
         22    1    1    0    0    0  0.11095372271E+02  0.24756458698E+02  0.10474660173E+02  0.29081059795E+02  0.00000000000E+00 0.  1.
</event>
<event>
 5    1  0.1751020E-003  0.9118800E+02  0.7818608E-02  0.1130116E+00
         25   -1    0    0    0    0  0.00000000000E+00  0.00000000000E+00  0.99999998245E-14  0.12500000000E+03  0.12500000000E+03 0.  0.
        -13    1    3    3    0    0 -0.13334524746E+02 -0.14242112569E+02 -0.27424535578E+02  0.33656554136E+02  0.10566000000E+00 0. -1.
         23    2    1    0    0    0  0.10053372400E+02  0.12549541024E+02  0.23957912237E+02  0.96146181617E+02  0.91714477615E+02 0.  0.
         13    1    3    3    0    0  0.23387897146E+02  0.26791653593E+02  0.51382447815E+02  0.62489627481E+02  0.10566000000E+00 0.  1.
         22    1    1    0    0    0 -0.10053372400E+02 -0.12549541024E+02 -0.23957912237E+02  0.28853818383E+02  0.00000000000E+00 0.  1.
</event>
<event>
 5    1  0.1751020E-003  0.9118800E+02  0.7818608E-02  0.1130116E+00
         25   -1    0    0    0    0  0.00000000000E+00  0.00000000000E+00  0.99999998245E-14  0.12500000000E+03  0.12500000000E+03 0.  0.
        -13    1    3    3    0    0  0.29966574234E+02 -0.20480903970E+02 -0.11565630575E+02  0.38095117448E+02  0.10566000000E+00 0.  1.
         23    2    1    0    0    0 -0.25369749889E+02 -0.10714388068E+02  0.56945792892E+01  0.96877934742E+02  0.92706438209E+02 0.  0.
         13    1    3    3    0    0 -0.55336324123E+02  0.97665159021E+01  0.17260209864E+02  0.58782817293E+02  0.10566000000E+00 0. -1.
         22    1    1    0    0    0  0.25369749889E+02  0.10714388068E+02 -0.56945792892E+01  0.28122065258E+02  0.00000000000E+00 0. -1.
</event>
<event>
 5    1  0.1751020E-003  0.9118800E+02  0.7818608E-02  0.1130116E+00
         25   -1    0    0    0    0  0.00000000000E+00  0.00000000000E+00  0.99999998245E-14  0.12500000000E+03  0.12500000000E+03 0.  0.
        -13    1    3    3    0    0  0.48227342110E+02 -0.18002833014E+02 -0.18064458621E+02  0.54555607895E+02  0.10566000000E+00 0.  1.
         23    2    1    0    0    0  0.26024607042E+02  0.13677647116E+02 -0.74949392206E+01  0.94659724519E+02  0.89665663047E+02 0.  0.
         13    1    3    3    0    0 -0.22202735067E+02  0.31680480130E+02  0.10569519401E+02  0.40104116624E+02  0.10566000000E+00 0. -1.
         22    1    1    0    0    0 -0.26024607042E+02 -0.13677647116E+02  0.74949392206E+01  0.30340275481E+02  0.00000000000E+00 0. -1.
</event>
<event>
 5    1  0.1751020E-003  0.9118800E+02  0.7818608E-02  0.1130116E+00
         25   -1    0    0    0    0  0.00000000000E+00  0.00000000000E+00  0.99999998245E-14  0.12500000000E+03  0.12500000000E+03 0.  0.
        -13    1    3    3    0    0  0.30677918690E+02  0.53176050529E+02 -0.80031012023E+01  0.61910320932E+02  0.10566000000E+00 0. -1.
         23    2    1    0    0    0  0.14895697761E+02  0.20414480371E+02  0.20687242974E+01  0.99644281891E+02  0.96364259312E+02 0.  0.
         13    1    3    3    0    0 -0.15782220929E+02 -0.32761570159E+02  0.10071825500E+02  0.37733960959E+02  0.10566000000E+00 0.  1.
         22    1    1    0    0    0 -0.14895697761E+02 -0.20414480371E+02 -0.20687242974E+01  0.25355718109E+02  0.00000000000E+00 0. -1.
</event>
<event>
 5    1  0.1751020E-003  0.9118800E+02  0.7818608E-02  0.1130116E+00
         25   -1    0    0    0    0  0.00000000000E+00  0.00000000000E+00  0.99999998245E-14  0.12500000000E+03  0.12500000000E+03 0.  0.
        -13    1    3    3    0    0 -0.35637316796E+02 -0.65631363077E+01  0.11742418926E+02  0.38091845229E+02  0.10566000000E+00 0.  1.
         23    2    1    0    0    0  0.20060100862E+01  0.23797503218E+02 -0.18201435065E+02  0.94972721163E+02  0.90100945005E+02 0.  0.
         13    1    3    3    0    0  0.37643326883E+02  0.30360639526E+02 -0.29943853992E+02  0.56880875935E+02  0.10566000000E+00 0. -1.
         22    1    1    0    0    0 -0.20060100862E+01 -0.23797503218E+02  0.18201435065E+02  0.30027278837E+02  0.00000000000E+00 0. -1.
</event>
<event>
 5    1  0.1751020E-003  0.9118800E+02  0.7818608E-02  0.1130116E+00
         25   -1    0    0    0    0  0.00000000000E+00  0.00000000000E+00  0.99999998245E-14  0.12500000000E+03  0.12500000000E+03 0.  0.
        -13    1    3    3    0    0 -0.28387891895E+01  0.60602113142E+02  0.53007879104E+01  0.60899789473E+02  0.10566000000E+00 0.  1.
         23    2    1    0    0    0 -0.80949439390E+01  0.25392400764E+02 -0.48325268757E+01  0.97913925165E+02  0.94092939647E+02 0.  0.
         13    1    3    3    0    0 -0.52561547496E+01 -0.35209712378E+02 -0.10133314786E+02  0.37014135692E+02  0.10566000000E+00 0. -1.
         22    1    1    0    0    0  0.80949439390E+01 -0.25392400764E+02  0.48325268757E+01  0.27086074835E+02  0.00000000000E+00 0.  1.
</event>
<event>
 5    1  0.1751020E-003  0.9118800E+02  0.7818608E-02  0.1130116E+00
         25   -1    0    0    0    0  0.00000000000E+00  0.00000000000E+00  0.99999998245E-14  0.12500000000E+03  0.12500000000E+03 0.  0.
        -13    1    3    3    0    0  0.18667509029E+02  0.22131966283E+02  0.23233046661E+02  0.37122573269E+02  0.10566000000E+00 0. -1.
         23    2    1    0    0    0 -0.93095022634E+01  0.99658558588E+01 -0.26344519718E+02  0.95334888597E+02  0.90601998594E+02 0.  0.
         13    1    3    3    0    0 -0.27977011292E+02 -0.12166110425E+02 -0.49577566379E+02  0.58212315328E+02  0.10566000000E+00 0.  1.
         22    1    1    0    0    0  0.93095022634E+01 -0.99658558588E+01  0.26344519718E+02  0.29665111403E+02  0.00000000000E+00 0.  1.
</event>
<event>
 5    1  0.1751020E-003  0.9118800E+02  0.7818608E-02  0.1130116E+00
         25   -1    0    0    0    0  0.00000000000E+00  0.00000000000E+00  0.99999998245E-14  0.12500000000E+03  0.12500000000E+03 0.  0.
        -13    1    3    3    0    0 -0.20117694162E+02  0.63572149492E+01  0.86560336970E+01  0.22805128451E+02  0.10566000000E+00 0.  1.
         23    2    1    0    0    0  0.22046779830E+02 -0.34846710486E+02  0.12575696002E+02  0.81889654809E+02  0.69623370374E+02 0.  0.
         13    1    3    3    0    0  0.42164473992E+02 -0.41203925435E+02  0.39196623047E+01  0.59084526357E+02  0.10566000000E+00 0. -1.
         22    1    1    0    0    0 -0.22046779830E+02  0.34846710486E+02 -0.12575696002E+02  0.43110345191E+02  0.00000000000E+00 0. -1.
</event>
<event>
 5    1  0.1751020E-003  0.9118800E+02  0.7818608E-02  0.1130116E+00
         25   -1    0    0    0    0  0.00000000000E+00  0.00000000000E+00  0.99999998245E-14  0.12500000000E+03  0.12500000000E+03 0.  0.
        -13    1    3    3    0    0 -0.51968921604E+01 -0.31944638413E+02 -0.62287481038E+01  0.32958702621E+02  0.10566000000E+00 0. -1.
         23    2    1    0    0    0 -0.13145130446E+02  0.24319200772E+02  0.14916229088E+02  0.93588029816E+02  0.88158989639E+02 0.  0.
         13    1    3    3    0    0 -0.79482382851E+01  0.56263839185E+02  0.21144977192E+02  0.60629327195E+02  0.10566000000E+00 0.  1.
         22    1    1    0    0    0  0.13145130446E+02 -0.24319200772E+02 -0.14916229088E+02  0.31411970184E+02  0.00000000000E+00 0.  1.
</event>
<event>
 5    1  0.1751020E-003  0.9118800E+02  0.7818608E-02  0.1130116E+00
         25   -1    0    0    0    0  0.00000000000E+00  0.00000000000E+00  0.99999998245E-14  0.12500000000E+03  0.12500000000E+03 0.  0.
        -13    1    3    3    0    0 -0.38630615358E+02  0.82766503924E+01 -0.29872451560E+02  0.49529808307E+02  0.10566000000E+00 0. -1.
         23    2    1    0    0    0 -0.12835934769E+02  0.24494825831E+02  0.61087606053E+01  0.96679077168E+02  0.92437921288E+02 0.  0.
         13    1    3    3    0    0  0.25794680589E+02  0.16218175439E+02  0.35981212165E+02  0.47149268862E+02  0.10566000000E+00 0.  1.
         22    1    1    0    0    0  0.12835934769E+02 -0.24494825831E+02 -0.61087606053E+01  0.28320922832E+02  0.00000000000E+00 0. -1.
</event>
<event>
 5    1  0.1751020E-003  0.9118800E+02  0.7818608E-02  0.1130116E+00
         25   -1    0    0    0    0  0.00000000000E+00  0.00000000000E+00  0.99999998245E-14  0.12500000000E+03  0.12500000000E+03 0.  0.
        -13    1    3    3    0    0  0.78528102010E+01 -0.66336063204E+01 -0.31437845693E+02  0.33075983231E+02  0.10566000000E+00 0.  1.
         23    2    1    0    0    0 -0.67913819483E+01  0.16600544726E+02  0.24055612132E+02  0.94993776829E+02  0.90130151488E+02 0.  0.
         13    1    3    3    0    0 -0.14644192149E+02  0.23234151046E+02  0.55493457825E+02  0.61917793597E+02  0.10566000000E+00 0. -1.
         22    1    1    0    0    0  0.67913819483E+01 -0.16600544726E+02 -0.24055612132E+02  0.30006223171E+02  0.00000000000E+00 0. -1.
</event>
<event>
 5    1  0.1751020E-003  0.9118800E+02  0.7818608E-02  0.1130116E+00
         25   -1    0    0    0    0  0.00000000000E+00  0.00000000000E+00  0.99999998245E-14  0.12500000000E+03  0.12500000000E+03 0.  0.
        -13    1    3    3    0    0 -0.27486827046E+02  0.10543057351E+02 -0.47735084672E+02  0.56083252331E+02  0.10566000000E+00 0.  1.
         23    2    1    0    0    0 -0.20016098610E+02  0.20433527903E+02 -0.11867803314E+02  0.94031983892E+02  0.88786237521E+02 0.  0.
         13    1    3    3    0    0  0.74707284369E+01  0.98904705521E+01  0.35867281357E+02  0.37948731561E+02  0.10566000000E+00 0. -1.
         22    1    1    0    0    0  0.20016098610E+02 -0.20433527903E+02  0.11867803314E+02  0.30968016108E+02  0.00000000000E+00 0.  1.
</event>
<event>
 5    1  0.1751020E-003  0.9118800E+02  0.7818608E-02  0.1130116E+00
         25   -1    0    0    0    0  0.00000000000E+00  0.00000000000E+00  0.99999998245E-14  0.12500000000E+03  0.12500000000E+03 0.  0.
        -13    1    3    3    0    0 -0.15488807518E+02 -0.29470805548E+01  0.36400073414E+02  0.39668185624E+02  0.10566000000E+00 0.  1.
         23    2    1    0    0    0  0.28858060143E+02  0.45529415529E+01  0.31198417328E+01  0.95618878094E+02  0.90992964143E+02 0.  0.
         13    1    3    3    0    0  0.44346867661E+02  0.75000221077E+01 -0.33280231682E+02  0.55950692469E+02  0.10566000000E+00 0. -1.
         22    1    1    0    0    0 -0.28858060143E+02 -0.45529415529E+01 -0.31198417328E+01  0.29381121906E+02  0.00000000000E+00 0. -1.
</event>
<event>
 5    1  0.1751020E-003  0.9118800E+02  0.7818608E-02  0.1130116E+00
         25   -1    0    0    0    0  0.00000000000E+00  0.00000000000E+00  0.99999998245E-14  0.12500000000E+03  0.12500000000E+03 0.  0.
        -13    1    3    3    0    0  0.20286184526E+02  0.25679589974E+02 -0.20123667942E+02  0.38418013995E+02  0.10566000000E+00 0.  1.
         23    2    1    0    0    0 -0.87521583893E+00  0.22603991871E+01  0.28504886441E+02  0.96392239545E+02  0.92049225342E+02 0.  0.
         13    1    3    3    0    0 -0.21161400365E+02 -0.23419190787E+02  0.48628554384E+02  0.57974225549E+02  0.10566000000E+00 0. -1.
         22    1    1    0    0    0  0.87521583893E+00 -0.22603991871E+01 -0.28504886441E+02  0.28607760455E+02  0.00000000000E+00 0. -1.
</event>
<event>
 5    1  0.1751020E-003  0.9118800E+02  0.7818608E-02  0.1130116E+00
         25   -1    0    0    0    0  0.00000000000E+00  0.00000000000E+00  0.99999998245E-14  0.12500000000E+03  0.12500000000E+03 0.  0.
        -13    1    3    3    0    0 -0.18809781812E+02  0.29213264309E+02  0.11545573231E+02  0.36613305350E+02  0.10566000000E+00 0. -1.
         23    2    1    0    0    0  0.18154194539E+02 -0.16302790971E+02  0.16635450370E+02  0.95468762610E+02  0.90786511401E+02 0.  0.
         13    1    3    3    0    0  0.36963976351E+02 -0.45516055280E+02  0.50898771389E+01  0.58855457260E+02  0.10566000000E+00 0.  1.
         22    1    1    0    0    0 -0.18154194539E+02  0.16302790971E+02 -0.16635450370E+02  0.29531237390E+02  0.00000000000E+00 0.  1.
</event>
<event>
 5    1  0.1751020E-003  0.9118800E+02  0.7818608E-02  0.1130116E+00
         25   -1    0    0    0    0  0.00000000000E+00  0.00000000000E+00  0.99999998245E-14  0.12500000000E+03  0.12500000000E+03 0.  0.
        -13    1    3    3    0    0 -0.12465511231E+02  0.35503225890E+02  0.41299549714E+02  0.55870671998E+02  0.10566000000E+00 0. -1.
         23    2    1    0    0    0 -0.23769825071E+02  0.71052677041E+01  0.20134827976E+02  0.93048463093E+02  0.87390593163E+02 0.  0.
         13    1    3    3    0    0 -0.11304313840E+02 -0.28397958186E+02 -0.21164721738E+02  0.37177791096E+02  0.10566000000E+00 0.  1.
         22    1    1    0    0    0  0.23769825071E+02 -0.71052677041E+01 -0.20134827976E+02  0.31951536907E+02  0.00000000000E+00 0. -1.
</event>
<event>
 5    1  0.1751020E-003  0.9118800E+02  0.7818608E-02  0.1130116E+00
         25   -1    0    0    0    0  0.00000000000E+00  0.00000000000E+00  0.99999998245E-14  0.12500000000E+03  0.12500000000E+03 0.  0.
        -13    1    3    3    0    0  0.17107081661E+02  0.21315630876E+02 -0.22118727052E+02  0.35160455245E+02  0.10566000000E+00 0.  1.
         23    2    1    0    0    0  0.10989053573E+02 -0.12536434161E+02  0.25881007456E+02  0.94214483489E+02  0.89042803596E+02 0.  0.
         13    1    3    3    0    0 -0.61180280875E+01 -0.33852065036E+02  0.47999734509E+02  0.59054028244E+02  0.10566000000E+00 0. -1.
         22    1    1    0    0    0 -0.10989053573E+02  0.12536434161E+02 -0.25881007456E+02  0.30785516511E+02  0.00000000000E+00 0. -1.
</event>
<event>
 5    1  0.1751020E-003  0.9118800E+02  0.7818608E-02  0.1130116E+00
         25   -1    0    0    0    0  0.00000000000E+00  0.00000000000E+00  0.99999998245E-14  0.12500000000E+03  0.12500000000E+03 0.  0.
        -13    1    3    3    0    0 -0.16432670491E+02 -0.15878521045E+01  0.36174520901E+02  0.39763815967E+02  0.10566000000E+00 0.  1.
         23    2    1    0    0    0 -0.42277865837E+01  0.24484072379E+02 -0.13160420580E+02  0.96883445277E+02  0.92713867998E+02 0.  0.
         13    1    3    3    0    0  0.12204883907E+02  0.26071924484E+02 -0.49334941481E+02  0.57119629310E+02  0.10566000000E+00 0. -1.
         22    1    1    0    0    0  0.42277865837E+01 -0.24484072379E+02  0.13160420580E+02  0.28116554723E+02  0.00000000000E+00 0. -1.
</event>
<event>
 5    1  0.1751020E-003  0.9118800E+02  0.7818608E-02  0.1130116E+00
         25   -1    0    0    0    0  0.00000000000E+00  0.00000000000E+00  0.99999998245E-14  0.12500000000E+03  0.12500000000E+03 0.  0.
        -13    1    3    3    0    0 -0.28488115297E+02  0.97730773280E+01 -0.21863475297E+02  0.37217045419E+02  0.10566000000E+00 0.  1.
         23    2    1    0    0    0  0.19903452736E+02 -0.19977438934E+02 -0.79257458522E+01  0.95707288543E+02  0.91114335512E+02 0.  0.
         13    1    3    3    0    0  0.48391568033E+02 -0.29750516262E+02  0.13937729445E+02  0.58490243124E+02  0.10566000000E+00 0. -1.
         22    1    1    0    0    0 -0.19903452736E+02  0.19977438934E+02  0.79257458522E+01  0.29292711457E+02  0.00000000000E+00 0. -1.
</event>
<event>
 5    1  0.1751020E-003  0.9118800E+02  0.7818608E-02  0.1130116E+00
         25   -1    0    0    0    0  0.00000000000E+00  0.00000000000E+00  0.99999998245E-14  0.12500000000E+03  0.12500000000E+03 0.  0.
        -13    1    3    3    0    0 -0.81797395616E+00 -0.25237934046E+02 -0.30204074645E+02  0.39369019361E+02  0.10566000000E+00 0. -1.
         23    2    1    0    0    0  0.90066695356E+01  0.25827476853E+02 -0.48581152412E+01  0.97219072362E+02  0.93165272986E+02 0.  0.
         13    1    3    3    0    0  0.98246434918E+01  0.51065410899E+02  0.25345959404E+02  0.57850053001E+02  0.10566000000E+00 0.  1.
         22    1    1    0    0    0 -0.90066695356E+01 -0.25827476853E+02  0.48581152412E+01  0.27780927638E+02  0.00000000000E+00 0.  1.
</event>
<event>
 5    1  0.1751020E-003  0.9118800E+02  0.7818608E-02  0.1130116E+00
         25   -1    0    0    0    0  0.00000000000E+00  0.00000000000E+00  0.99999998245E-14  0.12500000000E+03  0.12500000000E+03 0.  0.
        -13    1    3    3    0    0 -0.24642868806E+02 -0.25367209847E+01 -0.28728166572E+02  0.37934478446E+02  0.10566000000E+00 0.  1.
         23    2    1    0    0    0  0.28644876628E+02  0.15400545578E+01 -0.84600657027E+01  0.95092251225E+02  0.90266620665E+02 0.  0.
         13    1    3    3    0    0  0.53287745434E+02  0.40767755425E+01  0.20268100869E+02  0.57157772780E+02  0.10566000000E+00 0. -1.
         22    1    1    0    0    0 -0.28644876628E+02 -0.15400545578E+01  0.84600657027E+01  0.29907748775E+02  0.00000000000E+00 0. -1.
</event>
<event>
 5    1  0.1751020E-003  0.9118800E+02  0.7818608E-02  0.1130116E+00
         25   -1    0    0    0    0  0.00000000000E+00  0.00000000000E+00  0.99999998245E-14  0.12500000000E+03  0.12500000000E+03 0.  0.
        -13    1    3    3    0    0 -0.47620386393E+02  0.29319593758E+02  0.41861215381E+01  0.56079181128E+02  0.10566000000E+00 0. -1.
         23    2    1    0    0    0 -0.26600222274E+02 -0.30025187165E+00 -0.11967536802E+02  0.95830085476E+02  0.91282645497E+02 0.  0.
         13    1    3    3    0    0  0.21020164119E+02 -0.29619845630E+02 -0.16153658340E+02  0.39750904348E+02  0.10566000000E+00 0.  1.
         22    1    1    0    0    0  0.26600222274E+02  0.30025187165E+00  0.11967536802E+02  0.29169914524E+02  0.00000000000E+00 0.  1.
</event>
<event>
 5    1  0.1751020E-003  0.9118800E+02  0.7818608E-02  0.1130116E+00
         25   -1    0    0    0    0  0.00000000000E+00  0.00000000000E+00  0.99999998245E-14  0.12500000000E+03  0.12500000000E+03 0.  0.
        -13    1    3    3    0    0  0.53178971321E+02 -0.92840475388E+01  0.26192317805E+02  0.60002043344E+02  0.10566000000E+00 0. -1.
         23    2    1    0    0    0  0.19471563233E+02 -0.13702443653E+02  0.18475850351E+02  0.94862717724E+02  0.89948204156E+02 0.  0.
         13    1    3    3    0    0 -0.33707408088E+02 -0.44183961143E+01 -0.77164674537E+01  0.34860674380E+02  0.10566000000E+00 0.  1.
         22    1    1    0    0    0 -0.19471563233E+02  0.13702443653E+02 -0.18475850351E+02  0.30137282276E+02  0.00000000000E+00 0. -1.
</event>
<event>
 5    1  0.1751020E-003  0.9118800E+02  0.7818608E-02  0.1130116E+00
         25   -1    0    0    0    0  0.00000000000E+00  0.00000000000E+00  0.99999998245E-14  0.12500000000E+03  0.12500000000E+03 0.  0.
        -13    1    3    3    0    0  0.14468014810E+02 -0.27213519423E+02  0.40014647421E+02  0.50508239568E+02  0.10566000000E+00 0. -1.
         23    2    1    0    0    0  0.20885846896E+02  0.11261949299E+02  0.13152831403E+02  0.97869812450E+02  0.94034318801E+02 0.  0.
         13    1    3    3    0    0  0.64178320864E+01  0.38475468722E+02 -0.26861816018E+02  0.47361572882E+02  0.10566000000E+00 0.  1.
         22    1    1    0    0    0 -0.20885846896E+02 -0.11261949299E+02 -0.13152831403E+02  0.27130187550E+02  0.00000000000E+00 0. -1.
</event>
<event>
 5    1  0.1751020E-003  0.9118800E+02  0.7818608E-02  0.1130116E+00
         25   -1    0    0    0    0  0.00000000000E+00  0.00000000000E+00  0.99999998245E-14  0.12500000000E+03  0.12500000000E+03 0.  0.
        -13    1    3    3    0    0 -0.35347853960E+02  0.41656271528E+01  0.11423536947E+02  0.37380898726E+02  0.10566000000E+00 0. -1.
         23    2    1    0    0    0  0.20177520495E+02  0.19386660500E+02 -0.33456893382E+01  0.96819003286E+02  0.92626944360E+02 0.  0.
         13    1    3    3    0    0  0.55525374455E+02  0.15221033348E+02 -0.14769226285E+02  0.59438104559E+02  0.10566000000E+00 0.  1.
         22    1    1    0    0    0 -0.20177520495E+02 -0.19386660500E+02  0.33456893382E+01  0.28180996714E+02  0.00000000000E+00 0.  1.
</event>
<event>
 5    1  0.1751020E-003  0.9118800E+02  0.7818608E-02  0.1130116E+00
         25   -1    0    0    0    0  0.00000000000E+00  0.00000000000E+00  0.99999998245E-14  0.12500000000E+03  0.12500000000E+03 0.  0.
        -13    1    3    3    0    0  0.20425805027E+02 -0.26439557485E+02  0.15948014323E+02  0.37021804870E+02  0.10566000000E+00 0. -1.
         23    2    1    0    0    0 -0.89298349673E+01  0.23924239933E+02 -0.50236107570E+01  0.98974092255E+02  0.95490958021E+02 0.  0.
         13    1    3    3    0    0 -0.29355639994E+02  0.50363797417E+02 -0.20971625080E+02  0.61952287385E+02  0.10566000000E+00 0.  1.
         22    1    1    0    0    0  0.89298349673E+01 -0.23924239933E+02  0.50236107570E+01  0.26025907745E+02  0.00000000000E+00 0.  1.
</event>
<event>
 5    1  0.1751020E-003  0.9118800E+02  0.7818608E-02  0.1130116E+00
         25   -1    0    0    0    0  0.00000000000E+00  0.00000000000E+00  0.99999998245E-14  0.12500000000E+03  0.12500000000E+03 0.  0.
        -13    1    3    3    0    0  0.49084726517E+00 -0.15294162259E+02 -0.32046159525E+02  0.35512249078E+02  0.10566000000E+00 0. -1.
         23    2    1    0    0    0  0.20127883504E+02 -0.16680000478E+01  0.22318773899E+02  0.94899475306E+02  0.89999271255E+02 0.  0.
         13    1    3    3    0    0  0.19637036239E+02  0.13626162211E+02  0.54364933424E+02  0.59387226228E+02  0.10566000000E+00 0.  1.
         22    1    1    0    0    0 -0.20127883504E+02  0.16680000478E+01 -0.22318773899E+02  0.30100524694E+02  0.00000000000E+00 0.  1.
</event>
<event>
 5    1  0.1751020E-003  0.9118800E+02  0.7818608E-02  0.1130116E+00
         25   -1    0    0    0    0  0.00000000000E+00  0.00000000000E+00  0.99999998245E-14  0.12500000000E+03  0.12500000000E+03 0.  0.
        -13    1    3    3    0    0 -0.24463861124E+02  0.24801867652E+02 -0.77440644017E+01  0.35687460509E+02  0.10566000000E+00 0.  1.
         23    2    1    0    0    0  0.14090307207E+02  0.18902042329E+01  0.28369022459E+02  0.93268138023E+02  0.87704244514E+02 0.  0.
         13    1    3    3    0    0  0.38554168331E+02 -0.22911663419E+02  0.36113086861E+02  0.57580677514E+02  0.10566000000E+00 0. -1.
         22    1    1    0    0    0 -0.14090307207E+02 -0.18902042329E+01 -0.28369022459E+02  0.31731861977E+02  0.00000000000E+00 0. -1.
</event>
<event>
 5    1  0.1751020E-003  0.9118800E+02  0.7818608E-02  0.1130116E+00
         25   -1    0    0    0    0  0.00000000000E+00  0.00000000000E+00  0.99999998245E-14  0.12500000000E+03  0.12500000000E+03 0.  0.
        -13    1    3    3    0    0 -0.22822164827E+02  0.34188300160E+02 -0.34698758170E+02  0.53793178543E+02  0.10566000000E+00 0.  1.
         23    2    1    0    0    0 -0.10907553405E+02 -0.35401419741E+01 -0.29061244979E+02  0.93757988442E+02  0.88399644289E+02 0.  0.
         13    1    3    3    0    0  0.11914611421E+02 -0.37728442134E+02  0.56375131916E+01  0.39964809899E+02  0.10566000000E+00 0. -1.
         22    1    1    0    0    0  0.10907553405E+02  0.35401419741E+01  0.29061244979E+02  0.31242011558E+02  0.00000000000E+00 0.  1.
</event>
<event>
 5    1  0.1751020E-003  0.9118800E+02  0.7818608E-02  0.1130116E+00
         25   -1    0    0    0    0  0.00000000000E+00  0.00000000000E+00  0.99999998245E-14  0.12500000000E+03  0.12500000000E+03 0.  0.
        -13    1    3    3    0    0  0.28830640974E+02  0.53144145413E+02 -0.42101592604E+01  0.60607282201E+02  0.10566000000E+00 0. -1.
         23    2    1    0    0    0  0.81265832824E+01  0.26972580004E+02  0.72857954284E+01  0.95902848199E+02  0.91382230492E+02 0.  0.
         13    1    3    3    0    0 -0.20704057692E+02 -0.26171565409E+02  0.11495954689E+02  0.35295565998E+02  0.10566000000E+00 0.  1.
         22    1    1    0    0    0 -0.81265832824E+01 -0.26972580004E+02 -0.72857954284E+01  0.29097151801E+02  0.00000000000E+00 0. -1.
</event>
<event>
 5    1  0.1751020E-003  0.9118800E+02  0.7818608E-02  0.1130116E+00
         25   -1    0    0    0    0  0.00000000000E+00  0.00000000000E+00  0.99999998245E-14  0.12500000000E+03  0.12500000000E+03 0.  0.
        -13    1    3    3    0    0  0.46215991250E+02  0.13166087283E+02  0.24953188401E+02  0.54147358910E+02  0.10566000000E+00 0.  1.
         23    2    1    0    0    0  0.19783890360E+02  0.19390147519E+02 -0.73419582651E+01  0.96341938485E+02  0.91980892697E+02 0.  0.
         13    1    3    3    0    0 -0.26432100889E+02  0.62240602366E+01 -0.32295146667E+02  0.42194579575E+02  0.10566000000E+00 0. -1.
         22    1    1    0    0    0 -0.19783890360E+02 -0.19390147519E+02  0.73419582651E+01  0.28658061515E+02  0.00000000000E+00 0.  1.
</event>
<event>
 5    1  0.1751020E-003  0.9118800E+02  0.7818608E-02  0.1130116E+00
         25   -1    0    0    0    0  0.00000000000E+00  0.00000000000E+00  0.99999998245E-14  0.12500000000E+03  0.12500000000E+03 0.  0.
        -13    1    3    3    0    0  0.54448900516E+01  0.83893058942E+01  0.36425298024E+02  0.37773546050E+02  0.10566000000E+00 0.  1.
         23    2    1    0    0    0 -0.33678614140E+02  0.12049074815E+02  0.34610820736E+01  0.89063829594E+02  0.81492069544E+02 0.  0.
         13    1    3    3    0    0 -0.39123504192E+02  0.36597689204E+01 -0.32964215950E+02  0.51290283544E+02  0.10566000000E+00 0. -1.
         22    1    1    0    0    0  0.33678614140E+02 -0.12049074815E+02 -0.34610820736E+01  0.35936170406E+02  0.00000000000E+00 0. -1.
</event>
<event>
 5    1  0.1751020E-003  0.9118800E+02  0.7818608E-02  0.1130116E+00
         25   -1    0    0    0    0  0.00000000000E+00  0.00000000000E+00  0.99999998245E-14  0.12500000000E+03  0.12500000000E+03 0.  0.
        -13    1    3    3    0    0 -0.43692476822E+02 -0.11110310144E+02 -0.27491484029E+02  0.52804018602E+02  0.10566000000E+00 0.  1.
         23    2    1    0    0    0 -0.67976462507E+01  0.61563700790E+01 -0.30012617349E+02  0.93617423827E+02  0.88200657349E+02 0.  0.
         13    1    3    3    0    0  0.36894830572E+02  0.17266680223E+02 -0.25211333201E+01  0.40813405225E+02  0.10566000000E+00 0. -1.
         22    1    1    0    0    0  0.67976462507E+01 -0.61563700790E+01  0.30012617349E+02  0.31382576173E+02  0.00000000000E+00 0.  1.
</event>
<event>
 5    1  0.1751020E-003  0.9118800E+02  0.7818608E-02  0.1130116E+00
         25   -1    0    0    0    0  0.00000000000E+00  0.00000000000E+00  0.99999998245E-14  0.12500000000E+03  0.12500000000E+03 0.  0.
        -13    1    3    3    0    0  0.60151899325E+02 -0.97930011248E+01  0.29783204640E+01  0.61016681492E+02  0.10566000000E+00 0. -1.
         23    2    1    0    0    0  0.28515263653E+02  0.17851093446E+01 -0.58346974751E+01  0.95839228899E+02  0.91295165396E+02 0.  0.
         13    1    3    3    0    0 -0.31636635672E+02  0.11578110469E+02 -0.88130179391E+01  0.34822547407E+02  0.10566000000E+00 0.  1.
         22    1    1    0    0    0 -0.28515263653E+02 -0.17851093446E+01  0.58346974751E+01  0.29160771101E+02  0.00000000000E+00 0. -1.
</event>
<event>
 5    1  0.1751020E-003  0.9118800E+02  0.7818608E-02  0.1130116E+00
         25   -1    0    0    0    0  0.00000000000E+00  0.00000000000E+00  0.99999998245E-14  0.12500000000E+03  0.12500000000E+03 0.  0.
        -13    1    3    3    0    0  0.47502049872E+02 -0.24973402723E+02 -0.24657375708E+02  0.59060248276E+02  0.10566000000E+00 0.  1.
         23    2    1    0    0    0  0.13440515069E+02 -0.10959468195E+02 -0.23348581178E+02  0.95915405599E+02  0.91399405905E+02 0.  0.
         13    1    3    3    0    0 -0.34061534804E+02  0.14013934528E+02  0.13087945298E+01  0.36855157323E+02  0.10566000000E+00 0. -1.
         22    1    1    0    0    0 -0.13440515069E+02  0.10959468195E+02  0.23348581178E+02  0.29084594401E+02  0.00000000000E+00 0.  1.
</event>
<event>
 5    1  0.1751020E-003  0.9118800E+02  0.7818608E-02  0.1130116E+00
         25   -1    0    0    0    0  0.00000000000E+00  0.00000000000E+00  0.99999998245E-14  0.12500000000E+03  0.12500000000E+03 0.  0.
        -13    1    3    3    0    0 -0.32920056922E+02 -0.76990782802E+01  0.14323180383E+02  0.36717442918E+02  0.10566000000E+00 0.  1.
         23    2    1    0    0    0  0.21624581334E+02 -0.18236168481E+02 -0.63781699140E+01  0.96002389578E+02  0.91518289945E+02 0.  0.
         13    1    3    3    0    0  0.54544638256E+02 -0.10537090201E+02 -0.20701350297E+02  0.59284946660E+02  0.10566000000E+00 0. -1.
         22    1    1    0    0    0 -0.21624581334E+02  0.18236168481E+02  0.63781699140E+01  0.28997610422E+02  0.00000000000E+00 0. -1.
</event>
<event>
 5    1  0.1751020E-003  0.9118800E+02  0.7818608E-02  0.1130116E+00
         25   -1    0    0    0    0  0.00000000000E+00  0.00000000000E+00  0.99999998245E-14  0.12500000000E+03  0.12500000000E+03 0.  0.
        -13    1    3    3    0    0 -0.16962091559E+01 -0.18479963836E+02  0.29326749260E+02  0.34705267253E+02  0.10566000000E+00 0.  1.
         23    2    1    0    0    0  0.13262222792E+02  0.93480536589E+01 -0.23609337744E+02  0.96352600654E+02  0.91995381207E+02 0.  0.
         13    1    3    3    0    0  0.14958431948E+02  0.27828017495E+02 -0.52936087005E+02  0.61647333401E+02  0.10566000000E+00 0. -1.
         22    1    1    0    0    0 -0.13262222792E+02 -0.93480536589E+01  0.23609337744E+02  0.28647399346E+02  0.00000000000E+00 0. -1.
</event>
<event>
 5    1  0.1751020E-003  0.9118800E+02  0.7818608E-02  0.1130116E+00
         25   -1    0    0    0    0  0.00000000000E+00  0.00000000000E+00  0.99999998245E-14  0.12500000000E+03  0.12500000000E+03 0.  0.
        -13    1    3    3    0    0 -0.68498853559E+01  0.22413070391E+02 -0.26383908992E+02  0.35290061936E+02  0.10566000000E+00 0. -1.
         23    2    1    0    0    0 -0.14185168562E+02 -0.10785703543E+02  0.23406833372E+02  0.95581803988E+02  0.90942019975E+02 0.  0.
         13    1    3    3    0    0 -0.73352832065E+01 -0.33198773934E+02  0.49790742364E+02  0.60291742052E+02  0.10566000000E+00 0.  1.
         22    1    1    0    0    0  0.14185168562E+02  0.10785703543E+02 -0.23406833372E+02  0.29418196012E+02  0.00000000000E+00 0.  1.
</event>
<event>
 5    1  0.1751020E-003  0.9118800E+02  0.7818608E-02  0.1130116E+00
         25   -1    0    0    0    0  0.00000000000E+00  0.00000000000E+00  0.99999998245E-14  0.12500000000E+03  0.12500000000E+03 0.  0.
        -13    1    3    3    0    0 -0.51217043973E+01 -0.46887605845E+02  0.27221790704E+02  0.54458392292E+02  0.10566000000E+00 0.  1.
         23    2    1    0    0    0 -0.18372697423E+02 -0.22119404187E+02 -0.34379673736E+01  0.96040654844E+02  0.91570539537E+02 0.  0.
         13    1    3    3    0    0 -0.13250993026E+02  0.24768201659E+02 -0.30659758078E+02  0.41582262553E+02  0.10566000000E+00 0. -1.
         22    1    1    0    0    0  0.18372697423E+02  0.22119404187E+02  0.34379673736E+01  0.28959345156E+02  0.00000000000E+00 0.  1.
</event>
<event>
 5    1  0.1751020E-003  0.9118800E+02  0.7818608E-02  0.1130116E+00
         25   -1    0    0    0    0  0.00000000000E+00  0.00000000000E+00  0.99999998245E-14  0.12500000000E+03  0.12500000000E+03 0.  0.
        -13    1    3    3    0    0  0.30451156665E+02  0.23094884928E+02 -0.47643465984E+02  0.61078291291E+02  0.10566000000E+00 0.  1.
         23    2    1    0    0    0  0.21202612523E+02  0.45584303566E+01 -0.21174295316E+02  0.94690251614E+02  0.89708209788E+02 0.  0.
         13    1    3    3    0    0 -0.92485441413E+01 -0.18536454572E+02  0.26469170668E+02  0.33611960322E+02  0.10566000000E+00 0. -1.
         22    1    1    0    0    0 -0.21202612523E+02 -0.45584303566E+01  0.21174295316E+02  0.30309748386E+02  0.00000000000E+00 0.  1.
</event>
<event>
 5    1  0.1751020E-003  0.9118800E+02  0.7818608E-02  0.1130116E+00
         25   -1    0    0    0    0  0.00000000000E+00  0.00000000000E+00  0.99999998245E-14  0.12500000000E+03  0.12500000000E+03 0.  0.
        -13    1    3    3    0    0 -0.32572453427E+02 -0.64780876544E+00 -0.18449727471E+02  0.37440459215E+02  0.10566000000E+00 0.  1.
         23    2    1    0    0    0  0.22576030645E+02 -0.12601521088E+02  0.52037936709E+01  0.98626623993E+02  0.95035025113E+02 0.  0.
         13    1    3    3    0    0  0.55148484072E+02 -0.11953712323E+02  0.23653521142E+02  0.61186164778E+02  0.10566000000E+00 0. -1.
         22    1    1    0    0    0 -0.22576030645E+02  0.12601521088E+02 -0.52037936709E+01  0.26373376007E+02  0.00000000000E+00 0. -1.
</event>
<event>
 5    1  0.1751020E-003  0.9118800E+02  0.7818608E-02  0.1130116E+00
         25   -1    0    0    0    0  0.00000000000E+00  0.00000000000E+00  0.99999998245E-14  0.12500000000E+03  0.12500000000E+03 0.  0.
        -13    1    3    3    0    0 -0.98582122000E+01  0.57948574513E+02  0.99889634600E+00  0.58789715034E+02  0.10566000000E+00 0.  1.
         23    2    1    0    0    0 -0.20356295010E+01  0.26023229870E+02  0.15418751115E+02  0.94683500098E+02  0.89698801690E+02 0.  0.
         13    1    3    3    0    0  0.78225826989E+01 -0.31925344643E+02  0.14419854769E+02  0.35893785064E+02  0.10566000000E+00 0. -1.
         22    1    1    0    0    0  0.20356295010E+01 -0.26023229870E+02 -0.15418751115E+02  0.30316499902E+02  0.00000000000E+00 0.  1.
</event>
<event>
 5    1  0.1751020E-003  0.9118800E+02  0.7818608E-02  0.1130116E+00
         25   -1    0    0    0    0  0.00000000000E+00  0.00000000000E+00  0.99999998245E-14  0.12500000000E+03  0.12500000000E+03 0.  0.
        -13    1    3    3    0    0  0.21623123055E+02  0.44135687156E+01 -0.38358200463E+02  0.44253833125E+02  0.10566000000E+00 0. -1.
         23    2    1    0    0    0  0.43358176400E+01  0.27848928482E+02  0.48915800721E+01  0.96394236808E+02  0.92051937524E+02 0.  0.
         13    1    3    3    0    0 -0.17287305415E+02  0.23435359766E+02  0.43249780535E+02  0.52140403683E+02  0.10566000000E+00 0.  1.
         22    1    1    0    0    0 -0.43358176400E+01 -0.27848928482E+02 -0.48915800721E+01  0.28605763192E+02  0.00000000000E+00 0.  1.
</event>
<event>
 5    1  0.1751020E-003  0.9118800E+02  0.7818608E-02  0.1130116E+00
         25   -1    0    0    0    0  0.00000000000E+00  0.00000000000E+00  0.99999998245E-14  0.12500000000E+03  0.12500000000E+03 0.  0.
        -13    1    3    3    0    0  0.54336010896E+01 -0.16031217366E+02  0.31666854760E+02  0.35907169276E+02  0.10566000000E+00 0.  1.
         23    2    1    0    0    0 -0.28776937433E+02  0.62831419916E+01 -0.96494156464E+01  0.94004819348E+02  0.88747984975E+02 0.  0.
         13    1    3    3    0    0 -0.34210538523E+02  0.22314359358E+02 -0.41316270406E+02  0.58097650072E+02  0.10566000000E+00 0. -1.
         22    1    1    0    0    0  0.28776937433E+02 -0.62831419916E+01  0.96494156464E+01  0.30995180652E+02  0.00000000000E+00 0. -1.
</event>
<event>
 5    1  0.1751020E-003  0.9118800E+02  0.7818608E-02  0.1130116E+00
         25   -1    0    0    0    0  0.00000000000E+00  0.00000000000E+00  0.99999998245E-14  0.12500000000E+03  0.12500000000E+03 0.  0.
        -13    1    3    3    0    0  0.26204557051E+02 -0.25252155963E+02 -0.24601176477E+02  0.43926976212E+02  0.10566000000E+00 0.  1.
         23    2    1    0    0    0  0.25234180177E+02  0.16908951681E+02  0.32271229062E+01  0.94453464707E+02  0.89377660390E+02 0.  0.
         13    1    3    3    0    0 -0.97037687447E+00  0.42161107644E+02  0.27828299383E+02  0.50526488495E+02  0.10566000000E+00 0. -1.
         22    1    1    0    0    0 -0.25234180177E+02 -0.16908951681E+02 -0.32271229062E+01  0.30546535293E+02  0.00000000000E+00 0. -1.
</event>
<event>
 5    1  0.1751020E-003  0.9118800E+02  0.7818608E-02  0.1130116E+00
         25   -1    0    0    0    0  0.00000000000E+00  0.00000000000E+00  0.99999998245E-14  0.12500000000E+03  0.12500000000E+03 0.  0.
        -13    1    3    3    0    0  0.30190318418E+02 -0.14739512265E+02 -0.17952712138E+02  0.38092250985E+02  0.10566000000E+00 0.  1.
         23    2    1    0    0    0  0.50756873735E+01  0.24950861732E+02  0.14981816005E+02  0.95457438935E+02  0.90770918987E+02 0.  0.
         13    1    3    3    0    0 -0.25114631044E+02  0.39690373997E+02  0.32934528143E+02  0.57365187950E+02  0.10566000000E+00 0. -1.
         22    1    1    0    0    0 -0.50756873735E+01 -0.24950861732E+02 -0.14981816005E+02  0.29542561065E+02  0.00000000000E+00 0. -1.
</event>
<event>
 5    1  0.1751020E-003  0.9118800E+02  0.7818608E-02  0.1130116E+00
         25   -1    0    0    0    0  0.00000000000E+00  0.00000000000E+00  0.99999998245E-14  0.12500000000E+03  0.12500000000E+03 0.  0.
        -13    1    3    3    0    0  0.13208447101E+02 -0.59615934838E+02 -0.37800997998E+01  0.61178616198E+02  0.10566000000E+00 0.  1.
         23    2    1    0    0    0  0.48814202751E+01 -0.26555398850E+02 -0.10681929622E+02  0.95963452471E+02  0.91465092345E+02 0.  0.
         13    1    3    3    0    0 -0.83270268256E+01  0.33060535988E+02 -0.69018298220E+01  0.34784836272E+02  0.10566000000E+00 0. -1.
         22    1    1    0    0    0 -0.48814202751E+01  0.26555398850E+02  0.10681929622E+02  0.29036547529E+02  0.00000000000E+00 0.  1.
</event>
<event>
 5    1  0.1751020E-003  0.9118800E+02  0.7818608E-02  0.1130116E+00
         25   -1    0    0    0    0  0.00000000000E+00  0.00000000000E+00  0.99999998245E-14  0.12500000000E+03  0.12500000000E+03 0.  0.
        -13    1    3    3    0    0  0.33612802766E+02  0.22401808081E+01  0.17568047387E+02  0.37993241147E+02  0.10566000000E+00 0.  1.
         23    2    1    0    0    0 -0.56669837901E+01 -0.23745798098E+02 -0.15984177559E+02  0.95820014311E+02  0.91268853273E+02 0.  0.
         13    1    3    3    0    0 -0.39279786556E+02 -0.25985978906E+02 -0.33552224946E+02  0.57826773163E+02  0.10566000000E+00 0. -1.
         22    1    1    0    0    0  0.56669837901E+01  0.23745798098E+02  0.15984177559E+02  0.29179985689E+02  0.00000000000E+00 0.  1.
</event>
<event>
 5    1  0.1751020E-003  0.9118800E+02  0.7818608E-02  0.1130116E+00
         25   -1    0    0    0    0  0.00000000000E+00  0.00000000000E+00  0.99999998245E-14  0.12500000000E+03  0.12500000000E+03 0.  0.
        -13    1    3    3    0    0 -0.11710420337E+02 -0.28982308814E+01 -0.32965311415E+02  0.35103512750E+02  0.10566000000E+00 0. -1.
         23    2    1    0    0    0 -0.10295260174E+02  0.16033344273E+01  0.27416937672E+02  0.95669955087E+02  0.91063103240E+02 0.  0.
         13    1    3    3    0    0  0.14151601628E+01  0.45015653087E+01  0.60382249086E+02  0.60566442336E+02  0.10566000000E+00 0.  1.
         22    1    1    0    0    0  0.10295260174E+02 -0.16033344273E+01 -0.27416937672E+02  0.29330044913E+02  0.00000000000E+00 0.  1.
</event>
<event>
 5    1  0.1751020E-003  0.9118800E+02  0.7818608E-02  0.1130116E+00
         25   -1    0    0    0    0  0.00000000000E+00  0.00000000000E+00  0.99999998245E-14  0.12500000000E+03  0.12500000000E+03 0.  0.
        -13    1    3    3    0    0  0.41283422557E+02 -0.22692627641E+02 -0.11575562588E+00  0.47109456489E+02  0.10566000000E+00 0. -1.
         23    2    1    0    0    0  0.84513682363E+01  0.22462471916E+01 -0.27192859854E+02  0.96435636213E+02  0.92108137824E+02 0.  0.
         13    1    3    3    0    0 -0.32832054321E+02  0.24938874832E+02 -0.27077104228E+02  0.49326179725E+02  0.10566000000E+00 0.  1.
         22    1    1    0    0    0 -0.84513682363E+01 -0.22462471916E+01  0.27192859854E+02  0.28564363787E+02  0.00000000000E+00 0. -1.
</event>
<event>
 5    1  0.1751020E-003  0.9118800E+02  0.7818608E-02  0.1130116E+00
         25   -1    0    0    0    0  0.00000000000E+00  0.00000000000E+00  0.99999998245E-14  0.12500000000E+03  0.12500000000E+03 0.  0.
        -13    1    3    3    0    0 -0.40400698990E+02 -0.16098102486E+01  0.33049818852E+02  0.52221735495E+02  0.10566000000E+00 0.  1.
         23    2    1    0    0    0 -0.21959398469E+02  0.21835885439E+02  0.41494070578E+01  0.93755181982E+02  0.88395675774E+02 0.  0.
         13    1    3    3    0    0  0.18441300521E+02  0.23445695688E+02 -0.28900411794E+02  0.41533446487E+02  0.10566000000E+00 0. -1.
         22    1    1    0    0    0  0.21959398469E+02 -0.21835885439E+02 -0.41494070578E+01  0.31244818018E+02  0.00000000000E+00 0.  1.
</event>
<event>
 5    1  0.1751020E-003  0.9118800E+02  0.7818608E-02  0.1130116E+00
         25   -1    0    0    0    0  0.00000000000E+00  0.00000000000E+00  0.99999998245E-14  0.12500000000E+03  0.12500000000E+03 0.  0.
        -13    1    3    3    0    0 -0.30597890981E+02  0.11452791827E+02  0.25321994151E+02  0.41335359257E+02  0.10566000000E+00 0.  1.
         23    2    1    0    0    0  0.16877691457E+02 -0.15445367869E+02  0.16920578943E+02  0.96544388088E+02  0.92255606995E+02 0.  0.
         13    1    3    3    0    0  0.47475582438E+02 -0.26898159696E+02 -0.84014152080E+01  0.55209028831E+02  0.10566000000E+00 0. -1.
         22    1    1    0    0    0 -0.16877691457E+02  0.15445367869E+02 -0.16920578943E+02  0.28455611912E+02  0.00000000000E+00 0. -1.
</event>
<event>
 5    1  0.1751020E-003  0.9118800E+02  0.7818608E-02  0.1130116E+00
         25   -1    0    0    0    0  0.00000000000E+00  0.00000000000E+00  0.99999998245E-14  0.12500000000E+03  0.12500000000E+03 0.  0.
        -13    1    3    3    0    0  0.21287990738E+02  0.32664881101E+02 -0.48284566260E+01  0.39287379200E+02  0.10566000000E+00 0.  1.
         23    2    1    0    0    0  0.61064845343E+01 -0.19192055612E+02 -0.21211611198E+02  0.95750100828E+02  0.91173050881E+02 0.  0.
         13    1    3    3    0    0 -0.15181506203E+02 -0.51856936713E+02 -0.16383154572E+02  0.56462721628E+02  0.10566000000E+00 0. -1.
         22    1    1    0    0    0 -0.61064845343E+01  0.19192055612E+02  0.21211611198E+02  0.29249899172E+02  0.00000000000E+00 0.  1.
</event>
<event>
 5    1  0.1751020E-003  0.9118800E+02  0.7818608E-02  0.1130116E+00
         25   -1    0    0    0    0  0.00000000000E+00  0.00000000000E+00  0.99999998245E-14  0.12500000000E+03  0.12500000000E+03 0.  0.
        -13    1    3    3    0    0 -0.19146807217E+02 -0.74370383789E+01 -0.40365880507E+02  0.45291558149E+02  0.10566000000E+00 0.  1.
         23    2    1    0    0    0  0.11928631133E+02 -0.26174856436E+02 -0.53050719890E+01  0.95750057454E+02  0.91172991415E+02 0.  0.
         13    1    3    3    0    0  0.31075438349E+02 -0.18737818057E+02  0.35060808518E+02  0.50458499305E+02  0.10566000000E+00 0. -1.
         22    1    1    0    0    0 -0.11928631133E+02  0.26174856436E+02  0.53050719890E+01  0.29249942546E+02  0.00000000000E+00 0.  1.
</event>
<event>
 5    1  0.1751020E-003  0.9118800E+02  0.7818608E-02  0.1130116E+00
         25   -1    0    0    0    0  0.00000000000E+00  0.00000000000E+00  0.99999998245E-14  0.12500000000E+03  0.12500000000E+03 0.  0.
        -13    1    3    3    0    0 -0.28063791799E+02 -0.65279575479E+01  0.90537050026E+01  0.30202175058E+02  0.10566000000E+00 0.  1.
         23    2    1    0    0    0  0.14785318361E+02  0.12667679409E+02 -0.28609511133E+02  0.90393933077E+02  0.83507384519E+02 0.  0.
         13    1    3    3    0    0  0.42849110160E+02  0.19195636957E+02 -0.37663216135E+02  0.60191758019E+02  0.10566000000E+00 0. -1.
         22    1    1    0    0    0 -0.14785318361E+02 -0.12667679409E+02  0.28609511133E+02  0.34606066923E+02  0.00000000000E+00 0. -1.
</event>
<event>
 5    1  0.1751020E-003  0.9118800E+02  0.7818608E-02  0.1130116E+00
         25   -1    0    0    0    0  0.00000000000E+00  0.00000000000E+00  0.99999998245E-14  0.12500000000E+03  0.12500000000E+03 0.  0.
        -13    1    3    3    0    0 -0.37429566212E+01  0.43819894813E+02 -0.31220189205E+02  0.53934258906E+02  0.10566000000E+00 0. -1.
         23    2    1    0    0    0 -0.16663037066E+02  0.43408813602E+01 -0.22982130368E+02  0.96282786146E+02  0.91900470818E+02 0.  0.
         13    1    3    3    0    0 -0.12920080445E+02 -0.39479013453E+02  0.82380588370E+01  0.42348527240E+02  0.10566000000E+00 0.  1.
         22    1    1    0    0    0  0.16663037066E+02 -0.43408813602E+01  0.22982130368E+02  0.28717213854E+02  0.00000000000E+00 0. -1.
</event>
<event>
 5    1  0.1751020E-003  0.9118800E+02  0.7818608E-02  0.1130116E+00
         25   -1    0    0    0    0  0.00000000000E+00  0.00000000000E+00  0.99999998245E-14  0.12500000000E+03  0.12500000000E+03 0.  0.
        -13    1    3    3    0    0  0.25223042876E+01 -0.40176955374E+01  0.39553640794E+02  0.39837238364E+02  0.10566000000E+00 0.  1.
         23    2    1    0    0    0  0.12891288586E+02 -0.20788156260E+02 -0.13937775506E+02  0.96846947800E+02  0.92664647790E+02 0.  0.
         13    1    3    3    0    0  0.10368984299E+02 -0.16770460722E+02 -0.53491416300E+02  0.57009709437E+02  0.10566000000E+00 0. -1.
         22    1    1    0    0    0 -0.12891288586E+02  0.20788156260E+02  0.13937775506E+02  0.28153052200E+02  0.00000000000E+00 0. -1.
</event>
<event>
 5    1  0.1751020E-003  0.9118800E+02  0.7818608E-02  0.1130116E+00
         25   -1    0    0    0    0  0.00000000000E+00  0.00000000000E+00  0.99999998245E-14  0.12500000000E+03  0.12500000000E+03 0.  0.
        -13    1    3    3    0    0  0.25152836078E+02 -0.20827690940E+00 -0.18575544175E+02  0.31269322785E+02  0.10566000000E+00 0. -1.
         23    2    1    0    0    0 -0.20950337962E+02  0.29010614722E+02 -0.15686458281E+02  0.85928304354E+02  0.76531536561E+02 0.  0.
         13    1    3    3    0    0 -0.46103174040E+02  0.29218891632E+02  0.28890858940E+01  0.54658981568E+02  0.10566000000E+00 0.  1.
         22    1    1    0    0    0  0.20950337962E+02 -0.29010614722E+02  0.15686458281E+02  0.39071695646E+02  0.00000000000E+00 0.  1.
</event>
<event>
 5    1  0.1751020E-003  0.9118800E+02  0.7818608E-02  0.1130116E+00
         25   -1    0    0    0    0  0.00000000000E+00  0.00000000000E+00  0.99999998245E-14  0.12500000000E+03  0.12500000000E+03 0.  0.
        -13    1    3    3    0    0 -0.15270498791E+02 -0.53770195569E+02  0.22019589187E+02  0.60077412868E+02  0.10566000000E+00 0. -1.
         23    2    1    0    0    0 -0.18112892047E+02 -0.23651900457E+02  0.49878981915E+01  0.94794563703E+02  0.89853441368E+02 0.  0.
         13    1    3    3    0    0 -0.28423932569E+01  0.30118295113E+02 -0.17031690995E+02  0.34717150835E+02  0.10566000000E+00 0.  1.
         22    1    1    0    0    0  0.18112892047E+02  0.23651900457E+02 -0.49878981915E+01  0.30205436297E+02  0.00000000000E+00 0. -1.
</event>
<event>
 5    1  0.1751020E-003  0.9118800E+02  0.7818608E-02  0.1130116E+00
         25   -1    0    0    0    0  0.00000000000E+00  0.00000000000E+00  0.99999998245E-14  0.12500000000E+03  0.12500000000E+03 0.  0.
        -13    1    3    3    0    0  0.60333982543E+01 -0.45138837159E+02 -0.25348336596E+02  0.52119726082E+02  0.10566000000E+00 0.  1.
         23    2    1    0    0    0 -0.10678908534E+02 -0.28364123119E+02  0.85864698478E+01  0.93499364574E+02  0.88033182059E+02 0.  0.
         13    1    3    3    0    0 -0.16712306788E+02  0.16774714040E+02  0.33934806444E+02  0.41379638492E+02  0.10566000000E+00 0. -1.
         22    1    1    0    0    0  0.10678908534E+02  0.28364123119E+02 -0.85864698478E+01  0.31500635426E+02  0.00000000000E+00 0.  1.
</event>
<event>
 5    1  0.1751020E-003  0.9118800E+02  0.7818608E-02  0.1130116E+00
         25   -1    0    0    0    0  0.00000000000E+00  0.00000000000E+00  0.99999998245E-14  0.12500000000E+03  0.12500000000E+03 0.  0.
        -13    1    3    3    0    0  0.36647757559E+01  0.25976279226E+02 -0.56421495366E+02  0.62222134061E+02  0.10566000000E+00 0.  1.
         23    2    1    0    0    0  0.50861786936E+01  0.96952530055E+01 -0.26735488246E+02  0.96109630042E+02  0.91664647005E+02 0.  0.
         13    1    3    3    0    0  0.14214029377E+01 -0.16281026221E+02  0.29686007120E+02  0.33887495981E+02  0.10566000000E+00 0. -1.
         22    1    1    0    0    0 -0.50861786936E+01 -0.96952530055E+01  0.26735488246E+02  0.28890369958E+02  0.00000000000E+00 0.  1.
</event>
<event>
 5    1  0.1751020E-003  0.9118800E+02  0.7818608E-02  0.1130116E+00
         25   -1    0    0    0    0  0.00000000000E+00  0.00000000000E+00  0.99999998245E-14  0.12500000000E+03  0.12500000000E+03 0.  0.
        -13    1    3    3    0    0  0.56740249847E+01  0.26707981391E+02 -0.20891462493E+02  0.34379866181E+02  0.10566000000E+00 0.  1.
         23    2    1    0    0    0 -0.43358585211E+01 -0.19193741367E+02  0.20203432792E+02  0.96797551997E+02  0.92597991334E+02 0.  0.
         13    1    3    3    0    0 -0.10009883506E+02 -0.45901722758E+02  0.41094895285E+02  0.62417685815E+02  0.10566000000E+00 0. -1.
         22    1    1    0    0    0  0.43358585211E+01  0.19193741367E+02 -0.20203432792E+02  0.28202448003E+02  0.00000000000E+00 0. -1.
</event>
<event>
 5    1  0.1751020E-003  0.9118800E+02  0.7818608E-02  0.1130116E+00
         25   -1    0    0    0    0  0.00000000000E+00  0.00000000000E+00  0.99999998245E-14  0.12500000000E+03  0.12500000000E+03 0.  0.
        -13    1    3    3    0    0  0.42524544485E+02  0.11033133340E+02 -0.39537470863E+02  0.59104058078E+02  0.10566000000E+00 0. -1.
         23    2    1    0    0    0  0.13087370670E+02  0.18127271845E+02 -0.18582483667E+02  0.95927917948E+02  0.91416516489E+02 0.  0.
         13    1    3    3    0    0 -0.29437173815E+02  0.70941385051E+01  0.20954987196E+02  0.36823859870E+02  0.10566000000E+00 0.  1.
         22    1    1    0    0    0 -0.13087370670E+02 -0.18127271845E+02  0.18582483667E+02  0.29072082052E+02  0.00000000000E+00 0. -1.
</event>
<event>
 5    1  0.1751020E-003  0.9118800E+02  0.7818608E-02  0.1130116E+00
         25   -1    0    0    0    0  0.00000000000E+00  0.00000000000E+00  0.99999998245E-14  0.12500000000E+03  0.12500000000E+03 0.  0.
        -13    1    3    3    0    0  0.41993035955E+01  0.52078816071E+02 -0.16513384670E+02  0.54795440242E+02  0.10566000000E+00 0. -1.
         23    2    1    0    0    0 -0.16536482578E+02  0.24118973577E+02  0.44342182738E+01  0.95422264553E+02  0.90722467660E+02 0.  0.
         13    1    3    3    0    0 -0.20735786173E+02 -0.27959842494E+02  0.20947602944E+02  0.40626824311E+02  0.10566000000E+00 0.  1.
         22    1    1    0    0    0  0.16536482578E+02 -0.24118973577E+02 -0.44342182738E+01  0.29577735447E+02  0.00000000000E+00 0. -1.
</event>
<event>
 5    1  0.1751020E-003  0.9118800E+02  0.7818608E-02  0.1130116E+00
         25   -1    0    0    0    0  0.00000000000E+00  0.00000000000E+00  0.99999998245E-14  0.12500000000E+03  0.12500000000E+03 0.  0.
        -13    1    3    3    0    0  0.33667153793E+02  0.25367019985E+02  0.25678941982E+02  0.49359722171E+02  0.10566000000E+00 0.  1.
         23    2    1    0    0    0  0.28277324395E+02  0.49259974796E+01 -0.13039829741E+02  0.93473666789E+02  0.87996685717E+02 0.  0.
         13    1    3    3    0    0 -0.53898293986E+01 -0.20441022505E+02 -0.38718771722E+02  0.44113944618E+02  0.10566000000E+00 0. -1.
         22    1    1    0    0    0 -0.28277324395E+02 -0.49259974796E+01  0.13039829741E+02  0.31526333211E+02  0.00000000000E+00 0. -1.
</event>
<event>
 5    1  0.1751020E-003  0.9118800E+02  0.7818608E-02  0.1130116E+00
         25   -1    0    0    0    0  0.00000000000E+00  0.00000000000E+00  0.99999998245E-14  0.12500000000E+03  0.12500000000E+03 0.  0.
        -13    1    3    3    0    0 -0.14422253084E+02  0.35617634733E+02 -0.47441627175E+02  0.61051915949E+02  0.10566000000E+00 0.  1.
         23    2    1    0    0    0 -0.11094207356E+01  0.11145907031E+02 -0.27482620190E+02  0.95322458484E+02  0.90584847635E+02 0.  0.
         13    1    3    3    0    0  0.13312832349E+02 -0.24471727702E+02  0.19959006985E+02  0.34270542536E+02  0.10566000000E+00 0. -1.
         22    1    1    0    0    0  0.11094207356E+01 -0.11145907031E+02  0.27482620190E+02  0.29677541516E+02  0.00000000000E+00 0.  1.
</event>
<event>
 5    1  0.1751020E-003  0.9118800E+02  0.7818608E-02  0.1130116E+00
         25   -1    0    0    0    0  0.00000000000E+00  0.00000000000E+00  0.99999998245E-14  0.12500000000E+03  0.12500000000E+03 0.  0.
        -13    1    3    3    0    0 -0.18998073797E+01  0.11504002515E+02  0.50893391370E+02  0.52212065570E+02  0.10566000000E+00 0.  1.
         23    2    1    0    0    0 -0.11973168920E+02  0.25453295955E+02  0.12630770688E+02  0.94165548211E+02  0.88974080792E+02 0.  0.
         13    1    3    3    0    0 -0.10073361540E+02  0.13949293440E+02 -0.38262620682E+02  0.41953482641E+02  0.10566000000E+00 0. -1.
         22    1    1    0    0    0  0.11973168920E+02 -0.25453295955E+02 -0.12630770688E+02  0.30834451789E+02  0.00000000000E+00 0.  1.
</event>
<event>
 5    1  0.1751020E-003  0.9118800E+02  0.7818608E-02  0.1130116E+00
         25   -1    0    0    0    0  0.00000000000E+00  0.00000000000E+00  0.99999998245E-14  0.12500000000E+03  0.12500000000E+03 0.  0.
        -13    1    3    3    0    0 -0.32676345405E+02 -0.16765090480E+01  0.48203778657E+02  0.58259502851E+02  0.10566000000E+00 0.  1.
         23    2    1    0    0    0 -0.96038017467E+01  0.14574101509E+02  0.23227187613E+02  0.95945917891E+02  0.91441125719E+02 0.  0.
         13    1    3    3    0    0  0.23072543658E+02  0.16250610557E+02 -0.24976591044E+02  0.37686415040E+02  0.10566000000E+00 0. -1.
         22    1    1    0    0    0  0.96038017467E+01 -0.14574101509E+02 -0.23227187613E+02  0.29054082109E+02  0.00000000000E+00 0.  1.
</event>
<event>
 5    1  0.1751020E-003  0.9118800E+02  0.7818608E-02  0.1130116E+00
         25   -1    0    0    0    0  0.00000000000E+00  0.00000000000E+00  0.99999998245E-14  0.12500000000E+03  0.12500000000E+03 0.  0.
        -13    1    3    3    0    0 -0.16878796595E+02  0.20478026976E+02 -0.50987468688E+02  0.57480226953E+02  0.10566000000E+00 0.  1.
         23    2    1    0    0    0 -0.21462371738E+02  0.13917509932E+02 -0.12991358258E+02  0.96310178239E+02  0.91937721092E+02 0.  0.
         13    1    3    3    0    0 -0.45835751431E+01 -0.65605170439E+01  0.37996110430E+02  0.38829951286E+02  0.10566000000E+00 0. -1.
         22    1    1    0    0    0  0.21462371738E+02 -0.13917509932E+02  0.12991358258E+02  0.28689821761E+02  0.00000000000E+00 0.  1.
</event>
<event>
 5    1  0.1751020E-003  0.9118800E+02  0.7818608E-02  0.1130116E+00
         25   -1    0    0    0    0  0.00000000000E+00  0.00000000000E+00  0.99999998245E-14  0.12500000000E+03  0.12500000000E+03 0.  0.
        -13    1    3    3    0    0 -0.18805582689E+01  0.11280156084E+02 -0.36256616405E+02  0.38017519880E+02  0.10566000000E+00 0. -1.
         23    2    1    0    0    0 -0.24071780163E+02 -0.12197997121E+02  0.11492548461E+02  0.95668781067E+02  0.91061491679E+02 0.  0.
         13    1    3    3    0    0 -0.22191221894E+02 -0.23478153204E+02  0.47749164866E+02  0.57651261187E+02  0.10566000000E+00 0.  1.
         22    1    1    0    0    0  0.24071780163E+02  0.12197997121E+02 -0.11492548461E+02  0.29331218933E+02  0.00000000000E+00 0.  1.
</event>
<event>
 5    1  0.1751020E-003  0.9118800E+02  0.7818608E-02  0.1130116E+00
         25   -1    0    0    0    0  0.00000000000E+00  0.00000000000E+00  0.99999998245E-14  0.12500000000E+03  0.12500000000E+03 0.  0.
        -13    1    3    3    0    0  0.56696202696E+01  0.42543133193E+02  0.54245130326E+01  0.43260828489E+02  0.10566000000E+00 0.  1.
         23    2    1    0    0    0  0.25109728745E+02  0.24869276141E+01 -0.18411689412E+02  0.93764225740E+02  0.88408463594E+02 0.  0.
         13    1    3    3    0    0  0.19440108476E+02 -0.40056205579E+02 -0.23836202445E+02  0.50503397251E+02  0.10566000000E+00 0. -1.
         22    1    1    0    0    0 -0.25109728745E+02 -0.24869276141E+01  0.18411689412E+02  0.31235774260E+02  0.00000000000E+00 0. -1.
</event>
<event>
 5    1  0.1751020E-003  0.9118800E+02  0.7818608E-02  0.1130116E+00
         25   -1    0    0    0    0  0.00000000000E+00  0.00000000000E+00  0.99999998245E-14  0.12500000000E+03  0.12500000000E+03 0.  0.
        -13    1    3    3    0    0  0.40153400852E+01 -0.33485236051E+02  0.28574333185E+02  0.44202801613E+02  0.10566000000E+00 0. -1.
         23    2    1    0    0    0 -0.81031498509E+01 -0.19938489975E+02 -0.19723185270E+02  0.95807390367E+02  0.91251562133E+02 0.  0.
         13    1    3    3    0    0 -0.12118489936E+02  0.13546746076E+02 -0.48297518455E+02  0.51604588754E+02  0.10566000000E+00 0.  1.
         22    1    1    0    0    0  0.81031498509E+01  0.19938489975E+02  0.19723185270E+02  0.29192609633E+02  0.00000000000E+00 0.  1.
</event>
<event>
 5    1  0.1751020E-003  0.9118800E+02  0.7818608E-02  0.1130116E+00
         25   -1    0    0    0    0  0.00000000000E+00  0.00000000000E+00  0.99999998245E-14  0.12500000000E+03  0.12500000000E+03 0.  0.
        -13    1    3    3    0    0 -0.12973893764E+02 -0.37302536952E+02 -0.26308675226E+02  0.47454807329E+02  0.10566000000E+00 0. -1.
         23    2    1    0    0    0 -0.15875238647E+02  0.12697299450E+02 -0.17223414261E+02  0.98356227477E+02  0.94678703357E+02 0.  0.
         13    1    3    3    0    0 -0.29013448829E+01  0.49999836402E+02  0.90852609650E+01  0.50901420149E+02  0.10566000000E+00 0.  1.
         22    1    1    0    0    0  0.15875238647E+02 -0.12697299450E+02  0.17223414261E+02  0.26643772523E+02  0.00000000000E+00 0.  1.
</event>
<event>
 5    1  0.1751020E-003  0.9118800E+02  0.7818608E-02  0.1130116E+00
         25   -1    0    0    0    0  0.00000000000E+00  0.00000000000E+00  0.99999998245E-14  0.12500000000E+03  0.12500000000E+03 0.  0.
        -13    1    3    3    0    0  0.10024414110E+02 -0.45047257817E+02 -0.17970518617E+02  0.49524690999E+02  0.10566000000E+00 0.  1.
         23    2    1    0    0    0  0.30204188084E+02 -0.96593394078E+01 -0.21847619267E+01  0.93213697915E+02  0.87626619692E+02 0.  0.
         13    1    3    3    0    0  0.20179773974E+02  0.35387918410E+02  0.15785756690E+02  0.43689006916E+02  0.10566000000E+00 0. -1.
         22    1    1    0    0    0 -0.30204188084E+02  0.96593394078E+01  0.21847619267E+01  0.31786302085E+02  0.00000000000E+00 0. -1.
</event>
<event>
 5    1  0.1751020E-003  0.9118800E+02  0.7818608E-02  0.1130116E+00
         25   -1    0    0    0    0  0.00000000000E+00  0.00000000000E+00  0.99999998245E-14  0.12500000000E+03  0.12500000000E+03 0.  0.
        -13    1    3    3    0    0 -0.11391564978E+02 -0.55532640518E+02 -0.62788181096E+01  0.57035748759E+02  0.10566000000E+00 0.  1.
         23    2    1    0    0    0 -0.11285968639E+02 -0.21061271193E+02 -0.19703641160E+02  0.94029308897E+02  0.88782471380E+02 0.  0.
         13    1    3    3    0    0  0.10559633913E+00  0.34471369325E+02 -0.13424823051E+02  0.36993560138E+02  0.10566000000E+00 0. -1.
         22    1    1    0    0    0  0.11285968639E+02  0.21061271193E+02  0.19703641160E+02  0.30970691103E+02  0.00000000000E+00 0.  1.
</event>
<event>
 5    1  0.1751020E-003  0.9118800E+02  0.7818608E-02  0.1130116E+00
         25   -1    0    0    0    0  0.00000000000E+00  0.00000000000E+00  0.99999998245E-14  0.12500000000E+03  0.12500000000E+03 0.  0.
        -13    1    3    3    0    0 -0.21496851350E+02 -0.69630206074E+01 -0.28642758847E+02  0.36483106670E+02  0.10566000000E+00 0.  1.
         23    2    1    0    0    0  0.66000149272E+01 -0.16888004267E+02  0.22761171976E+02  0.95899556105E+02  0.91377727188E+02 0.  0.
         13    1    3    3    0    0  0.28096866277E+02 -0.99249836600E+01  0.51403930823E+02  0.59416449434E+02  0.10566000000E+00 0. -1.
         22    1    1    0    0    0 -0.66000149272E+01  0.16888004267E+02 -0.22761171976E+02  0.29100443895E+02  0.00000000000E+00 0. -1.
</event>
<event>
 5    1  0.1751020E-003  0.9118800E+02  0.7818608E-02  0.1130116E+00
         25   -1    0    0    0    0  0.00000000000E+00  0.00000000000E+00  0.99999998245E-14  0.12500000000E+03  0.12500000000E+03 0.  0.
        -13    1    3    3    0    0  0.20715639241E+02 -0.31370951839E+02 -0.18241192257E+00  0.37594132077E+02  0.10566000000E+00 0.  1.
         23    2    1    0    0    0 -0.22074900013E+02  0.47055708008E+01  0.17663006928E+02  0.96339479752E+02  0.91977551272E+02 0.  0.
         13    1    3    3    0    0 -0.42790539254E+02  0.36076522640E+02  0.17845418850E+02  0.58745347675E+02  0.10566000000E+00 0. -1.
         22    1    1    0    0    0  0.22074900013E+02 -0.47055708008E+01 -0.17663006928E+02  0.28660520248E+02  0.00000000000E+00 0. -1.
</event>
<event>
 5    1  0.1751020E-003  0.9118800E+02  0.7818608E-02  0.1130116E+00
         25   -1    0    0    0    0  0.00000000000E+00  0.00000000000E+00  0.99999998245E-14  0.12500000000E+03  0.12500000000E+03 0.  0.
        -13    1    3    3    0    0 -0.55736599563E+02  0.15351344189E+02 -0.18457014707E+02  0.60686941389E+02  0.10566000000E+00 0.  1.
         23    2    1    0    0    0 -0.33654704037E+02  0.36317917815E+01 -0.10795998380E+01  0.91132691999E+02  0.84605986785E+02 0.  0.
         13    1    3    3    0    0  0.22081895526E+02 -0.11719552408E+02  0.17377414869E+02  0.30445750610E+02  0.10566000000E+00 0. -1.
         22    1    1    0    0    0  0.33654704037E+02 -0.36317917815E+01  0.10795998380E+01  0.33867308001E+02  0.00000000000E+00 0.  1.
</event>
<event>
 5    1  0.1751020E-003  0.9118800E+02  0.7818608E-02  0.1130116E+00
         25   -1    0    0    0    0  0.00000000000E+00  0.00000000000E+00  0.99999998245E-14  0.12500000000E+03  0.12500000000E+03 0.  0.
        -13    1    3    3    0    0 -0.49774631528E+02  0.15844362625E+02  0.10467143145E+02  0.53274102718E+02  0.10566000000E+00 0. -1.
         23    2    1    0    0    0 -0.17052352801E+02  0.26484013361E+02 -0.82423411061E+01  0.92440487002E+02  0.86516598122E+02 0.  0.
         13    1    3    3    0    0  0.32722278728E+02  0.10639650736E+02 -0.18709484251E+02  0.39166384284E+02  0.10566000000E+00 0.  1.
         22    1    1    0    0    0  0.17052352801E+02 -0.26484013361E+02  0.82423411061E+01  0.32559512998E+02  0.00000000000E+00 0. -1.
</event>
<event>
 5    1  0.1751020E-003  0.9118800E+02  0.7818608E-02  0.1130116E+00
         25   -1    0    0    0    0  0.00000000000E+00  0.00000000000E+00  0.99999998245E-14  0.12500000000E+03  0.12500000000E+03 0.  0.
        -13    1    3    3    0    0  0.25247513695E+02  0.45152002182E+02 -0.32894055283E+02  0.61303917377E+02  0.10566000000E+00 0. -1.
         23    2    1    0    0    0  0.56736261348E+01  0.27487965656E+02 -0.14922461929E+02  0.93212295467E+02  0.87624619068E+02 0.  0.
         13    1    3    3    0    0 -0.19573887561E+02 -0.17664036525E+02  0.17971593354E+02  0.31908378090E+02  0.10566000000E+00 0.  1.
         22    1    1    0    0    0 -0.56736261348E+01 -0.27487965656E+02  0.14922461929E+02  0.31787704533E+02  0.00000000000E+00 0. -1.
</event>
<event>
 5    1  0.1751020E-003  0.9118800E+02  0.7818608E-02  0.1130116E+00
         25   -1    0    0    0    0  0.00000000000E+00  0.00000000000E+00  0.99999998245E-14  0.12500000000E+03  0.12500000000E+03 0.  0.
        -13    1    3    3    0    0  0.22523362608E+02  0.20285293680E+02 -0.23451210360E+02  0.38324475656E+02  0.10566000000E+00 0.  1.
         23    2    1    0    0    0 -0.26647525153E+02 -0.65263794421E+01 -0.74437293619E+01  0.96573017533E+02  0.92294389771E+02 0.  0.
         13    1    3    3    0    0 -0.49170887761E+02 -0.26811673122E+02  0.16007480998E+02  0.58248541877E+02  0.10566000000E+00 0. -1.
         22    1    1    0    0    0  0.26647525153E+02  0.65263794421E+01  0.74437293619E+01  0.28426982467E+02  0.00000000000E+00 0. -1.
</event>
<event>
 5    1  0.1751020E-003  0.9118800E+02  0.7818608E-02  0.1130116E+00
         25   -1    0    0    0    0  0.00000000000E+00  0.00000000000E+00  0.99999998245E-14  0.12500000000E+03  0.12500000000E+03 0.  0.
        -13    1    3    3    0    0 -0.35672791322E+00 -0.26631359135E+02 -0.36801486119E+02  0.45428153042E+02  0.10566000000E+00 0.  1.
         23    2    1    0    0    0  0.23401173241E+02 -0.11575207393E+02  0.74394002992E+01  0.97853268851E+02  0.94012324792E+02 0.  0.
         13    1    3    3    0    0  0.23757901154E+02  0.15056151741E+02  0.44240886418E+02  0.52425115809E+02  0.10566000000E+00 0. -1.
         22    1    1    0    0    0 -0.23401173241E+02  0.11575207393E+02 -0.74394002992E+01  0.27146731149E+02  0.00000000000E+00 0. -1.
</event>
<event>
 5    1  0.1751020E-003  0.9118800E+02  0.7818608E-02  0.1130116E+00
         25   -1    0    0    0    0  0.00000000000E+00  0.00000000000E+00  0.99999998245E-14  0.12500000000E+03  0.12500000000E+03 0.  0.
        -13    1    3    3    0    0 -0.36170499773E+02 -0.14187939757E+02  0.22900405010E+02  0.45100359223E+02  0.10566000000E+00 0. -1.
         23    2    1    0    0    0 -0.19076027197E+02  0.10247816286E+01 -0.22222976275E+02  0.95694613711E+02  0.91096945216E+02 0.  0.
         13    1    3    3    0    0  0.17094472576E+02  0.15212721385E+02 -0.45123381285E+02  0.50594254488E+02  0.10566000000E+00 0.  1.
         22    1    1    0    0    0  0.19076027197E+02 -0.10247816286E+01  0.22222976275E+02  0.29305386289E+02  0.00000000000E+00 0.  1.
</event>
<event>
 5    1  0.1751020E-003  0.9118800E+02  0.7818608E-02  0.1130116E+00
         25   -1    0    0    0    0  0.00000000000E+00  0.00000000000E+00  0.99999998245E-14  0.12500000000E+03  0.12500000000E+03 0.  0.
        -13    1    3    3    0    0  0.19257842559E+02 -0.19276113780E+02  0.20186109803E+02  0.33910518361E+02  0.10566000000E+00 0. -1.
         23    2    1    0    0    0 -0.51773703462E+01  0.31741333944E+02  0.93626774535E+01  0.91504072288E+02  0.85152909944E+02 0.  0.
         13    1    3    3    0    0 -0.24435212905E+02  0.51017447724E+02 -0.10823432350E+02  0.57593553926E+02  0.10566000000E+00 0.  1.
         22    1    1    0    0    0  0.51773703462E+01 -0.31741333944E+02 -0.93626774535E+01  0.33495927712E+02  0.00000000000E+00 0.  1.
</event>
<event>
 5    1  0.1751020E-003  0.9118800E+02  0.7818608E-02  0.1130116E+00
         25   -1    0    0    0    0  0.00000000000E+00  0.00000000000E+00  0.99999998245E-14  0.12500000000E+03  0.12500000000E+03 0.  0.
        -13    1    3    3    0    0 -0.42789462010E+02  0.82262266968E+01 -0.19529350318E+01  0.43616900211E+02  0.10566000000E+00 0. -1.
         23    2    1    0    0    0 -0.36610675893E+01 -0.25784787637E+02 -0.11833954829E+02  0.96394036001E+02  0.92051664843E+02 0.  0.
         13    1    3    3    0    0  0.39128394421E+02 -0.34011014334E+02 -0.98810197976E+01  0.52777135790E+02  0.10566000000E+00 0.  1.
         22    1    1    0    0    0  0.36610675893E+01  0.25784787637E+02  0.11833954829E+02  0.28605963999E+02  0.00000000000E+00 0.  1.
</event>
<event>
 5    1  0.1751020E-003  0.9118800E+02  0.7818608E-02  0.1130116E+00
         25   -1    0    0    0    0  0.00000000000E+00  0.00000000000E+00  0.99999998245E-14  0.12500000000E+03  0.12500000000E+03 0.  0.
        -13    1    3    3    0    0  0.27877821901E+01 -0.59027339483E+02  0.27378387554E+00  0.59093863113E+02  0.10566000000E+00 0.  1.
         23    2    1    0    0    0  0.96058872140E+01 -0.24213171369E+02  0.11810971856E+02  0.96398430233E+02  0.92057631722E+02 0.  0.
         13    1    3    3    0    0  0.68181050239E+01  0.34814168113E+02  0.11537187981E+02  0.37304567121E+02  0.10566000000E+00 0. -1.
         22    1    1    0    0    0 -0.96058872140E+01  0.24213171369E+02 -0.11810971856E+02  0.28601569767E+02  0.00000000000E+00 0.  1.
</event>
<event>
 5    1  0.1751020E-003  0.9118800E+02  0.7818608E-02  0.1130116E+00
         25   -1    0    0    0    0  0.00000000000E+00  0.00000000000E+00  0.99999998245E-14  0.12500000000E+03  0.12500000000E+03 0.  0.
        -13    1    3    3    0    0 -0.30999681628E+02  0.44824862260E+01 -0.23166035244E+02  0.38958302027E+02  0.10566000000E+00 0.  1.
         23    2    1    0    0    0  0.24990866489E+02 -0.19733661118E+01 -0.14663656974E+02  0.95957609989E+02  0.91457107418E+02 0.  0.
         13    1    3    3    0    0  0.55990548118E+02 -0.64558523378E+01  0.85023782704E+01  0.56999307962E+02  0.10566000000E+00 0. -1.
         22    1    1    0    0    0 -0.24990866489E+02  0.19733661118E+01  0.14663656974E+02  0.29042390011E+02  0.00000000000E+00 0. -1.
</event>
<event>
 5    1  0.1751020E-003  0.9118800E+02  0.7818608E-02  0.1130116E+00
         25   -1    0    0    0    0  0.00000000000E+00  0.00000000000E+00  0.99999998245E-14  0.12500000000E+03  0.12500000000E+03 0.  0.
        -13    1    3    3    0    0 -0.49157503936E+02  0.72837736239E+01  0.13505272798E+02  0.51496767945E+02  0.10566000000E+00 0. -1.
         23    2    1    0    0    0 -0.69665214541E+01  0.66530345835E+01  0.27427486883E+02  0.95930044254E+02  0.91419423886E+02 0.  0.
         13    1    3    3    0    0  0.42190982482E+02 -0.63073904038E+00  0.13922214085E+02  0.44433276309E+02  0.10566000000E+00 0.  1.
         22    1    1    0    0    0  0.69665214541E+01 -0.66530345835E+01 -0.27427486883E+02  0.29069955746E+02  0.00000000000E+00 0. -1.
</event>
<event>
 5    1  0.1751020E-003  0.9118800E+02  0.7818608E-02  0.1130116E+00
         25   -1    0    0    0    0  0.00000000000E+00  0.00000000000E+00  0.99999998245E-14  0.12500000000E+03  0.12500000000E+03 0.  0.
        -13    1    3    3    0    0  0.51886732398E+02  0.15557955649E+02  0.57675506532E+01  0.54475304382E+02  0.10566000000E+00 0.  1.
         23    2    1    0    0    0  0.25098771629E+02 -0.11408160162E+02 -0.10064030233E+02  0.95650738338E+02  0.91036721078E+02 0.  0.
         13    1    3    3    0    0 -0.26787960770E+02 -0.26966115811E+02 -0.15831580886E+02  0.41175433957E+02  0.10566000000E+00 0. -1.
         22    1    1    0    0    0 -0.25098771629E+02  0.11408160162E+02  0.10064030233E+02  0.29349261662E+02  0.00000000000E+00 0.  1.
</event>
<event>
 5    1  0.1751020E-003  0.9118800E+02  0.7818608E-02  0.1130116E+00
         25   -1    0    0    0    0  0.00000000000E+00  0.00000000000E+00  0.99999998245E-14  0.12500000000E+03  0.12500000000E+03 0.  0.
        -13    1    3    3    0    0 -0.34305544022E+01 -0.27456130470E+02 -0.30552516560E+02  0.41219840321E+02  0.10566000000E+00 0.  1.
         23    2    1    0    0    0 -0.27640320353E+02  0.94644610612E+01  0.14490002102E+01  0.95748283229E+02  0.91170558885E+02 0.  0.
         13    1    3    3    0    0 -0.24209765951E+02  0.36920591531E+02  0.32001516770E+02  0.54528442909E+02  0.10566000000E+00 0. -1.
         22    1    1    0    0    0  0.27640320353E+02 -0.94644610612E+01 -0.14490002102E+01  0.29251716771E+02  0.00000000000E+00 0. -1.
</event>
<event>
 5    1  0.1751020E-003  0.9118800E+02  0.7818608E-02  0.1130116E+00
         25   -1    0    0    0    0  0.00000000000E+00  0.00000000000E+00  0.99999998245E-14  0.12500000000E+03  0.12500000000E+03 0.  0.
        -13    1    3    3    0    0  0.96390633229E+01 -0.44680641853E+02  0.40217534126E+01  0.45885258664E+02  0.10566000000E+00 0.  1.
         23    2    1    0    0    0 -0.18668302857E+02 -0.68318377275E+01 -0.18141438362E+02  0.98087338962E+02  0.94323033987E+02 0.  0.
         13    1    3    3    0    0 -0.28307366180E+02  0.37848804125E+02 -0.22163191774E+02  0.52202080298E+02  0.10566000000E+00 0. -1.
         22    1    1    0    0    0  0.18668302857E+02  0.68318377275E+01  0.18141438362E+02  0.26912661038E+02  0.00000000000E+00 0.  1.
</event>
<event>
 5    1  0.1751020E-003  0.9118800E+02  0.7818608E-02  0.1130116E+00
         25   -1    0    0    0    0  0.00000000000E+00  0.00000000000E+00  0.99999998245E-14  0.12500000000E+03  0.12500000000E+03 0.  0.
        -13    1    3    3    0    0 -0.16124012957E+02 -0.41721417082E+01 -0.31467133726E+02  0.35603121060E+02  0.10566000000E+00 0.  1.
         23    2    1    0    0    0  0.27046836949E+02  0.74892571167E+01  0.86018023415E+01  0.95646782721E+02  0.91031289567E+02 0.  0.
         13    1    3    3    0    0  0.43170849906E+02  0.11661398825E+02  0.40068936067E+02  0.60043661661E+02  0.10566000000E+00 0. -1.
         22    1    1    0    0    0 -0.27046836949E+02 -0.74892571167E+01 -0.86018023415E+01  0.29353217279E+02  0.00000000000E+00 0. -1.
</event>
<event>
 5    1  0.1751020E-003  0.9118800E+02  0.7818608E-02  0.1130116E+00
         25   -1    0    0    0    0  0.00000000000E+00  0.00000000000E+00  0.99999998245E-14  0.12500000000E+03  0.12500000000E+03 0.  0.
        -13    1    3    3    0    0  0.21913920478E+02  0.11432365892E+02  0.46485787390E+02  0.52648442464E+02  0.10566000000E+00 0. -1.
         23    2    1    0    0    0  0.11008581415E+02  0.26043693338E+02  0.74072376298E+01  0.95771076025E+02  0.91201803744E+02 0.  0.
         13    1    3    3    0    0 -0.10905339063E+02  0.14611327446E+02 -0.39078549760E+02  0.43122633561E+02  0.10566000000E+00 0.  1.
         22    1    1    0    0    0 -0.11008581415E+02 -0.26043693338E+02 -0.74072376298E+01  0.29228923975E+02  0.00000000000E+00 0. -1.
</event>
<event>
 5    1  0.1751020E-003  0.9118800E+02  0.7818608E-02  0.1130116E+00
         25   -1    0    0    0    0  0.00000000000E+00  0.00000000000E+00  0.99999998245E-14  0.12500000000E+03  0.12500000000E+03 0.  0.
        -13    1    3    3    0    0 -0.23266146814E+02 -0.18942762835E+02 -0.20492150153E+02  0.36332922169E+02  0.10566000000E+00 0.  1.
         23    2    1    0    0    0 -0.27194394499E+01  0.74190794589E+01  0.28379643238E+02  0.95540837737E+02  0.90885694332E+02 0.  0.
         13    1    3    3    0    0  0.20546707365E+02  0.26361842294E+02  0.48871793390E+02  0.59207915568E+02  0.10566000000E+00 0. -1.
         22    1    1    0    0    0  0.27194394499E+01 -0.74190794589E+01 -0.28379643238E+02  0.29459162263E+02  0.00000000000E+00 0. -1.
</event>
<event>
 5    1  0.1751020E-003  0.9118800E+02  0.7818608E-02  0.1130116E+00
         25   -1    0    0    0    0  0.00000000000E+00  0.00000000000E+00  0.99999998245E-14  0.12500000000E+03  0.12500000000E+03 0.  0.
        -13    1    3    3    0    0  0.20178558352E+02 -0.25938338182E+02  0.36249715974E+02  0.48928771465E+02  0.10566000000E+00 0. -1.
         23    2    1    0    0    0  0.23929032324E+02  0.13230858333E+02  0.17677879642E+02  0.92439876707E+02  0.86515716357E+02 0.  0.
         13    1    3    3    0    0  0.37504739716E+01  0.39169196515E+02 -0.18571836332E+02  0.43511105243E+02  0.10566000000E+00 0.  1.
         22    1    1    0    0    0 -0.23929032324E+02 -0.13230858333E+02 -0.17677879642E+02  0.32560123293E+02  0.00000000000E+00 0. -1.
</event>
<event>
 5    1  0.1751020E-003  0.9118800E+02  0.7818608E-02  0.1130116E+00
         25   -1    0    0    0    0  0.00000000000E+00  0.00000000000E+00  0.99999998245E-14  0.12500000000E+03  0.12500000000E+03 0.  0.
        -13    1    3    3    0    0  0.11207943464E+00  0.32512021604E+02  0.14425855923E+02  0.35569096049E+02  0.10566000000E+00 0. -1.
         23    2    1    0    0    0  0.30570333101E+02 -0.11338972432E+02 -0.42200087652E+01  0.92122560384E+02  0.86056028819E+02 0.  0.
         13    1    3    3    0    0  0.30458253666E+02 -0.43850994037E+02 -0.18645864688E+02  0.56553464336E+02  0.10566000000E+00 0.  1.
         22    1    1    0    0    0 -0.30570333101E+02  0.11338972432E+02  0.42200087652E+01  0.32877439616E+02  0.00000000000E+00 0.  1.
</event>
<event>
 5    1  0.1751020E-003  0.9118800E+02  0.7818608E-02  0.1130116E+00
         25   -1    0    0    0    0  0.00000000000E+00  0.00000000000E+00  0.99999998245E-14  0.12500000000E+03  0.12500000000E+03 0.  0.
        -13    1    3    3    0    0  0.36837770038E+02  0.40735616215E+02 -0.18731536113E+02  0.58028383908E+02  0.10566000000E+00 0.  1.
         23    2    1    0    0    0  0.31130907987E+01  0.23443743221E+02 -0.16825689925E+02  0.95975798512E+02  0.91481963403E+02 0.  0.
         13    1    3    3    0    0 -0.33724679239E+02 -0.17291872994E+02  0.19058461887E+01  0.37947414604E+02  0.10566000000E+00 0. -1.
         22    1    1    0    0    0 -0.31130907987E+01 -0.23443743221E+02  0.16825689925E+02  0.29024201488E+02  0.00000000000E+00 0.  1.
</event>
<event>
 5    1  0.1751020E-003  0.9118800E+02  0.7818608E-02  0.1130116E+00
         25   -1    0    0    0    0  0.00000000000E+00  0.00000000000E+00  0.99999998245E-14  0.12500000000E+03  0.12500000000E+03 0.  0.
        -13    1    3    3    0    0  0.67111105327E+01  0.30873012613E+02 -0.22623370135E+02  0.38858846518E+02  0.10566000000E+00 0.  1.
         23    2    1    0    0    0 -0.14787042354E+02 -0.20979788693E+02 -0.14337108751E+02  0.95599985672E+02  0.90967007305E+02 0.  0.
         13    1    3    3    0    0 -0.21498152886E+02 -0.51852801306E+02  0.82862613846E+01  0.56741139154E+02  0.10566000000E+00 0. -1.
         22    1    1    0    0    0  0.14787042354E+02  0.20979788693E+02  0.14337108751E+02  0.29400014328E+02  0.00000000000E+00 0. -1.
</event>
<event>
 5    1  0.1751020E-003  0.9118800E+02  0.7818608E-02  0.1130116E+00
         25   -1    0    0    0    0  0.00000000000E+00  0.00000000000E+00  0.99999998245E-14  0.12500000000E+03  0.12500000000E+03 0.  0.
        -13    1    3    3    0    0  0.96906272919E+01 -0.48496470547E+02 -0.10480021440E+02  0.50553515469E+02  0.10566000000E+00 0.  1.
         23    2    1    0    0    0 -0.11240234769E+02 -0.20994413660E+02  0.17847339118E+02  0.95240366330E+02  0.90471495967E+02 0.  0.
         13    1    3    3    0    0 -0.20930862061E+02  0.27502056887E+02  0.28327360558E+02  0.44686850861E+02  0.10566000000E+00 0. -1.
         22    1    1    0    0    0  0.11240234769E+02  0.20994413660E+02 -0.17847339118E+02  0.29759633670E+02  0.00000000000E+00 0.  1.
</event>
<event>
 5    1  0.1751020E-003  0.9118800E+02  0.7818608E-02  0.1130116E+00
         25   -1    0    0    0    0  0.00000000000E+00  0.00000000000E+00  0.99999998245E-14  0.12500000000E+03  0.12500000000E+03 0.  0.
        -13    1    3    3    0    0 -0.49226195646E+02  0.25034815906E+01  0.35934021742E+02  0.60997957674E+02  0.10566000000E+00 0.  1.
         23    2    1    0    0    0 -0.26697873958E+02  0.73280363115E+01  0.10308485792E+02  0.95457801886E+02  0.90771418803E+02 0.  0.
         13    1    3    3    0    0  0.22528321687E+02  0.48245547209E+01 -0.25625535950E+02  0.34459844212E+02  0.10566000000E+00 0. -1.
         22    1    1    0    0    0  0.26697873958E+02 -0.73280363115E+01 -0.10308485792E+02  0.29542198114E+02  0.00000000000E+00 0.  1.
</event>
<event>
 5    1  0.1751020E-003  0.9118800E+02  0.7818608E-02  0.1130116E+00
         25   -1    0    0    0    0  0.00000000000E+00  0.00000000000E+00  0.99999998245E-14  0.12500000000E+03  0.12500000000E+03 0.  0.
        -13    1    3    3    0    0  0.31216273245E+02 -0.36975525803E+02 -0.19511049971E+02  0.52176023791E+02  0.10566000000E+00 0. -1.
         23    2    1    0    0    0  0.12836901986E+02 -0.24645424460E+02  0.15187554542E+02  0.93332274910E+02  0.87795607678E+02 0.  0.
         13    1    3    3    0    0 -0.18379371258E+02  0.12330101343E+02  0.34698604513E+02  0.41156251119E+02  0.10566000000E+00 0.  1.
         22    1    1    0    0    0 -0.12836901986E+02  0.24645424460E+02 -0.15187554542E+02  0.31667725090E+02  0.00000000000E+00 0.  1.
</event>
<event>
 5    1  0.1751020E-003  0.9118800E+02  0.7818608E-02  0.1130116E+00
         25   -1    0    0    0    0  0.00000000000E+00  0.00000000000E+00  0.99999998245E-14  0.12500000000E+03  0.12500000000E+03 0.  0.
        -13    1    3    3    0    0  0.11309323707E+02 -0.99780854055E+01  0.58953002672E+02  0.60851710569E+02  0.10566000000E+00 0. -1.
         23    2    1    0    0    0  0.50139475096E+01 -0.14307257443E+02  0.24133314160E+02  0.96499927412E+02  0.92195346157E+02 0.  0.
         13    1    3    3    0    0 -0.62953761977E+01 -0.43291720377E+01 -0.34819688512E+02  0.35648216843E+02  0.10566000000E+00 0.  1.
         22    1    1    0    0    0 -0.50139475096E+01  0.14307257443E+02 -0.24133314160E+02  0.28500072588E+02  0.00000000000E+00 0.  1.
</event>
<event>
 5    1  0.1751020E-003  0.9118800E+02  0.7818608E-02  0.1130116E+00
         25   -1    0    0    0    0  0.00000000000E+00  0.00000000000E+00  0.99999998245E-14  0.12500000000E+03  0.12500000000E+03 0.  0.
        -13    1    3    3    0    0  0.10849009277E+02 -0.35227193576E+02 -0.16124530911E+02  0.40232671185E+02  0.10566000000E+00 0.  1.
         23    2    1    0    0    0  0.70893449111E+01  0.37353925496E+00  0.27461517902E+02  0.96635703634E+02  0.92379250422E+02 0.  0.
         13    1    3    3    0    0 -0.37596643656E+01  0.35600732831E+02  0.43586048813E+02  0.56403032449E+02  0.10566000000E+00 0. -1.
         22    1    1    0    0    0 -0.70893449111E+01 -0.37353925496E+00 -0.27461517902E+02  0.28364296366E+02  0.00000000000E+00 0. -1.
</event>
<event>
 5    1  0.1751020E-003  0.9118800E+02  0.7818608E-02  0.1130116E+00
         25   -1    0    0    0    0  0.00000000000E+00  0.00000000000E+00  0.99999998245E-14  0.12500000000E+03  0.12500000000E+03 0.  0.
        -13    1    3    3    0    0 -0.18237373742E+02 -0.15023454663E+02 -0.39020492310E+02  0.45617057941E+02  0.10566000000E+00 0.  1.
         23    2    1    0    0    0  0.10772353753E+02 -0.26832918585E+02  0.54594751632E+00  0.96080332231E+02  0.91624685854E+02 0.  0.
         13    1    3    3    0    0  0.29009727495E+02 -0.11809463922E+02  0.39566439827E+02  0.50463274290E+02  0.10566000000E+00 0. -1.
         22    1    1    0    0    0 -0.10772353753E+02  0.26832918585E+02 -0.54594751632E+00  0.28919667769E+02  0.00000000000E+00 0. -1.
</event>
<event>
 5    1  0.1751020E-003  0.9118800E+02  0.7818608E-02  0.1130116E+00
         25   -1    0    0    0    0  0.00000000000E+00  0.00000000000E+00  0.99999998245E-14  0.12500000000E+03  0.12500000000E+03 0.  0.
        -13    1    3    3    0    0 -0.20522936655E+02 -0.53898668445E+02 -0.17550783827E+02  0.60285143826E+02  0.10566000000E+00 0.  1.
         23    2    1    0    0    0 -0.55569930065E+01 -0.21588239868E+02 -0.18686947181E+02  0.95911612853E+02  0.91394218708E+02 0.  0.
         13    1    3    3    0    0  0.14965943648E+02  0.32310428577E+02 -0.11361633536E+01  0.35626469027E+02  0.10566000000E+00 0. -1.
         22    1    1    0    0    0  0.55569930065E+01  0.21588239868E+02  0.18686947181E+02  0.29088387147E+02  0.00000000000E+00 0.  1.
</event>
<event>
 5    1  0.1751020E-003  0.9118800E+02  0.7818608E-02  0.1130116E+00
         25   -1    0    0    0    0  0.00000000000E+00  0.00000000000E+00  0.99999998245E-14  0.12500000000E+03  0.12500000000E+03 0.  0.
        -13    1    3    3    0    0  0.22674386272E+02 -0.30012056105E+02 -0.41236283814E+02  0.55814814980E+02  0.10566000000E+00 0.  1.
         23    2    1    0    0    0  0.31048600836E+02 -0.13499222698E+02 -0.14895417177E+02  0.88011919755E+02  0.79862256034E+02 0.  0.
         13    1    3    3    0    0  0.83742145637E+01  0.16512833407E+02  0.26340866637E+02  0.32197104775E+02  0.10566000000E+00 0. -1.
         22    1    1    0    0    0 -0.31048600836E+02  0.13499222698E+02  0.14895417177E+02  0.36988080245E+02  0.00000000000E+00 0.  1.
</event>
<event>
 5    1  0.1751020E-003  0.9118800E+02  0.7818608E-02  0.1130116E+00
         25   -1    0    0    0    0  0.00000000000E+00  0.00000000000E+00  0.99999998245E-14  0.12500000000E+03  0.12500000000E+03 0.  0.
        -13    1    3    3    0    0 -0.23775353196E+01 -0.42910261916E+02 -0.37730882868E+02  0.57188931953E+02  0.10566000000E+00 0.  1.
         23    2    1    0    0    0  0.49760778878E+01 -0.31504576858E+02 -0.48786608685E+01  0.92733902528E+02  0.86939494087E+02 0.  0.
         13    1    3    3    0    0  0.73536132074E+01  0.11405685058E+02  0.32852221999E+02  0.35544970575E+02  0.10566000000E+00 0. -1.
         22    1    1    0    0    0 -0.49760778878E+01  0.31504576858E+02  0.48786608685E+01  0.32266097472E+02  0.00000000000E+00 0.  1.
</event>
<event>
 5    1  0.1751020E-003  0.9118800E+02  0.7818608E-02  0.1130116E+00
         25   -1    0    0    0    0  0.00000000000E+00  0.00000000000E+00  0.99999998245E-14  0.12500000000E+03  0.12500000000E+03 0.  0.
        -13    1    3    3    0    0 -0.36469111292E+02 -0.46470325365E+02  0.65072951122E+01  0.59429313236E+02  0.10566000000E+00 0. -1.
         23    2    1    0    0    0 -0.76914510202E+01 -0.32176777078E+02  0.43217666482E+01  0.91635631747E+02  0.85345813821E+02 0.  0.
         13    1    3    3    0    0  0.28777660272E+02  0.14293548287E+02 -0.21855284640E+01  0.32206318511E+02  0.10566000000E+00 0.  1.
         22    1    1    0    0    0  0.76914510202E+01  0.32176777078E+02 -0.43217666482E+01  0.33364368253E+02  0.00000000000E+00 0. -1.
</event>
<event>
 5    1  0.1751020E-003  0.9118800E+02  0.7818608E-02  0.1130116E+00
         25   -1    0    0    0    0  0.00000000000E+00  0.00000000000E+00  0.99999998245E-14  0.12500000000E+03  0.12500000000E+03 0.  0.
        -13    1    3    3    0    0  0.13209102552E+02 -0.14494718654E+02  0.24767954062E+02  0.31591770630E+02  0.10566000000E+00 0. -1.
         23    2    1    0    0    0 -0.96426303960E+01  0.19405761058E+02 -0.22279188163E+02  0.93920648199E+02  0.88629352078E+02 0.  0.
         13    1    3    3    0    0 -0.22851732948E+02  0.33900479712E+02 -0.47047142225E+02  0.62328877569E+02  0.10566000000E+00 0.  1.
         22    1    1    0    0    0  0.96426303960E+01 -0.19405761058E+02  0.22279188163E+02  0.31079351801E+02  0.00000000000E+00 0.  1.
</event>
<event>
 5    1  0.1751020E-003  0.9118800E+02  0.7818608E-02  0.1130116E+00
         25   -1    0    0    0    0  0.00000000000E+00  0.00000000000E+00  0.99999998245E-14  0.12500000000E+03  0.12500000000E+03 0.  0.
        -13    1    3    3    0    0  0.30114506208E+01  0.60350635236E+01 -0.61589646598E+02  0.61957941853E+02  0.10566000000E+00 0.  1.
         23    2    1    0    0    0  0.70155268451E+01  0.45706347349E+01 -0.29331023042E+02  0.94497258623E+02  0.89438887828E+02 0.  0.
         13    1    3    3    0    0  0.40040762243E+01 -0.14644287888E+01  0.32258623556E+02  0.32539316770E+02  0.10566000000E+00 0. -1.
         22    1    1    0    0    0 -0.70155268451E+01 -0.45706347349E+01  0.29331023042E+02  0.30502741377E+02  0.00000000000E+00 0.  1.
</event>
<event>
 5    1  0.1751020E-003  0.9118800E+02  0.7818608E-02  0.1130116E+00
         25   -1    0    0    0    0  0.00000000000E+00  0.00000000000E+00  0.99999998245E-14  0.12500000000E+03  0.12500000000E+03 0.  0.
        -13    1    3    3    0    0 -0.96422518412E+01 -0.38788149867E+02  0.20380004389E+02  0.44864789463E+02  0.10566000000E+00 0.  1.
         23    2    1    0    0    0  0.85168472727E+01 -0.19894160799E+02 -0.21645935502E+02  0.94391817350E+02  0.89291401252E+02 0.  0.
         13    1    3    3    0    0  0.18159099114E+02  0.18893989067E+02 -0.42025939891E+02  0.49527027887E+02  0.10566000000E+00 0. -1.
         22    1    1    0    0    0 -0.85168472727E+01  0.19894160799E+02  0.21645935502E+02  0.30608182650E+02  0.00000000000E+00 0. -1.
</event>
<event>
 5    1  0.1751020E-003  0.9118800E+02  0.7818608E-02  0.1130116E+00
         25   -1    0    0    0    0  0.00000000000E+00  0.00000000000E+00  0.99999998245E-14  0.12500000000E+03  0.12500000000E+03 0.  0.
        -13    1    3    3    0    0  0.16777222078E+02  0.55127590858E+02 -0.11109757972E+02  0.58685299187E+02  0.10566000000E+00 0.  1.
         23    2    1    0    0    0  0.20427832968E+02  0.18968926532E+02 -0.11009079303E+02  0.95028073791E+02  0.90177704826E+02 0.  0.
         13    1    3    3    0    0  0.36506108899E+01 -0.36158664326E+02  0.10067866893E+00  0.36342774604E+02  0.10566000000E+00 0. -1.
         22    1    1    0    0    0 -0.20427832968E+02 -0.18968926532E+02  0.11009079303E+02  0.29971926209E+02  0.00000000000E+00 0.  1.
</event>
<event>
 5    1  0.1751020E-003  0.9118800E+02  0.7818608E-02  0.1130116E+00
         25   -1    0    0    0    0  0.00000000000E+00  0.00000000000E+00  0.99999998245E-14  0.12500000000E+03  0.12500000000E+03 0.  0.
        -13    1    3    3    0    0 -0.64803960426E+01 -0.48176141087E+01  0.39022111264E+02  0.39848980792E+02  0.10566000000E+00 0.  1.
         23    2    1    0    0    0  0.17182365914E+02 -0.29723330630E+02  0.16270532159E+01  0.90629120111E+02  0.83858690831E+02 0.  0.
         13    1    3    3    0    0  0.23662761957E+02 -0.24905716522E+02 -0.37395058048E+02  0.50780139320E+02  0.10566000000E+00 0. -1.
         22    1    1    0    0    0 -0.17182365914E+02  0.29723330630E+02 -0.16270532159E+01  0.34370879889E+02  0.00000000000E+00 0. -1.
</event>
<event>
 5    1  0.1751020E-003  0.9118800E+02  0.7818608E-02  0.1130116E+00
         25   -1    0    0    0    0  0.00000000000E+00  0.00000000000E+00  0.99999998245E-14  0.12500000000E+03  0.12500000000E+03 0.  0.
        -13    1    3    3    0    0  0.21010736718E+02 -0.52025613218E+02  0.16655589345E+02  0.58528072825E+02  0.10566000000E+00 0.  1.
         23    2    1    0    0    0 -0.54173760646E+01 -0.28207995901E+02  0.87541400456E+01  0.94972113559E+02  0.90100102052E+02 0.  0.
         13    1    3    3    0    0 -0.26428112783E+02  0.23817617317E+02 -0.79014492990E+01  0.36444040734E+02  0.10566000000E+00 0. -1.
         22    1    1    0    0    0  0.54173760646E+01  0.28207995901E+02 -0.87541400456E+01  0.30027886441E+02  0.00000000000E+00 0.  1.
</event>
<event>
 5    1  0.1751020E-003  0.9118800E+02  0.7818608E-02  0.1130116E+00
         25   -1    0    0    0    0  0.00000000000E+00  0.00000000000E+00  0.99999998245E-14  0.12500000000E+03  0.12500000000E+03 0.  0.
        -13    1    3    3    0    0 -0.26722157083E+02  0.22934174925E+02  0.15092251820E+02  0.38312364684E+02  0.10566000000E+00 0. -1.
         23    2    1    0    0    0  0.78906889892E+01 -0.69645476128E+01 -0.24199921703E+02  0.98610530384E+02  0.95013854758E+02 0.  0.
         13    1    3    3    0    0  0.34612846072E+02 -0.29898722538E+02 -0.39292173523E+02  0.60298165700E+02  0.10566000000E+00 0.  1.
         22    1    1    0    0    0 -0.78906889892E+01  0.69645476128E+01  0.24199921703E+02  0.26389469616E+02  0.00000000000E+00 0.  1.
</event>
<event>
 5    1  0.1751020E-003  0.9118800E+02  0.7818608E-02  0.1130116E+00
         25   -1    0    0    0    0  0.00000000000E+00  0.00000000000E+00  0.99999998245E-14  0.12500000000E+03  0.12500000000E+03 0.  0.
        -13    1    3    3    0    0  0.34338695957E+02  0.10947389090E+02 -0.15368366011E+02  0.39181490603E+02  0.10566000000E+00 0.  1.
         23    2    1    0    0    0  0.50016571620E+01 -0.22371209067E+02  0.18921552539E+02  0.95276058135E+02  0.90520796140E+02 0.  0.
         13    1    3    3    0    0 -0.29337038795E+02 -0.33318598158E+02  0.34289918550E+02  0.56094567533E+02  0.10566000000E+00 0. -1.
         22    1    1    0    0    0 -0.50016571620E+01  0.22371209067E+02 -0.18921552539E+02  0.29723941865E+02  0.00000000000E+00 0. -1.
</event>
<event>
 5    1  0.1751020E-003  0.9118800E+02  0.7818608E-02  0.1130116E+00
         25   -1    0    0    0    0  0.00000000000E+00  0.00000000000E+00  0.99999998245E-14  0.12500000000E+03  0.12500000000E+03 0.  0.
        -13    1    3    3    0    0  0.22682093924E+02  0.37170976783E+02  0.33797040182E+02  0.55121774182E+02  0.10566000000E+00 0.  1.
         23    2    1    0    0    0  0.10264751480E+01  0.51187194772E+01  0.30624164500E+02  0.93934031616E+02  0.88648225611E+02 0.  0.
         13    1    3    3    0    0 -0.21655618776E+02 -0.32052257306E+02 -0.31728756825E+01  0.38812257434E+02  0.10566000000E+00 0. -1.
         22    1    1    0    0    0 -0.10264751480E+01 -0.51187194772E+01 -0.30624164500E+02  0.31065968384E+02  0.00000000000E+00 0.  1.
</event>
<event>
 5    1  0.1751020E-003  0.9118800E+02  0.7818608E-02  0.1130116E+00
         25   -1    0    0    0    0  0.00000000000E+00  0.00000000000E+00  0.99999998245E-14  0.12500000000E+03  0.12500000000E+03 0.  0.
        -13    1    3    3    0    0 -0.91964909942E+01 -0.47135383750E+02  0.14349362887E+02  0.50122202936E+02  0.10566000000E+00 0. -1.
         23    2    1    0    0    0  0.21738440145E+02 -0.20650259955E+02 -0.39296670298E+01  0.94760368734E+02  0.89805858292E+02 0.  0.
         13    1    3    3    0    0  0.30934931139E+02  0.26485123796E+02 -0.18279029917E+02  0.44638165798E+02  0.10566000000E+00 0.  1.
         22    1    1    0    0    0 -0.21738440145E+02  0.20650259955E+02  0.39296670298E+01  0.30239631266E+02  0.00000000000E+00 0.  1.
</event>
<event>
 5    1  0.1751020E-003  0.9118800E+02  0.7818608E-02  0.1130116E+00
         25   -1    0    0    0    0  0.00000000000E+00  0.00000000000E+00  0.99999998245E-14  0.12500000000E+03  0.12500000000E+03 0.  0.
        -13    1    3    3    0    0  0.42439695544E+02 -0.42798648472E+01 -0.42860728650E+02  0.60468985649E+02  0.10566000000E+00 0.  1.
         23    2    1    0    0    0  0.13609154762E+02 -0.11565013587E+02 -0.21320508416E+02  0.97187723723E+02  0.93123202967E+02 0.  0.
         13    1    3    3    0    0 -0.28830540782E+02 -0.72851487395E+01  0.21540220234E+02  0.36718738074E+02  0.10566000000E+00 0. -1.
         22    1    1    0    0    0 -0.13609154762E+02  0.11565013587E+02  0.21320508416E+02  0.27812276277E+02  0.00000000000E+00 0.  1.
</event>
<event>
 5    1  0.1751020E-003  0.9118800E+02  0.7818608E-02  0.1130116E+00
         25   -1    0    0    0    0  0.00000000000E+00  0.00000000000E+00  0.99999998245E-14  0.12500000000E+03  0.12500000000E+03 0.  0.
        -13    1    3    3    0    0  0.16433478180E+02  0.28423735719E+02  0.17616465586E+02  0.37260152725E+02  0.10566000000E+00 0. -1.
         23    2    1    0    0    0  0.15889030025E+02 -0.26037166442E+02  0.14489046052E-01  0.94497614497E+02  0.89439385196E+02 0.  0.
         13    1    3    3    0    0 -0.54444815436E+00 -0.54460902161E+02 -0.17601976540E+02  0.57237461772E+02  0.10566000000E+00 0.  1.
         22    1    1    0    0    0 -0.15889030025E+02  0.26037166442E+02 -0.14489046052E-01  0.30502385503E+02  0.00000000000E+00 0.  1.
</event>
<event>
 5    1  0.1751020E-003  0.9118800E+02  0.7818608E-02  0.1130116E+00
         25   -1    0    0    0    0  0.00000000000E+00  0.00000000000E+00  0.99999998245E-14  0.12500000000E+03  0.12500000000E+03 0.  0.
        -13    1    3    3    0    0 -0.15457527628E+02  0.23006091212E+02  0.47810247091E+02  0.55263426280E+02  0.10566000000E+00 0. -1.
         23    2    1    0    0    0 -0.13001073531E+02  0.24141201327E+02  0.62945770189E+01  0.96867328347E+02  0.92692136057E+02 0.  0.
         13    1    3    3    0    0  0.24564540972E+01  0.11351101149E+01 -0.41515670072E+02  0.41603902068E+02  0.10566000000E+00 0.  1.
         22    1    1    0    0    0  0.13001073531E+02 -0.24141201327E+02 -0.62945770189E+01  0.28132671653E+02  0.00000000000E+00 0. -1.
</event>
<event>
 5    1  0.1751020E-003  0.9118800E+02  0.7818608E-02  0.1130116E+00
         25   -1    0    0    0    0  0.00000000000E+00  0.00000000000E+00  0.99999998245E-14  0.12500000000E+03  0.12500000000E+03 0.  0.
        -13    1    3    3    0    0 -0.17202889008E+02 -0.25083785205E+02 -0.14062307044E+02  0.33509630166E+02  0.10566000000E+00 0.  1.
         23    2    1    0    0    0  0.98951836633E+01  0.26767768259E+02 -0.16443162255E+02  0.92063611882E+02  0.85970361000E+02 0.  0.
         13    1    3    3    0    0  0.27098072671E+02  0.51851553464E+02 -0.23808552113E+01  0.58553981716E+02  0.10566000000E+00 0. -1.
         22    1    1    0    0    0 -0.98951836633E+01 -0.26767768259E+02  0.16443162255E+02  0.32936388118E+02  0.00000000000E+00 0. -1.
</event>
<event>
 5    1  0.1751020E-003  0.9118800E+02  0.7818608E-02  0.1130116E+00
         25   -1    0    0    0    0  0.00000000000E+00  0.00000000000E+00  0.99999998245E-14  0.12500000000E+03  0.12500000000E+03 0.  0.
        -13    1    3    3    0    0 -0.10311982752E+02  0.16905263271E+02  0.28856228291E+02  0.34997399757E+02  0.10566000000E+00 0. -1.
         23    2    1    0    0    0  0.13867094892E+02  0.27582142898E+02 -0.18340292185E+02  0.89091265060E+02  0.81534141713E+02 0.  0.
         13    1    3    3    0    0  0.24179077644E+02  0.10676879627E+02 -0.47196520476E+02  0.54093865302E+02  0.10566000000E+00 0.  1.
         22    1    1    0    0    0 -0.13867094892E+02 -0.27582142898E+02  0.18340292185E+02  0.35908734940E+02  0.00000000000E+00 0.  1.
</event>
<event>
 5    1  0.1751020E-003  0.9118800E+02  0.7818608E-02  0.1130116E+00
         25   -1    0    0    0    0  0.00000000000E+00  0.00000000000E+00  0.99999998245E-14  0.12500000000E+03  0.12500000000E+03 0.  0.
        -13    1    3    3    0    0  0.35688739853E+02  0.16592176339E+01 -0.93339163237E+01  0.36926580040E+02  0.10566000000E+00 0.  1.
         23    2    1    0    0    0 -0.22750300905E+02  0.67127250489E+01 -0.16623301535E+02  0.96035003490E+02  0.91562824730E+02 0.  0.
         13    1    3    3    0    0 -0.58439040759E+02  0.50535074150E+01 -0.72893852114E+01  0.59108423450E+02  0.10566000000E+00 0. -1.
         22    1    1    0    0    0  0.22750300905E+02 -0.67127250489E+01  0.16623301535E+02  0.28964996510E+02  0.00000000000E+00 0. -1.
</event>
<event>
 5    1  0.1751020E-003  0.9118800E+02  0.7818608E-02  0.1130116E+00
         25   -1    0    0    0    0  0.00000000000E+00  0.00000000000E+00  0.99999998245E-14  0.12500000000E+03  0.12500000000E+03 0.  0.
        -13    1    3    3    0    0 -0.35580441545E+02  0.10308128682E+02 -0.21833393872E+02  0.42999227777E+02  0.10566000000E+00 0. -1.
         23    2    1    0    0    0  0.19497963595E+02  0.43071969742E+01 -0.17284703278E+02  0.98590087135E+02  0.94986955862E+02 0.  0.
         13    1    3    3    0    0  0.55078405139E+02 -0.60009317081E+01  0.45486905941E+01  0.55590859358E+02  0.10566000000E+00 0.  1.
         22    1    1    0    0    0 -0.19497963595E+02 -0.43071969742E+01  0.17284703278E+02  0.26409912865E+02  0.00000000000E+00 0.  1.
</event>
<event>
 5    1  0.1751020E-003  0.9118800E+02  0.7818608E-02  0.1130116E+00
         25   -1    0    0    0    0  0.00000000000E+00  0.00000000000E+00  0.99999998245E-14  0.12500000000E+03  0.12500000000E+03 0.  0.
        -13    1    3    3    0    0  0.36084077670E+02  0.32181519900E+02  0.38829456659E+02  0.62011682389E+02  0.10566000000E+00 0. -1.
         23    2    1    0    0    0  0.18751292885E+02  0.19662262706E+02  0.15246639657E+02  0.93844333093E+02  0.88521654262E+02 0.  0.
         13    1    3    3    0    0 -0.17332784785E+02 -0.12519257193E+02 -0.23582817002E+02  0.31832650704E+02  0.10566000000E+00 0.  1.
         22    1    1    0    0    0 -0.18751292885E+02 -0.19662262706E+02 -0.15246639657E+02  0.31155666907E+02  0.00000000000E+00 0. -1.
</event>
<event>
 5    1  0.1751020E-003  0.9118800E+02  0.7818608E-02  0.1130116E+00
         25   -1    0    0    0    0  0.00000000000E+00  0.00000000000E+00  0.99999998245E-14  0.12500000000E+03  0.12500000000E+03 0.  0.
        -13    1    3    3    0    0 -0.46904466377E+02  0.24782390366E+02 -0.80646547547E+01  0.53658602840E+02  0.10566000000E+00 0.  1.
         23    2    1    0    0    0 -0.87537743232E+01  0.26983473065E+02  0.86126830250E+01  0.95353504551E+02  0.90627678651E+02 0.  0.
         13    1    3    3    0    0  0.38150692054E+02  0.22010826987E+01  0.16677337780E+02  0.41694901711E+02  0.10566000000E+00 0. -1.
         22    1    1    0    0    0  0.87537743232E+01 -0.26983473065E+02 -0.86126830250E+01  0.29646495449E+02  0.00000000000E+00 0.  1.
</event>
<event>
 5    1  0.1751020E-003  0.9118800E+02  0.7818608E-02  0.1130116E+00
         25   -1    0    0    0    0  0.00000000000E+00  0.00000000000E+00  0.99999998245E-14  0.12500000000E+03  0.12500000000E+03 0.  0.
        -13    1    3    3    0    0 -0.19400169191E+02 -0.46176125924E+02  0.30273660311E+01  0.50177457878E+02  0.10566000000E+00 0.  1.
         23    2    1    0    0    0 -0.29308744611E+02 -0.21904402657E+01 -0.19811010441E+01  0.95542822597E+02  0.90888424176E+02 0.  0.
         13    1    3    3    0    0 -0.99085754196E+01  0.43985685658E+02 -0.50084670752E+01  0.45365364719E+02  0.10566000000E+00 0. -1.
         22    1    1    0    0    0  0.29308744611E+02  0.21904402657E+01  0.19811010441E+01  0.29457177403E+02  0.00000000000E+00 0.  1.
</event>
<event>
 5    1  0.1751020E-003  0.9118800E+02  0.7818608E-02  0.1130116E+00
         25   -1    0    0    0    0  0.00000000000E+00  0.00000000000E+00  0.99999998245E-14  0.12500000000E+03  0.12500000000E+03 0.  0.
        -13    1    3    3    0    0 -0.19124551720E+02  0.75864760814E+01 -0.42411126123E+02  0.47138284662E+02  0.10566000000E+00 0.  1.
         23    2    1    0    0    0  0.99460915202E+01  0.26187698243E+02 -0.80175583516E+01  0.95862369388E+02  0.91326843518E+02 0.  0.
         13    1    3    3    0    0  0.29070643240E+02  0.18601222161E+02  0.34393567772E+02  0.48724084726E+02  0.10566000000E+00 0. -1.
         22    1    1    0    0    0 -0.99460915202E+01 -0.26187698243E+02  0.80175583516E+01  0.29137630612E+02  0.00000000000E+00 0.  1.
</event>
<event>
 5    1  0.1751020E-003  0.9118800E+02  0.7818608E-02  0.1130116E+00
         25   -1    0    0    0    0  0.00000000000E+00  0.00000000000E+00  0.99999998245E-14  0.12500000000E+03  0.12500000000E+03 0.  0.
        -13    1    3    3    0    0  0.28118970364E+02 -0.30319464598E+02  0.75481686121E+01  0.42034895518E+02  0.10566000000E+00 0. -1.
         23    2    1    0    0    0  0.21045316311E+02  0.13870431402E+02  0.24461152971E+02  0.89876756833E+02  0.82729615062E+02 0.  0.
         13    1    3    3    0    0 -0.70736540530E+01  0.44189895999E+02  0.16912984359E+02  0.47841861315E+02  0.10566000000E+00 0.  1.
         22    1    1    0    0    0 -0.21045316311E+02 -0.13870431402E+02 -0.24461152971E+02  0.35123243167E+02  0.00000000000E+00 0.  1.
</event>
<event>
 5    1  0.1751020E-003  0.9118800E+02  0.7818608E-02  0.1130116E+00
         25   -1    0    0    0    0  0.00000000000E+00  0.00000000000E+00  0.99999998245E-14  0.12500000000E+03  0.12500000000E+03 0.  0.
        -13    1    3    3    0    0 -0.10482104505E+02  0.39974646453E+02  0.38480070211E+02  0.56467458252E+02  0.10566000000E+00 0.  1.
         23    2    1    0    0    0  0.82106531779E+01  0.27747674884E+02  0.67245631030E+01  0.95291953346E+02  0.90542743146E+02 0.  0.
         13    1    3    3    0    0  0.18692757683E+02 -0.12226971569E+02 -0.31755507108E+02  0.38824495094E+02  0.10566000000E+00 0. -1.
         22    1    1    0    0    0 -0.82106531779E+01 -0.27747674884E+02 -0.67245631030E+01  0.29708046654E+02  0.00000000000E+00 0.  1.
</event>
<event>
 5    1  0.1751020E-003  0.9118800E+02  0.7818608E-02  0.1130116E+00
         25   -1    0    0    0    0  0.00000000000E+00  0.00000000000E+00  0.99999998245E-14  0.12500000000E+03  0.12500000000E+03 0.  0.
        -13    1    3    3    0    0 -0.11716248859E+02  0.56695523478E+02 -0.22505957614E+01  0.57937286916E+02  0.10566000000E+00 0. -1.
         23    2    1    0    0    0 -0.21856461638E+02  0.23506668008E+02 -0.38163580113E+01  0.92676124232E+02  0.86856381792E+02 0.  0.
         13    1    3    3    0    0 -0.10140212779E+02 -0.33188855470E+02 -0.15657622499E+01  0.34738837316E+02  0.10566000000E+00 0.  1.
         22    1    1    0    0    0  0.21856461638E+02 -0.23506668008E+02  0.38163580113E+01  0.32323875768E+02  0.00000000000E+00 0. -1.
</event>
<event>
 5    1  0.1751020E-003  0.9118800E+02  0.7818608E-02  0.1130116E+00
         25   -1    0    0    0    0  0.00000000000E+00  0.00000000000E+00  0.99999998245E-14  0.12500000000E+03  0.12500000000E+03 0.  0.
        -13    1    3    3    0    0 -0.29824412604E+02 -0.11940570331E+02  0.28200054387E+02  0.42747245975E+02  0.10566000000E+00 0. -1.
         23    2    1    0    0    0  0.17830663122E+02  0.11107603123E+02  0.19390629916E+02  0.96411402220E+02  0.92075243986E+02 0.  0.
         13    1    3    3    0    0  0.47655075726E+02  0.23048173453E+02 -0.88094244718E+01  0.53664156245E+02  0.10566000000E+00 0.  1.
         22    1    1    0    0    0 -0.17830663122E+02 -0.11107603123E+02 -0.19390629916E+02  0.28588597780E+02  0.00000000000E+00 0.  1.
</event>
<event>
 5    1  0.1751020E-003  0.9118800E+02  0.7818608E-02  0.1130116E+00
         25   -1    0    0    0    0  0.00000000000E+00  0.00000000000E+00  0.99999998245E-14  0.12500000000E+03  0.12500000000E+03 0.  0.
        -13    1    3    3    0    0  0.15966731300E+02  0.15638134080E+02  0.26653934629E+02  0.34784064471E+02  0.10566000000E+00 0.  1.
         23    2    1    0    0    0 -0.24283171807E+02 -0.15298522961E+02 -0.67019157048E+01  0.95527421017E+02  0.90867239720E+02 0.  0.
         13    1    3    3    0    0 -0.40249903107E+02 -0.30936657040E+02 -0.33355850333E+02  0.60743356546E+02  0.10566000000E+00 0. -1.
         22    1    1    0    0    0  0.24283171807E+02  0.15298522961E+02  0.67019157048E+01  0.29472578983E+02  0.00000000000E+00 0. -1.
</event>
<event>
 5    1  0.1751020E-003  0.9118800E+02  0.7818608E-02  0.1130116E+00
         25   -1    0    0    0    0  0.00000000000E+00  0.00000000000E+00  0.99999998245E-14  0.12500000000E+03  0.12500000000E+03 0.  0.
        -13    1    3    3    0    0 -0.10910759216E+02  0.34381831852E+02  0.19027801296E+02  0.40782636187E+02  0.10566000000E+00 0.  1.
         23    2    1    0    0    0  0.97486043497E+00 -0.20138192553E+02  0.20012958812E+02  0.96591978728E+02  0.92320066519E+02 0.  0.
         13    1    3    3    0    0  0.11885619651E+02 -0.54520024404E+02  0.98515751551E+00  0.55809342541E+02  0.10566000000E+00 0. -1.
         22    1    1    0    0    0 -0.97486043497E+00  0.20138192553E+02 -0.20012958812E+02  0.28408021272E+02  0.00000000000E+00 0.  1.
</event>
<event>
 5    1  0.1751020E-003  0.9118800E+02  0.7818608E-02  0.1130116E+00
         25   -1    0    0    0    0  0.00000000000E+00  0.00000000000E+00  0.99999998245E-14  0.12500000000E+03  0.12500000000E+03 0.  0.
        -13    1    3    3    0    0  0.46202493803E+01 -0.28593494967E+02  0.14992577018E+02  0.32614769483E+02  0.10566000000E+00 0.  1.
         23    2    1    0    0    0 -0.90942948108E+01  0.28583819560E+02 -0.47303253354E+01  0.94633621940E+02  0.89629266899E+02 0.  0.
         13    1    3    3    0    0 -0.13714544191E+02  0.57177314526E+02 -0.19722902353E+02  0.62018852457E+02  0.10566000000E+00 0. -1.
         22    1    1    0    0    0  0.90942948108E+01 -0.28583819560E+02  0.47303253354E+01  0.30366378060E+02  0.00000000000E+00 0. -1.
</event>
<event>
 5    1  0.1751020E-003  0.9118800E+02  0.7818608E-02  0.1130116E+00
         25   -1    0    0    0    0  0.00000000000E+00  0.00000000000E+00  0.99999998245E-14  0.12500000000E+03  0.12500000000E+03 0.  0.
        -13    1    3    3    0    0  0.24673031925E+02 -0.12170372361E+02 -0.43664737602E+02  0.51609078094E+02  0.10566000000E+00 0. -1.
         23    2    1    0    0    0  0.29740412227E+02 -0.65156734817E+01 -0.14304416463E+01  0.94520625275E+02  0.89471539155E+02 0.  0.
         13    1    3    3    0    0  0.50673803013E+01  0.56546988797E+01  0.42234295956E+02  0.42911547181E+02  0.10566000000E+00 0.  1.
         22    1    1    0    0    0 -0.29740412227E+02  0.65156734817E+01  0.14304416463E+01  0.30479374725E+02  0.00000000000E+00 0. -1.
</event>
<event>
 5    1  0.1751020E-003  0.9118800E+02  0.7818608E-02  0.1130116E+00
         25   -1    0    0    0    0  0.00000000000E+00  0.00000000000E+00  0.99999998245E-14  0.12500000000E+03  0.12500000000E+03 0.  0.
        -13    1    3    3    0    0  0.23438741868E+02 -0.51555786802E+02  0.22140480595E+01  0.56677040730E+02  0.10566000000E+00 0.  1.
         23    2    1    0    0    0  0.30580501691E+02 -0.24328401748E+02 -0.46400492559E+01  0.85648147790E+02  0.76072576843E+02 0.  0.
         13    1    3    3    0    0  0.71417598226E+01  0.27227385053E+02 -0.68540973154E+01  0.28971107060E+02  0.10566000000E+00 0. -1.
         22    1    1    0    0    0 -0.30580501691E+02  0.24328401748E+02  0.46400492559E+01  0.39351852210E+02  0.00000000000E+00 0.  1.
</event>
<event>
 5    1  0.1751020E-003  0.9118800E+02  0.7818608E-02  0.1130116E+00
         25   -1    0    0    0    0  0.00000000000E+00  0.00000000000E+00  0.99999998245E-14  0.12500000000E+03  0.12500000000E+03 0.  0.
        -13    1    3    3    0    0 -0.42861715197E+02  0.76659559348E+01  0.62444886851E+01  0.43987479048E+02  0.10566000000E+00 0.  1.
         23    2    1    0    0    0 -0.54148246776E+01 -0.15641397047E+02 -0.22819075410E+02  0.96809862887E+02  0.92614608577E+02 0.  0.
         13    1    3    3    0    0  0.37446890519E+02 -0.23307352982E+02 -0.29063564095E+02  0.52822383840E+02  0.10566000000E+00 0. -1.
         22    1    1    0    0    0  0.54148246776E+01  0.15641397047E+02  0.22819075410E+02  0.28190137113E+02  0.00000000000E+00 0. -1.
</event>
<event>
 5    1  0.1751020E-003  0.9118800E+02  0.7818608E-02  0.1130116E+00
         25   -1    0    0    0    0  0.00000000000E+00  0.00000000000E+00  0.99999998245E-14  0.12500000000E+03  0.12500000000E+03 0.  0.
        -13    1    3    3    0    0 -0.28411842625E+02  0.18586141981E+02 -0.20635174779E+02  0.39730329438E+02  0.10566000000E+00 0.  1.
         23    2    1    0    0    0  0.23455053086E+02  0.18137730841E+02 -0.14603643935E+02  0.91948778970E+02  0.85803232705E+02 0.  0.
         13    1    3    3    0    0  0.51866895711E+02 -0.44841113961E+00  0.60315308436E+01  0.52218449533E+02  0.10566000000E+00 0. -1.
         22    1    1    0    0    0 -0.23455053086E+02 -0.18137730841E+02  0.14603643935E+02  0.33051221030E+02  0.00000000000E+00 0.  1.
</event>
<event>
 5    1  0.1751020E-003  0.9118800E+02  0.7818608E-02  0.1130116E+00
         25   -1    0    0    0    0  0.00000000000E+00  0.00000000000E+00  0.99999998245E-14  0.12500000000E+03  0.12500000000E+03 0.  0.
        -13    1    3    3    0    0 -0.25427764240E+02 -0.26152400689E+02  0.48356441128E+01  0.36795568674E+02  0.10566000000E+00 0. -1.
         23    2    1    0    0    0  0.27663406027E+02  0.17341646189E+01  0.53670807052E+01  0.96767449367E+02  0.92557346233E+02 0.  0.
         13    1    3    3    0    0  0.53091170267E+02  0.27886565308E+02  0.53143659239E+00  0.59971880693E+02  0.10566000000E+00 0.  1.
         22    1    1    0    0    0 -0.27663406027E+02 -0.17341646189E+01 -0.53670807052E+01  0.28232550633E+02  0.00000000000E+00 0.  1.
</event>
<event>
 5    1  0.1751020E-003  0.9118800E+02  0.7818608E-02  0.1130116E+00
         25   -1    0    0    0    0  0.00000000000E+00  0.00000000000E+00  0.99999998245E-14  0.12500000000E+03  0.12500000000E+03 0.  0.
        -13    1    3    3    0    0  0.13807019958E+02  0.52727989062E+02 -0.20145415989E+02  0.58109582515E+02  0.10566000000E+00 0.  1.
         23    2    1    0    0    0  0.16618682375E+02  0.22451801917E+02  0.37954886900E+01  0.96810112672E+02  0.92614945705E+02 0.  0.
         13    1    3    3    0    0  0.28116624164E+01 -0.30276187145E+02  0.23940904679E+02  0.38700530157E+02  0.10566000000E+00 0. -1.
         22    1    1    0    0    0 -0.16618682375E+02 -0.22451801917E+02 -0.37954886900E+01  0.28189887328E+02  0.00000000000E+00 0.  1.
</event>
<event>
 5    1  0.1751020E-003  0.9118800E+02  0.7818608E-02  0.1130116E+00
         25   -1    0    0    0    0  0.00000000000E+00  0.00000000000E+00  0.99999998245E-14  0.12500000000E+03  0.12500000000E+03 0.  0.
        -13    1    3    3    0    0 -0.36881380594E+01  0.40569550808E+02  0.43487214741E+02  0.59587245490E+02  0.10566000000E+00 0. -1.
         23    2    1    0    0    0  0.99962936757E+01  0.12263051768E+02  0.22891019719E+02  0.97173625646E+02  0.93104277085E+02 0.  0.
         13    1    3    3    0    0  0.13684431735E+02 -0.28306499041E+02 -0.20596195022E+02  0.37586380156E+02  0.10566000000E+00 0.  1.
         22    1    1    0    0    0 -0.99962936757E+01 -0.12263051768E+02 -0.22891019719E+02  0.27826374354E+02  0.00000000000E+00 0. -1.
</event>
<event>
 5    1  0.1751020E-003  0.9118800E+02  0.7818608E-02  0.1130116E+00
         25   -1    0    0    0    0  0.00000000000E+00  0.00000000000E+00  0.99999998245E-14  0.12500000000E+03  0.12500000000E+03 0.  0.
        -13    1    3    3    0    0  0.23887415128E+02  0.18250379163E+02  0.32918901872E+02  0.44579706208E+02  0.10566000000E+00 0. -1.
         23    2    1    0    0    0 -0.68952738131E+01  0.26689277690E+02 -0.78323692990E+01  0.96343266875E+02  0.91982697931E+02 0.  0.
         13    1    3    3    0    0 -0.30782688942E+02  0.84388985271E+01 -0.40751271171E+02  0.51763560667E+02  0.10566000000E+00 0.  1.
         22    1    1    0    0    0  0.68952738131E+01 -0.26689277690E+02  0.78323692990E+01  0.28656733125E+02  0.00000000000E+00 0. -1.
</event>
<event>
 5    1  0.1751020E-003  0.9118800E+02  0.7818608E-02  0.1130116E+00
         25   -1    0    0    0    0  0.00000000000E+00  0.00000000000E+00  0.99999998245E-14  0.12500000000E+03  0.12500000000E+03 0.  0.
        -13    1    3    3    0    0  0.30439352060E+02 -0.97782060355E+01 -0.42406990281E+02  0.53108675899E+02  0.10566000000E+00 0.  1.
         23    2    1    0    0    0  0.29759313795E+02  0.15513950001E+00 -0.15082074777E+01  0.95202088738E+02  0.90418594240E+02 0.  0.
         13    1    3    3    0    0 -0.68003826457E+00  0.99333455355E+01  0.40898782803E+02  0.42093412838E+02  0.10566000000E+00 0. -1.
         22    1    1    0    0    0 -0.29759313795E+02 -0.15513950001E+00  0.15082074777E+01  0.29797911262E+02  0.00000000000E+00 0.  1.
</event>
<event>
 5    1  0.1751020E-003  0.9118800E+02  0.7818608E-02  0.1130116E+00
         25   -1    0    0    0    0  0.00000000000E+00  0.00000000000E+00  0.99999998245E-14  0.12500000000E+03  0.12500000000E+03 0.  0.
        -13    1    3    3    0    0 -0.28086740637E+02 -0.20213060185E+01 -0.22677263632E+02  0.36155499271E+02  0.10566000000E+00 0. -1.
         23    2    1    0    0    0  0.24572436298E+01 -0.85878775048E+01  0.27955974664E+02  0.95651640494E+02  0.91037959794E+02 0.  0.
         13    1    3    3    0    0  0.30543984267E+02 -0.65665714864E+01  0.50633238296E+02  0.59496141223E+02  0.10566000000E+00 0.  1.
         22    1    1    0    0    0 -0.24572436298E+01  0.85878775048E+01 -0.27955974664E+02  0.29348359506E+02  0.00000000000E+00 0.  1.
</event>
<event>
 5    1  0.1751020E-003  0.9118800E+02  0.7818608E-02  0.1130116E+00
         25   -1    0    0    0    0  0.00000000000E+00  0.00000000000E+00  0.99999998245E-14  0.12500000000E+03  0.12500000000E+03 0.  0.
        -13    1    3    3    0    0 -0.26524160134E+02 -0.26830422616E+02 -0.20401106787E+01  0.37783274927E+02  0.10566000000E+00 0.  1.
         23    2    1    0    0    0  0.12942620923E+02  0.16328104371E+02  0.15715173666E+02  0.98902392598E+02  0.95397055246E+02 0.  0.
         13    1    3    3    0    0  0.39466781057E+02  0.43158526988E+02  0.17755284345E+02  0.61119117672E+02  0.10566000000E+00 0. -1.
         22    1    1    0    0    0 -0.12942620923E+02 -0.16328104371E+02 -0.15715173666E+02  0.26097607402E+02  0.00000000000E+00 0. -1.
</event>
<event>
 5    1  0.1751020E-003  0.9118800E+02  0.7818608E-02  0.1130116E+00
         25   -1    0    0    0    0  0.00000000000E+00  0.00000000000E+00  0.99999998245E-14  0.12500000000E+03  0.12500000000E+03 0.  0.
        -13    1    3    3    0    0 -0.59873734355E+02 -0.12597092940E+02  0.49811667587E+01  0.61387083352E+02  0.10566000000E+00 0.  1.
         23    2    1    0    0    0 -0.34542936585E+02 -0.40487527995E+01  0.10469148752E+02  0.88679070184E+02  0.80899737614E+02 0.  0.
         13    1    3    3    0    0  0.25330797770E+02  0.85483401404E+01  0.54879819932E+01  0.27291986832E+02  0.10566000000E+00 0. -1.
         22    1    1    0    0    0  0.34542936585E+02  0.40487527995E+01 -0.10469148752E+02  0.36320929816E+02  0.00000000000E+00 0.  1.
</event>
<event>
 5    1  0.1751020E-003  0.9118800E+02  0.7818608E-02  0.1130116E+00
         25   -1    0    0    0    0  0.00000000000E+00  0.00000000000E+00  0.99999998245E-14  0.12500000000E+03  0.12500000000E+03 0.  0.
        -13    1    3    3    0    0  0.35106775407E+02 -0.17320927612E+01  0.13105802880E+02  0.37513451693E+02  0.10566000000E+00 0. -1.
         23    2    1    0    0    0 -0.86388816974E+01 -0.16752387202E+02 -0.22328784715E+02  0.95779332985E+02  0.91213119924E+02 0.  0.
         13    1    3    3    0    0 -0.43745657104E+02 -0.15020294441E+02 -0.35434587595E+02  0.58265881291E+02  0.10566000000E+00 0.  1.
         22    1    1    0    0    0  0.86388816974E+01  0.16752387202E+02  0.22328784715E+02  0.29220667015E+02  0.00000000000E+00 0.  1.
</event>
<event>
 5    1  0.1751020E-003  0.9118800E+02  0.7818608E-02  0.1130116E+00
         25   -1    0    0    0    0  0.00000000000E+00  0.00000000000E+00  0.99999998245E-14  0.12500000000E+03  0.12500000000E+03 0.  0.
        -13    1    3    3    0    0  0.41940092165E+02 -0.39365424196E+02  0.17734299337E+02  0.60192395616E+02  0.10566000000E+00 0.  1.
         23    2    1    0    0    0  0.29588014950E+02 -0.14584915425E+02  0.22040092440E+01  0.91939025372E+02  0.85789022275E+02 0.  0.
         13    1    3    3    0    0 -0.12352077215E+02  0.24780508771E+02 -0.15530290093E+02  0.31746629756E+02  0.10566000000E+00 0. -1.
         22    1    1    0    0    0 -0.29588014950E+02  0.14584915425E+02 -0.22040092440E+01  0.33060974628E+02  0.00000000000E+00 0.  1.
</event>
<event>
 5    1  0.1751020E-003  0.9118800E+02  0.7818608E-02  0.1130116E+00
         25   -1    0    0    0    0  0.00000000000E+00  0.00000000000E+00  0.99999998245E-14  0.12500000000E+03  0.12500000000E+03 0.  0.
        -13    1    3    3    0    0 -0.97218598483E+01  0.42292077558E+02  0.35056675374E+02  0.55786342732E+02  0.10566000000E+00 0.  1.
         23    2    1    0    0    0  0.23370408109E+01  0.41046921432E+01  0.28189948843E+02  0.96417077247E+02  0.92082947997E+02 0.  0.
         13    1    3    3    0    0  0.12058900659E+02 -0.38187385415E+02 -0.68667265312E+01  0.40630734515E+02  0.10566000000E+00 0. -1.
         22    1    1    0    0    0 -0.23370408109E+01 -0.41046921432E+01 -0.28189948843E+02  0.28582922753E+02  0.00000000000E+00 0.  1.
</event>
<event>
 5    1  0.1751020E-003  0.9118800E+02  0.7818608E-02  0.1130116E+00
         25   -1    0    0    0    0  0.00000000000E+00  0.00000000000E+00  0.99999998245E-14  0.12500000000E+03  0.12500000000E+03 0.  0.
        -13    1    3    3    0    0 -0.20973700885E+02  0.44363587387E+02 -0.17346495605E+02  0.52047440748E+02  0.10566000000E+00 0.  1.
         23    2    1    0    0    0  0.99308874604E+01  0.27149938648E+02  0.73261625665E+01  0.95176949313E+02  0.90383833334E+02 0.  0.
         13    1    3    3    0    0  0.30904588346E+02 -0.17213648739E+02  0.24672658171E+02  0.43129508564E+02  0.10566000000E+00 0. -1.
         22    1    1    0    0    0 -0.99308874604E+01 -0.27149938648E+02 -0.73261625665E+01  0.29823050687E+02  0.00000000000E+00 0.  1.
</event>
<event>
 5    1  0.1751020E-003  0.9118800E+02  0.7818608E-02  0.1130116E+00
         25   -1    0    0    0    0  0.00000000000E+00  0.00000000000E+00  0.99999998245E-14  0.12500000000E+03  0.12500000000E+03 0.  0.
        -13    1    3    3    0    0  0.11866455666E+02 -0.49379415166E+02  0.29202715092E+02  0.58582840021E+02  0.10566000000E+00 0.  1.
         23    2    1    0    0    0  0.15851485465E+02 -0.25578189721E+02  0.21555386011E+01  0.94831146401E+02  0.89904319141E+02 0.  0.
         13    1    3    3    0    0  0.39850297989E+01  0.23801225445E+02 -0.27047176491E+02  0.36248306379E+02  0.10566000000E+00 0. -1.
         22    1    1    0    0    0 -0.15851485465E+02  0.25578189721E+02 -0.21555386011E+01  0.30168853599E+02  0.00000000000E+00 0.  1.
</event>
<event>
 5    1  0.1751020E-003  0.9118800E+02  0.7818608E-02  0.1130116E+00
         25   -1    0    0    0    0  0.00000000000E+00  0.00000000000E+00  0.99999998245E-14  0.12500000000E+03  0.12500000000E+03 0.  0.
        -13    1    3    3    0    0  0.48545867303E+01  0.14451645469E+02 -0.33075786005E+02  0.36420267064E+02  0.10566000000E+00 0. -1.
         23    2    1    0    0    0  0.14977658488E+01  0.12618024050E+02  0.26232609481E+02  0.95851970330E+02  0.91312609110E+02 0.  0.
         13    1    3    3    0    0 -0.33568208815E+01 -0.18336214190E+01  0.59308395486E+02  0.59431703266E+02  0.10566000000E+00 0.  1.
         22    1    1    0    0    0 -0.14977658488E+01 -0.12618024050E+02 -0.26232609481E+02  0.29148029670E+02  0.00000000000E+00 0.  1.
</event>
<event>
 5    1  0.1751020E-003  0.9118800E+02  0.7818608E-02  0.1130116E+00
         25   -1    0    0    0    0  0.00000000000E+00  0.00000000000E+00  0.99999998245E-14  0.12500000000E+03  0.12500000000E+03 0.  0.
        -13    1    3    3    0    0 -0.52749484561E+02 -0.29148042356E+02  0.11836737974E+02  0.61418531606E+02  0.10566000000E+00 0. -1.
         23    2    1    0    0    0 -0.27566279824E+02 -0.92183526142E+01 -0.77859016638E+00  0.95922792244E+02  0.91409507498E+02 0.  0.
         13    1    3    3    0    0  0.25183204738E+02  0.19929689742E+02 -0.12615328141E+02  0.34504260638E+02  0.10566000000E+00 0.  1.
         22    1    1    0    0    0  0.27566279824E+02  0.92183526142E+01  0.77859016638E+00  0.29077207756E+02  0.00000000000E+00 0. -1.
</event>
<event>
 5    1  0.1751020E-003  0.9118800E+02  0.7818608E-02  0.1130116E+00
         25   -1    0    0    0    0  0.00000000000E+00  0.00000000000E+00  0.99999998245E-14  0.12500000000E+03  0.12500000000E+03 0.  0.
        -13    1    3    3    0    0  0.57653199907E+02  0.12428753868E+02  0.13310801678E+02  0.60461177524E+02  0.10566000000E+00 0.  1.
         23    2    1    0    0    0  0.28970536008E+02  0.27665815805E+01 -0.44581429680E+01  0.95558176535E+02  0.90909538189E+02 0.  0.
         13    1    3    3    0    0 -0.28682663899E+02 -0.96621722874E+01 -0.17768944646E+02  0.35096999010E+02  0.10566000000E+00 0. -1.
         22    1    1    0    0    0 -0.28970536008E+02 -0.27665815805E+01  0.44581429680E+01  0.29441823465E+02  0.00000000000E+00 0.  1.
</event>
<event>
 5    1  0.1751020E-003  0.9118800E+02  0.7818608E-02  0.1130116E+00
         25   -1    0    0    0    0  0.00000000000E+00  0.00000000000E+00  0.99999998245E-14  0.12500000000E+03  0.12500000000E+03 0.  0.
        -13    1    3    3    0    0  0.45324873299E+02  0.15936594247E+01 -0.11871176988E+02  0.46880911863E+02  0.10566000000E+00 0. -1.
         23    2    1    0    0    0  0.24900680919E+01  0.20950437226E+02 -0.21516307947E+02  0.94865754253E+02  0.89952423888E+02 0.  0.
         13    1    3    3    0    0 -0.42834805207E+02  0.19356777801E+02 -0.96451309591E+01  0.47984842391E+02  0.10566000000E+00 0.  1.
         22    1    1    0    0    0 -0.24900680919E+01 -0.20950437226E+02  0.21516307947E+02  0.30134245747E+02  0.00000000000E+00 0.  1.
</event>
<event>
 5    1  0.1751020E-003  0.9118800E+02  0.7818608E-02  0.1130116E+00
         25   -1    0    0    0    0  0.00000000000E+00  0.00000000000E+00  0.99999998245E-14  0.12500000000E+03  0.12500000000E+03 0.  0.
        -13    1    3    3    0    0  0.33128921956E+02  0.43618038426E+01  0.22737482870E+02  0.40417262327E+02  0.10566000000E+00 0.  1.
         23    2    1    0    0    0 -0.64024865267E+00  0.23407317264E+02 -0.17098954457E+02  0.96005402860E+02  0.91522405535E+02 0.  0.
         13    1    3    3    0    0 -0.33769170608E+02  0.19045513421E+02 -0.39836437326E+02  0.55588140533E+02  0.10566000000E+00 0. -1.
         22    1    1    0    0    0  0.64024865267E+00 -0.23407317264E+02  0.17098954457E+02  0.28994597140E+02  0.00000000000E+00 0. -1.
</event>
<event>
 5    1  0.1751020E-003  0.9118800E+02  0.7818608E-02  0.1130116E+00
         25   -1    0    0    0    0  0.00000000000E+00  0.00000000000E+00  0.99999998245E-14  0.12500000000E+03  0.12500000000E+03 0.  0.
        -13    1    3    3    0    0 -0.10621840124E+02 -0.30512907141E+02 -0.42065465976E+02  0.53041263009E+02  0.10566000000E+00 0. -1.
         23    2    1    0    0    0  0.11197572787E+02  0.25962328304E+01 -0.27343980452E+02  0.95338251430E+02  0.90606638044E+02 0.  0.
         13    1    3    3    0    0  0.21819412911E+02  0.33109139971E+02  0.14721485524E+02  0.42296988421E+02  0.10566000000E+00 0.  1.
         22    1    1    0    0    0 -0.11197572787E+02 -0.25962328304E+01  0.27343980452E+02  0.29661748570E+02  0.00000000000E+00 0. -1.
</event>
<event>
 5    1  0.1751020E-003  0.9118800E+02  0.7818608E-02  0.1130116E+00
         25   -1    0    0    0    0  0.00000000000E+00  0.00000000000E+00  0.99999998245E-14  0.12500000000E+03  0.12500000000E+03 0.  0.
        -13    1    3    3    0    0 -0.83550929299E+01 -0.37017344941E+02  0.15021415855E+02  0.40813545578E+02  0.10566000000E+00 0. -1.
         23    2    1    0    0    0  0.27987245424E+02  0.35831755783E+01  0.73644167157E+01  0.95839072594E+02  0.91294951385E+02 0.  0.
         13    1    3    3    0    0  0.36342338354E+02  0.40600520519E+02 -0.76569991391E+01  0.55025527015E+02  0.10566000000E+00 0.  1.
         22    1    1    0    0    0 -0.27987245424E+02 -0.35831755783E+01 -0.73644167157E+01  0.29160927406E+02  0.00000000000E+00 0.  1.
</event>
<event>
 5    1  0.1751020E-003  0.9118800E+02  0.7818608E-02  0.1130116E+00
         25   -1    0    0    0    0  0.00000000000E+00  0.00000000000E+00  0.99999998245E-14  0.12500000000E+03  0.12500000000E+03 0.  0.
        -13    1    3    3    0    0  0.13568996136E+02  0.30616239486E+02 -0.17388943651E+02  0.37734046983E+02  0.10566000000E+00 0.  1.
         23    2    1    0    0    0 -0.14709330149E+02 -0.15623842331E+02  0.13037017071E+02  0.99891581955E+02  0.96684515248E+02 0.  0.
         13    1    3    3    0    0 -0.28278326285E+02 -0.46240081816E+02  0.30425960723E+02  0.62157534972E+02  0.10566000000E+00 0. -1.
         22    1    1    0    0    0  0.14709330149E+02  0.15623842331E+02 -0.13037017071E+02  0.25108418045E+02  0.00000000000E+00 0. -1.
</event>
<event>
 5    1  0.1751020E-003  0.9118800E+02  0.7818608E-02  0.1130116E+00
         25   -1    0    0    0    0  0.00000000000E+00  0.00000000000E+00  0.99999998245E-14  0.12500000000E+03  0.12500000000E+03 0.  0.
        -13    1    3    3    0    0  0.12954252951E+02  0.31667653657E+02  0.34015557753E+01  0.34383640055E+02  0.10566000000E+00 0.  1.
         23    2    1    0    0    0 -0.11951576261E+02 -0.24270840492E+02 -0.82526138322E+01  0.96715383892E+02  0.92487004346E+02 0.  0.
         13    1    3    3    0    0 -0.24905829212E+02 -0.55938494150E+02 -0.11654169608E+02  0.62331743837E+02  0.10566000000E+00 0. -1.
         22    1    1    0    0    0  0.11951576261E+02  0.24270840492E+02  0.82526138322E+01  0.28284616108E+02  0.00000000000E+00 0. -1.
</event>
<event>
 5    1  0.1751020E-003  0.9118800E+02  0.7818608E-02  0.1130116E+00
         25   -1    0    0    0    0  0.00000000000E+00  0.00000000000E+00  0.99999998245E-14  0.12500000000E+03  0.12500000000E+03 0.  0.
        -13    1    3    3    0    0 -0.12085777901E+02 -0.20415212354E+02 -0.34490975790E+02  0.41862698168E+02  0.10566000000E+00 0.  1.
         23    2    1    0    0    0 -0.13365878124E+02 -0.16356421035E+02  0.19637824319E+02  0.96158652058E+02  0.91731472323E+02 0.  0.
         13    1    3    3    0    0 -0.12801002236E+01  0.40587913193E+01  0.54128800109E+02  0.54295953890E+02  0.10566000000E+00 0. -1.
         22    1    1    0    0    0  0.13365878124E+02  0.16356421035E+02 -0.19637824319E+02  0.28841347942E+02  0.00000000000E+00 0. -1.
</event>
<event>
 5    1  0.1751020E-003  0.9118800E+02  0.7818608E-02  0.1130116E+00
         25   -1    0    0    0    0  0.00000000000E+00  0.00000000000E+00  0.99999998245E-14  0.12500000000E+03  0.12500000000E+03 0.  0.
        -13    1    3    3    0    0 -0.48196064382E+02  0.31330632589E+02 -0.13830393425E+02  0.59124953334E+02  0.10566000000E+00 0. -1.
         23    2    1    0    0    0 -0.27407920935E+02  0.80616356628E+00 -0.45362530133E+01  0.97207525819E+02  0.93149779682E+02 0.  0.
         13    1    3    3    0    0  0.20788143447E+02 -0.30524469023E+02  0.92941404115E+01  0.38082572486E+02  0.10566000000E+00 0.  1.
         22    1    1    0    0    0  0.27407920935E+02 -0.80616356628E+00  0.45362530133E+01  0.27792474181E+02  0.00000000000E+00 0. -1.
</event>
<event>
 5    1  0.1751020E-003  0.9118800E+02  0.7818608E-02  0.1130116E+00
         25   -1    0    0    0    0  0.00000000000E+00  0.00000000000E+00  0.99999998245E-14  0.12500000000E+03  0.12500000000E+03 0.  0.
        -13    1    3    3    0    0  0.55548768312E+02  0.21400527428E+02 -0.63804761305E+01  0.59869607272E+02  0.10566000000E+00 0.  1.
         23    2    1    0    0    0  0.26674811735E+02  0.46391507470E+01  0.87796259609E+01  0.96536881184E+02  0.92245435095E+02 0.  0.
         13    1    3    3    0    0 -0.28873956577E+02 -0.16761376681E+02  0.15160102091E+02  0.36667273912E+02  0.10566000000E+00 0. -1.
         22    1    1    0    0    0 -0.26674811735E+02 -0.46391507470E+01 -0.87796259609E+01  0.28463118816E+02  0.00000000000E+00 0.  1.
</event>
<event>
 5    1  0.1751020E-003  0.9118800E+02  0.7818608E-02  0.1130116E+00
         25   -1    0    0    0    0  0.00000000000E+00  0.00000000000E+00  0.99999998245E-14  0.12500000000E+03  0.12500000000E+03 0.  0.
        -13    1    3    3    0    0 -0.40058440519E+02  0.31615119190E+02 -0.18928884446E+02  0.54428928417E+02  0.10566000000E+00 0. -1.
         23    2    1    0    0    0 -0.13585220610E+02  0.25646048464E+02  0.10197347270E+02  0.94238597038E+02  0.89076648228E+02 0.  0.
         13    1    3    3    0    0  0.26473219909E+02 -0.59690707264E+01  0.29126231716E+02  0.39809668621E+02  0.10566000000E+00 0.  1.
         22    1    1    0    0    0  0.13585220610E+02 -0.25646048464E+02 -0.10197347270E+02  0.30761402962E+02  0.00000000000E+00 0. -1.
</event>
<event>
 5    1  0.1751020E-003  0.9118800E+02  0.7818608E-02  0.1130116E+00
         25   -1    0    0    0    0  0.00000000000E+00  0.00000000000E+00  0.99999998245E-14  0.12500000000E+03  0.12500000000E+03 0.  0.
        -13    1    3    3    0    0  0.70816762998E+01 -0.37497611530E+02  0.10890429299E+02  0.39684173470E+02  0.10566000000E+00 0. -1.
         23    2    1    0    0    0 -0.26931704211E+02  0.75714373225E+01  0.62236430265E+01  0.96340322972E+02  0.91978697224E+02 0.  0.
         13    1    3    3    0    0 -0.34013380510E+02  0.45069048853E+02 -0.46667862729E+01  0.56656149502E+02  0.10566000000E+00 0.  1.
         22    1    1    0    0    0  0.26931704211E+02 -0.75714373225E+01 -0.62236430265E+01  0.28659677028E+02  0.00000000000E+00 0. -1.
</event>
<event>
 5    1  0.1751020E-003  0.9118800E+02  0.7818608E-02  0.1130116E+00
         25   -1    0    0    0    0  0.00000000000E+00  0.00000000000E+00  0.99999998245E-14  0.12500000000E+03  0.12500000000E+03 0.  0.
        -13    1    3    3    0    0 -0.21165472800E+02  0.13610289412E+02 -0.31745267401E+02  0.40509139502E+02  0.10566000000E+00 0.  1.
         23    2    1    0    0    0  0.10504197156E+02  0.12405232619E+02  0.18786553894E+02  0.10015724328E+03  0.97027371500E+02 0.  0.
         13    1    3    3    0    0  0.31669669956E+02 -0.12050567934E+01  0.50531821295E+02  0.59648103779E+02  0.10566000000E+00 0. -1.
         22    1    1    0    0    0 -0.10504197156E+02 -0.12405232619E+02 -0.18786553894E+02  0.24842756720E+02  0.00000000000E+00 0. -1.
</event>
<event>
 5    1  0.1751020E-003  0.9118800E+02  0.7818608E-02  0.1130116E+00
         25   -1    0    0    0    0  0.00000000000E+00  0.00000000000E+00  0.99999998245E-14  0.12500000000E+03  0.12500000000E+03 0.  0.
        -13    1    3    3    0    0 -0.28492414215E+02  0.37947020213E+02 -0.36392892339E+02  0.59801737331E+02  0.10566000000E+00 0. -1.
         23    2    1    0    0    0 -0.12111405960E+01  0.20066004155E+02 -0.21196249451E+02  0.95787119705E+02  0.91223790353E+02 0.  0.
         13    1    3    3    0    0  0.27281273619E+02 -0.17881016058E+02  0.15196642888E+02  0.35985382375E+02  0.10566000000E+00 0.  1.
         22    1    1    0    0    0  0.12111405960E+01 -0.20066004155E+02  0.21196249451E+02  0.29212880295E+02  0.00000000000E+00 0. -1.
</event>
<event>
 5    1  0.1751020E-003  0.9118800E+02  0.7818608E-02  0.1130116E+00
         25   -1    0    0    0    0  0.00000000000E+00  0.00000000000E+00  0.99999998245E-14  0.12500000000E+03  0.12500000000E+03 0.  0.
        -13    1    3    3    0    0 -0.26631866965E+02  0.44827043273E+02  0.20546091082E+02  0.56043493552E+02  0.10566000000E+00 0.  1.
         23    2    1    0    0    0 -0.77130478229E+01  0.89866444971E+01  0.25511323775E+02  0.96873881768E+02  0.92700973253E+02 0.  0.
         13    1    3    3    0    0  0.18918819142E+02 -0.35840398776E+02  0.49652326930E+01  0.40830388216E+02  0.10566000000E+00 0. -1.
         22    1    1    0    0    0  0.77130478229E+01 -0.89866444971E+01 -0.25511323775E+02  0.28126118232E+02  0.00000000000E+00 0.  1.
</event>
<event>
 5    1  0.1751020E-003  0.9118800E+02  0.7818608E-02  0.1130116E+00
         25   -1    0    0    0    0  0.00000000000E+00  0.00000000000E+00  0.99999998245E-14  0.12500000000E+03  0.12500000000E+03 0.  0.
        -13    1    3    3    0    0 -0.31805994031E+02  0.32251202301E+02  0.29162809164E+02  0.53872459648E+02  0.10566000000E+00 0. -1.
         23    2    1    0    0    0 -0.18272030703E+01  0.28838756266E+02 -0.38135003477E+00  0.96100900328E+02  0.91652741814E+02 0.  0.
         13    1    3    3    0    0  0.29978790961E+02 -0.34124460357E+01 -0.29544159199E+02  0.42228440680E+02  0.10566000000E+00 0.  1.
         22    1    1    0    0    0  0.18272030703E+01 -0.28838756266E+02  0.38135003477E+00  0.28899099672E+02  0.00000000000E+00 0. -1.
</event>
<event>
 5    1  0.1751020E-003  0.9118800E+02  0.7818608E-02  0.1130116E+00
         25   -1    0    0    0    0  0.00000000000E+00  0.00000000000E+00  0.99999998245E-14  0.12500000000E+03  0.12500000000E+03 0.  0.
        -13    1    3    3    0    0 -0.56284286194E+02 -0.51476834854E+01 -0.13136414296E+02  0.58025822374E+02  0.10566000000E+00 0.  1.
         23    2    1    0    0    0 -0.26315778461E+02 -0.14262814384E+02  0.56319279369E+01  0.94542378910E+02  0.89501925832E+02 0.  0.
         13    1    3    3    0    0  0.29968507733E+02 -0.91151308984E+01  0.18768342233E+02  0.36516556536E+02  0.10566000000E+00 0. -1.
         22    1    1    0    0    0  0.26315778461E+02  0.14262814384E+02 -0.56319279369E+01  0.30457621090E+02  0.00000000000E+00 0.  1.
</event>
<event>
 5    1  0.1751020E-003  0.9118800E+02  0.7818608E-02  0.1130116E+00
         25   -1    0    0    0    0  0.00000000000E+00  0.00000000000E+00  0.99999998245E-14  0.12500000000E+03  0.12500000000E+03 0.  0.
        -13    1    3    3    0    0 -0.23481066207E+02  0.20409695624E+02  0.47149380416E+02  0.56488860701E+02  0.10566000000E+00 0.  1.
         23    2    1    0    0    0  0.79019729452E+01  0.73990718471E+01  0.26814179034E+02  0.96083090796E+02  0.91628449179E+02 0.  0.
         13    1    3    3    0    0  0.31383039153E+02 -0.13010623777E+02 -0.20335201382E+02  0.39594230095E+02  0.10566000000E+00 0. -1.
         22    1    1    0    0    0 -0.79019729452E+01 -0.73990718471E+01 -0.26814179034E+02  0.28916909204E+02  0.00000000000E+00 0.  1.
</event>
<event>
 5    1  0.1751020E-003  0.9118800E+02  0.7818608E-02  0.1130116E+00
         25   -1    0    0    0    0  0.00000000000E+00  0.00000000000E+00  0.99999998245E-14  0.12500000000E+03  0.12500000000E+03 0.  0.
        -13    1    3    3    0    0 -0.18777284242E+02 -0.61200343667E+01 -0.49533628225E+02  0.53325722812E+02  0.10566000000E+00 0. -1.
         23    2    1    0    0    0 -0.23311982672E+02  0.10639139606E+02 -0.83020563534E+01  0.98063705390E+02  0.94291708795E+02 0.  0.
         13    1    3    3    0    0 -0.45346984290E+01  0.16759173973E+02  0.41231571872E+02  0.44737982578E+02  0.10566000000E+00 0.  1.
         22    1    1    0    0    0  0.23311982672E+02 -0.10639139606E+02  0.83020563534E+01  0.26936294610E+02  0.00000000000E+00 0. -1.
</event>
<event>
 5    1  0.1751020E-003  0.9118800E+02  0.7818608E-02  0.1130116E+00
         25   -1    0    0    0    0  0.00000000000E+00  0.00000000000E+00  0.99999998245E-14  0.12500000000E+03  0.12500000000E+03 0.  0.
        -13    1    3    3    0    0  0.24072952014E+02 -0.25628111120E+02  0.43842627839E+02  0.56200482899E+02  0.10566000000E+00 0.  1.
         23    2    1    0    0    0 -0.20671060198E+01 -0.58097101656E-01  0.29417642480E+02  0.95509764470E+02  0.90842947538E+02 0.  0.
         13    1    3    3    0    0 -0.26140058034E+02  0.25570014018E+02 -0.14424985360E+02  0.39309281570E+02  0.10566000000E+00 0. -1.
         22    1    1    0    0    0  0.20671060198E+01  0.58097101656E-01 -0.29417642480E+02  0.29490235530E+02  0.00000000000E+00 0.  1.
</event>
<event>
 5    1  0.1751020E-003  0.9118800E+02  0.7818608E-02  0.1130116E+00
         25   -1    0    0    0    0  0.00000000000E+00  0.00000000000E+00  0.99999998245E-14  0.12500000000E+03  0.12500000000E+03 0.  0.
        -13    1    3    3    0    0 -0.26846055652E+02 -0.11108156397E+02  0.21549918414E+02  0.36173360230E+02  0.10566000000E+00 0. -1.
         23    2    1    0    0    0  0.23580371463E+02 -0.24251621761E+02  0.52850109964E+01  0.90763960252E+02  0.84059443628E+02 0.  0.
         13    1    3    3    0    0  0.50426427116E+02 -0.13143465364E+02 -0.16264907418E+02  0.54590600022E+02  0.10566000000E+00 0.  1.
         22    1    1    0    0    0 -0.23580371463E+02  0.24251621761E+02 -0.52850109964E+01  0.34236039748E+02  0.00000000000E+00 0.  1.
</event>
<event>
 5    1  0.1751020E-003  0.9118800E+02  0.7818608E-02  0.1130116E+00
         25   -1    0    0    0    0  0.00000000000E+00  0.00000000000E+00  0.99999998245E-14  0.12500000000E+03  0.12500000000E+03 0.  0.
        -13    1    3    3    0    0 -0.36632553931E+02 -0.46271506880E+02  0.43215950226E+01  0.59175026016E+02  0.10566000000E+00 0.  1.
         23    2    1    0    0    0 -0.27386183740E+02 -0.12310365293E+02  0.58666426235E+01  0.94406444320E+02  0.89311875358E+02 0.  0.
         13    1    3    3    0    0  0.92463701911E+01  0.33961141586E+02  0.15450476009E+01  0.35231418303E+02  0.10566000000E+00 0. -1.
         22    1    1    0    0    0  0.27386183740E+02  0.12310365293E+02 -0.58666426235E+01  0.30593555680E+02  0.00000000000E+00 0.  1.
</event>
<event>
 5    1  0.1751020E-003  0.9118800E+02  0.7818608E-02  0.1130116E+00
         25   -1    0    0    0    0  0.00000000000E+00  0.00000000000E+00  0.99999998245E-14  0.12500000000E+03  0.12500000000E+03 0.  0.
        -13    1    3    3    0    0  0.52898275716E+02 -0.20312857340E+02  0.15813064815E+02  0.58829447813E+02  0.10566000000E+00 0. -1.
         23    2    1    0    0    0  0.29381925962E+02 -0.16038485490E+01 -0.46823130680E+01  0.95204128489E+02  0.90421414069E+02 0.  0.
         13    1    3    3    0    0 -0.23516349754E+02  0.18709008791E+02 -0.20495377883E+02  0.36374680676E+02  0.10566000000E+00 0.  1.
         22    1    1    0    0    0 -0.29381925962E+02  0.16038485490E+01  0.46823130680E+01  0.29795871511E+02  0.00000000000E+00 0.  1.
</event>
<event>
 5    1  0.1751020E-003  0.9118800E+02  0.7818608E-02  0.1130116E+00
         25   -1    0    0    0    0  0.00000000000E+00  0.00000000000E+00  0.99999998245E-14  0.12500000000E+03  0.12500000000E+03 0.  0.
        -13    1    3    3    0    0  0.10769303690E+02 -0.36072679476E+02 -0.40138463481E+02  0.55030205535E+02  0.10566000000E+00 0.  1.
         23    2    1    0    0    0 -0.12948920438E+02 -0.64649132704E+01 -0.25472390340E+02  0.95703032346E+02  0.91108496237E+02 0.  0.
         13    1    3    3    0    0 -0.23718224127E+02  0.29607766205E+02  0.14666073142E+02  0.40672826812E+02  0.10566000000E+00 0. -1.
         22    1    1    0    0    0  0.12948920438E+02  0.64649132704E+01  0.25472390340E+02  0.29296967654E+02  0.00000000000E+00 0.  1.
</event>
<event>
 5    1  0.1751020E-003  0.9118800E+02  0.7818608E-02  0.1130116E+00
         25   -1    0    0    0    0  0.00000000000E+00  0.00000000000E+00  0.99999998245E-14  0.12500000000E+03  0.12500000000E+03 0.  0.
        -13    1    3    3    0    0 -0.11295937725E+02  0.32160079926E+02  0.45974187946E+02  0.57232037106E+02  0.10566000000E+00 0. -1.
         23    2    1    0    0    0 -0.18055456545E+02  0.13447254824E+02  0.62895463246E+01  0.10162508682E+03  0.98900311953E+02 0.  0.
         13    1    3    3    0    0 -0.67595188196E+01 -0.18712825102E+02 -0.39684641622E+02  0.44393049711E+02  0.10566000000E+00 0.  1.
         22    1    1    0    0    0  0.18055456545E+02 -0.13447254824E+02 -0.62895463246E+01  0.23374913183E+02  0.00000000000E+00 0. -1.
</event>
<event>
 5    1  0.1751020E-003  0.9118800E+02  0.7818608E-02  0.1130116E+00
         25   -1    0    0    0    0  0.00000000000E+00  0.00000000000E+00  0.99999998245E-14  0.12500000000E+03  0.12500000000E+03 0.  0.
        -13    1    3    3    0    0 -0.30740347776E+01  0.37102390794E+02 -0.15418080114E+02  0.40295973135E+02  0.10566000000E+00 0. -1.
         23    2    1    0    0    0  0.24891591762E+02 -0.95302428906E+01 -0.14452888683E+02  0.94679992393E+02  0.89693913385E+02 0.  0.
         13    1    3    3    0    0  0.27965626540E+02 -0.46632633685E+02  0.96519143106E+00  0.54384019258E+02  0.10566000000E+00 0.  1.
         22    1    1    0    0    0 -0.24891591762E+02  0.95302428906E+01  0.14452888683E+02  0.30320007607E+02  0.00000000000E+00 0.  1.
</event>
<event>
 5    1  0.1751020E-003  0.9118800E+02  0.7818608E-02  0.1130116E+00
         25   -1    0    0    0    0  0.00000000000E+00  0.00000000000E+00  0.99999998245E-14  0.12500000000E+03  0.12500000000E+03 0.  0.
        -13    1    3    3    0    0 -0.32436108377E+02 -0.21522960207E+02  0.18803900997E+02  0.43231201689E+02  0.10566000000E+00 0.  1.
         23    2    1    0    0    0  0.19224731200E+02 -0.20217330148E+02  0.68152266406E+01  0.96281050817E+02  0.91898110450E+02 0.  0.
         13    1    3    3    0    0  0.51660839577E+02  0.13056300590E+01 -0.11988674356E+02  0.53049849128E+02  0.10566000000E+00 0. -1.
         22    1    1    0    0    0 -0.19224731200E+02  0.20217330148E+02 -0.68152266406E+01  0.28718949183E+02  0.00000000000E+00 0.  1.
</event>
<event>
 5    1  0.1751020E-003  0.9118800E+02  0.7818608E-02  0.1130116E+00
         25   -1    0    0    0    0  0.00000000000E+00  0.00000000000E+00  0.99999998245E-14  0.12500000000E+03  0.12500000000E+03 0.  0.
        -13    1    3    3    0    0  0.27854968822E+02  0.11945853436E+02  0.18859169487E+02  0.35697088679E+02  0.10566000000E+00 0. -1.
         23    2    1    0    0    0 -0.99871960881E+01 -0.28178656659E+02 -0.28458100468E+01  0.94968692808E+02  0.90095356163E+02 0.  0.
         13    1    3    3    0    0 -0.37842164910E+02 -0.40124510096E+02 -0.21704979534E+02  0.59271604129E+02  0.10566000000E+00 0.  1.
         22    1    1    0    0    0  0.99871960881E+01  0.28178656659E+02  0.28458100468E+01  0.30031307192E+02  0.00000000000E+00 0.  1.
</event>
<event>
 5    1  0.1751020E-003  0.9118800E+02  0.7818608E-02  0.1130116E+00
         25   -1    0    0    0    0  0.00000000000E+00  0.00000000000E+00  0.99999998245E-14  0.12500000000E+03  0.12500000000E+03 0.  0.
        -13    1    3    3    0    0  0.38882818611E+02 -0.23646998550E+02 -0.86744304481E+01  0.46328296226E+02  0.10566000000E+00 0.  1.
         23    2    1    0    0    0  0.20134520751E+02  0.16248156871E+02  0.13657913651E+02  0.95743545449E+02  0.91164062888E+02 0.  0.
         13    1    3    3    0    0 -0.18748297860E+02  0.39895155422E+02  0.22332344099E+02  0.49415249223E+02  0.10566000000E+00 0. -1.
         22    1    1    0    0    0 -0.20134520751E+02 -0.16248156871E+02 -0.13657913651E+02  0.29256454551E+02  0.00000000000E+00 0. -1.
</event>
<event>
 5    1  0.1751020E-003  0.9118800E+02  0.7818608E-02  0.1130116E+00
         25   -1    0    0    0    0  0.00000000000E+00  0.00000000000E+00  0.99999998245E-14  0.12500000000E+03  0.12500000000E+03 0.  0.
        -13    1    3    3    0    0 -0.51322280152E+01 -0.23882517534E+02  0.30097870734E+02  0.38763480171E+02  0.10566000000E+00 0.  1.
         23    2    1    0    0    0 -0.18828277863E+02  0.22420610566E+02 -0.11308206968E+00  0.95722011460E+02  0.91134531682E+02 0.  0.
         13    1    3    3    0    0 -0.13696049848E+02  0.46303128100E+02 -0.30210952804E+02  0.56958531289E+02  0.10566000000E+00 0. -1.
         22    1    1    0    0    0  0.18828277863E+02 -0.22420610566E+02  0.11308206968E+00  0.29277988540E+02  0.00000000000E+00 0. -1.
</event>
<event>
 5    1  0.1751020E-003  0.9118800E+02  0.7818608E-02  0.1130116E+00
         25   -1    0    0    0    0  0.00000000000E+00  0.00000000000E+00  0.99999998245E-14  0.12500000000E+03  0.12500000000E+03 0.  0.
        -13    1    3    3    0    0 -0.33539393231E+02  0.22753528695E+02 -0.36410937243E+02  0.54482854930E+02  0.10566000000E+00 0. -1.
         23    2    1    0    0    0 -0.19085733342E+02  0.33956550408E+02 -0.13550918566E+02  0.83757547032E+02  0.72899840590E+02 0.  0.
         13    1    3    3    0    0  0.14453659889E+02  0.11203021713E+02  0.22860018677E+02  0.29274692102E+02  0.10566000000E+00 0.  1.
         22    1    1    0    0    0  0.19085733342E+02 -0.33956550408E+02  0.13550918566E+02  0.41242452968E+02  0.00000000000E+00 0. -1.
</event>
<event>
 5    1  0.1751020E-003  0.9118800E+02  0.7818608E-02  0.1130116E+00
         25   -1    0    0    0    0  0.00000000000E+00  0.00000000000E+00  0.99999998245E-14  0.12500000000E+03  0.12500000000E+03 0.  0.
        -13    1    3    3    0    0  0.27309576421E+02  0.62510037693E+01  0.19417303313E+02  0.34087106718E+02  0.10566000000E+00 0.  1.
         23    2    1    0    0    0 -0.17244424949E+02 -0.20855928819E+02 -0.12457275965E+02  0.95208664294E+02  0.90427684220E+02 0.  0.
         13    1    3    3    0    0 -0.44554001369E+02 -0.27106932588E+02 -0.31874579278E+02  0.61121557576E+02  0.10566000000E+00 0. -1.
         22    1    1    0    0    0  0.17244424949E+02  0.20855928819E+02  0.12457275965E+02  0.29791335706E+02  0.00000000000E+00 0. -1.
</event>
<event>
 5    1  0.1751020E-003  0.9118800E+02  0.7818608E-02  0.1130116E+00
         25   -1    0    0    0    0  0.00000000000E+00  0.00000000000E+00  0.99999998245E-14  0.12500000000E+03  0.12500000000E+03 0.  0.
        -13    1    3    3    0    0  0.32627193751E+02  0.10053338057E+02  0.47672443698E+02  0.58636818044E+02  0.10566000000E+00 0. -1.
         23    2    1    0    0    0  0.43800819180E+01 -0.91745356407E+01  0.19835809528E+02  0.10271061774E+03  0.10026292653E+03 0.  0.
         13    1    3    3    0    0 -0.28247111833E+02 -0.19227873698E+02 -0.27836634171E+02  0.44073799698E+02  0.10566000000E+00 0.  1.
         22    1    1    0    0    0 -0.43800819180E+01  0.91745356407E+01 -0.19835809528E+02  0.22289382258E+02  0.00000000000E+00 0. -1.
</event>
<event>
 5    1  0.1751020E-003  0.9118800E+02  0.7818608E-02  0.1130116E+00
         25   -1    0    0    0    0  0.00000000000E+00  0.00000000000E+00  0.99999998245E-14  0.12500000000E+03  0.12500000000E+03 0.  0.
        -13    1    3    3    0    0 -0.22137853993E+02  0.78868290493E+01 -0.35528119413E+02  0.42597477448E+02  0.10566000000E+00 0. -1.
         23    2    1    0    0    0  0.59101376756E+01  0.28807052334E+02  0.39254285355E+01  0.95332088366E+02  0.90598135144E+02 0.  0.
         13    1    3    3    0    0  0.28047991669E+02  0.20920223285E+02  0.39453547948E+02  0.52734610918E+02  0.10566000000E+00 0.  1.
         22    1    1    0    0    0 -0.59101376756E+01 -0.28807052334E+02 -0.39254285355E+01  0.29667911634E+02  0.00000000000E+00 0. -1.
</event>
<event>
 5    1  0.1751020E-003  0.9118800E+02  0.7818608E-02  0.1130116E+00
         25   -1    0    0    0    0  0.00000000000E+00  0.00000000000E+00  0.99999998245E-14  0.12500000000E+03  0.12500000000E+03 0.  0.
        -13    1    3    3    0    0 -0.76356923969E+01 -0.18026596196E+02  0.52690423904E+02  0.56209909304E+02  0.10566000000E+00 0.  1.
         23    2    1    0    0    0  0.90721554998E+01 -0.21962691384E+02  0.17098286406E+02  0.95725177775E+02  0.91138874493E+02 0.  0.
         13    1    3    3    0    0  0.16707847897E+02 -0.39360951881E+01 -0.35592137497E+02  0.39515268471E+02  0.10566000000E+00 0. -1.
         22    1    1    0    0    0 -0.90721554998E+01  0.21962691384E+02 -0.17098286406E+02  0.29274822225E+02  0.00000000000E+00 0.  1.
</event>
<event>
 5    1  0.1751020E-003  0.9118800E+02  0.7818608E-02  0.1130116E+00
         25   -1    0    0    0    0  0.00000000000E+00  0.00000000000E+00  0.99999998245E-14  0.12500000000E+03  0.12500000000E+03 0.  0.
        -13    1    3    3    0    0  0.28307035648E+02  0.20240026227E+01  0.31870583143E+02  0.42674700792E+02  0.10566000000E+00 0.  1.
         23    2    1    0    0    0  0.75730186493E+01  0.25702897787E+02 -0.11148465121E+02  0.95977976627E+02  0.91484939508E+02 0.  0.
         13    1    3    3    0    0 -0.20734016999E+02  0.23678895164E+02 -0.43019048264E+02  0.53303275835E+02  0.10566000000E+00 0. -1.
         22    1    1    0    0    0 -0.75730186493E+01 -0.25702897787E+02  0.11148465121E+02  0.29022023373E+02  0.00000000000E+00 0. -1.
</event>
<event>
 5    1  0.1751020E-003  0.9118800E+02  0.7818608E-02  0.1130116E+00
         25   -1    0    0    0    0  0.00000000000E+00  0.00000000000E+00  0.99999998245E-14  0.12500000000E+03  0.12500000000E+03 0.  0.
        -13    1    3    3    0    0  0.33053661554E+02  0.36578993914E+02  0.24922655015E+02  0.55242350013E+02  0.10566000000E+00 0.  1.
         23    2    1    0    0    0  0.28221004201E+02  0.74474161926E+00  0.56768036921E+01  0.96204065940E+02  0.91793335734E+02 0.  0.
         13    1    3    3    0    0 -0.48326573532E+01 -0.35834252294E+02 -0.19245851322E+02  0.40961715928E+02  0.10566000000E+00 0. -1.
         22    1    1    0    0    0 -0.28221004201E+02 -0.74474161926E+00 -0.56768036921E+01  0.28795934060E+02  0.00000000000E+00 0.  1.
</event>
<event>
 5    1  0.1751020E-003  0.9118800E+02  0.7818608E-02  0.1130116E+00
         25   -1    0    0    0    0  0.00000000000E+00  0.00000000000E+00  0.99999998245E-14  0.12500000000E+03  0.12500000000E+03 0.  0.
        -13    1    3    3    0    0  0.93229532468E+00 -0.49406711490E+02 -0.12865115622E+02  0.51062850281E+02  0.10566000000E+00 0. -1.
         23    2    1    0    0    0 -0.22447017673E+02 -0.18504411526E+02  0.76662054050E+01  0.94915908629E+02  0.90022092606E+02 0.  0.
         13    1    3    3    0    0 -0.23379312997E+02  0.30902299964E+02  0.20531321027E+02  0.43853058348E+02  0.10566000000E+00 0.  1.
         22    1    1    0    0    0  0.22447017673E+02  0.18504411526E+02 -0.76662054050E+01  0.30084091371E+02  0.00000000000E+00 0.  1.
</event>
<event>
 4    1  0.1751020E-003  0.9118800E+02  0.7818608E-02  0.1130116E+00
         25   -1    0    0    0    0  0.00000000000E+00  0.00000000000E+00  0.99999998245E-14  0.12500000000E+03  0.12500000000E+03 0.  0.
        -13    1    1    0    0    0  0.15031438165E+02 -0.12721691455E+02 -0.11034381314E+01  0.19723445606E+02  0.10566000000E+00 0.  1.
         13    1    1    0    0    0 -0.17838822640E+01  0.20488687996E+02  0.49979054224E+02  0.54045218076E+02  0.10566000000E+00 0. -1.
         22    1    1    0    0    0 -0.13247555901E+02 -0.77669965403E+01 -0.48875616092E+02  0.51231336319E+02  0.00000000000E+00 0. -1.
</event>
<event>
 5    1  0.1751020E-003  0.9118800E+02  0.7818608E-02  0.1130116E+00
         25   -1    0    0    0    0  0.00000000000E+00  0.00000000000E+00  0.99999998245E-14  0.12500000000E+03  0.12500000000E+03 0.  0.
        -13    1    3    3    0    0 -0.12045335406E+02 -0.23114384738E+02  0.30086518984E+02  0.39806716462E+02  0.10566000000E+00 0.  1.
         23    2    1    0    0    0  0.57717263265E+01 -0.17041472033E+02 -0.22807210742E+02  0.95950155668E+02  0.91446918576E+02 0.  0.
         13    1    3    3    0    0  0.17817061733E+02  0.60729127042E+01 -0.52893729727E+02  0.56143439206E+02  0.10566000000E+00 0. -1.
         22    1    1    0    0    0 -0.57717263265E+01  0.17041472033E+02  0.22807210742E+02  0.29049844332E+02  0.00000000000E+00 0. -1.
</event>
<event>
 5    1  0.1751020E-003  0.9118800E+02  0.7818608E-02  0.1130116E+00
         25   -1    0    0    0    0  0.00000000000E+00  0.00000000000E+00  0.99999998245E-14  0.12500000000E+03  0.12500000000E+03 0.  0.
        -13    1    3    3    0    0  0.14562526211E+02 -0.27655264882E+02 -0.45590371550E+02  0.55275437469E+02  0.10566000000E+00 0. -1.
         23    2    1    0    0    0 -0.12983383934E+02 -0.20397980677E+02 -0.18920793646E+02  0.94297519542E+02  0.89159295003E+02 0.  0.
         13    1    3    3    0    0 -0.27545910145E+02  0.72572842049E+01  0.26669577903E+02  0.39022082073E+02  0.10566000000E+00 0.  1.
         22    1    1    0    0    0  0.12983383934E+02  0.20397980677E+02  0.18920793646E+02  0.30702480458E+02  0.00000000000E+00 0. -1.
</event>
<event>
 5    1  0.1751020E-003  0.9118800E+02  0.7818608E-02  0.1130116E+00
         25   -1    0    0    0    0  0.00000000000E+00  0.00000000000E+00  0.99999998245E-14  0.12500000000E+03  0.12500000000E+03 0.  0.
        -13    1    3    3    0    0  0.24225184718E+02 -0.41859596416E+01  0.43663034673E+02  0.50108418391E+02  0.10566000000E+00 0. -1.
         23    2    1    0    0    0  0.52224254480E+01 -0.27805156467E+02  0.11070271528E+02  0.94619885362E+02  0.89610107357E+02 0.  0.
         13    1    3    3    0    0 -0.19002759270E+02 -0.23619196825E+02 -0.32592763145E+02  0.44511466972E+02  0.10566000000E+00 0.  1.
         22    1    1    0    0    0 -0.52224254480E+01  0.27805156467E+02 -0.11070271528E+02  0.30380114638E+02  0.00000000000E+00 0. -1.
</event>
<event>
 5    1  0.1751020E-003  0.9118800E+02  0.7818608E-02  0.1130116E+00
         25   -1    0    0    0    0  0.00000000000E+00  0.00000000000E+00  0.99999998245E-14  0.12500000000E+03  0.12500000000E+03 0.  0.
        -13    1    3    3    0    0  0.45079393815E+01  0.46254829735E+02  0.23282458824E+02  0.51979946559E+02  0.10566000000E+00 0. -1.
         23    2    1    0    0    0 -0.19280000980E+02  0.20820756658E+02 -0.41630225690E+01  0.96319813416E+02  0.91950820301E+02 0.  0.
         13    1    3    3    0    0 -0.23787940362E+02 -0.25434073077E+02 -0.27445481393E+02  0.44339866857E+02  0.10566000000E+00 0.  1.
         22    1    1    0    0    0  0.19280000980E+02 -0.20820756658E+02  0.41630225690E+01  0.28680186584E+02  0.00000000000E+00 0. -1.
</event>
<event>
 5    1  0.1751020E-003  0.9118800E+02  0.7818608E-02  0.1130116E+00
         25   -1    0    0    0    0  0.00000000000E+00  0.00000000000E+00  0.99999998245E-14  0.12500000000E+03  0.12500000000E+03 0.  0.
        -13    1    3    3    0    0  0.20619478102E+02 -0.31680415332E+02  0.39767907775E+02  0.54866285146E+02  0.10566000000E+00 0.  1.
         23    2    1    0    0    0  0.13690470705E+02 -0.26016419902E+02  0.28282399728E-01  0.95601294373E+02  0.90968805605E+02 0.  0.
         13    1    3    3    0    0 -0.69290073973E+01  0.56639954298E+01 -0.39739625376E+02  0.40735009228E+02  0.10566000000E+00 0. -1.
         22    1    1    0    0    0 -0.13690470705E+02  0.26016419902E+02 -0.28282399728E-01  0.29398705627E+02  0.00000000000E+00 0.  1.
</event>
<event>
 5    1  0.1751020E-003  0.9118800E+02  0.7818608E-02  0.1130116E+00
         25   -1    0    0    0    0  0.00000000000E+00  0.00000000000E+00  0.99999998245E-14  0.12500000000E+03  0.12500000000E+03 0.  0.
        -13    1    3    3    0    0  0.56793961947E+01  0.43409408680E+01 -0.21678319445E+02  0.22826738855E+02  0.10566000000E+00 0. -1.
         23    2    1    0    0    0  0.12403162658E+02 -0.12553082525E+02  0.36865030225E+02  0.84128875984E+02  0.73533794925E+02 0.  0.
         13    1    3    3    0    0  0.67237664631E+01 -0.16894023393E+02  0.58543349671E+02  0.61302137129E+02  0.10566000000E+00 0.  1.
         22    1    1    0    0    0 -0.12403162658E+02  0.12553082525E+02 -0.36865030225E+02  0.40871124016E+02  0.00000000000E+00 0.  1.
</event>
<event>
 5    1  0.1751020E-003  0.9118800E+02  0.7818608E-02  0.1130116E+00
         25   -1    0    0    0    0  0.00000000000E+00  0.00000000000E+00  0.99999998245E-14  0.12500000000E+03  0.12500000000E+03 0.  0.
        -13    1    3    3    0    0  0.42083584745E+01  0.35343675870E+02  0.19967729088E+02  0.40811849676E+02  0.10566000000E+00 0. -1.
         23    2    1    0    0    0 -0.23774599874E+02 -0.11121721562E+02  0.13637991639E+02  0.95420968481E+02  0.90720681877E+02 0.  0.
         13    1    3    3    0    0 -0.27982958349E+02 -0.46465397431E+02 -0.63297374493E+01  0.54609118804E+02  0.10566000000E+00 0.  1.
         22    1    1    0    0    0  0.23774599874E+02  0.11121721562E+02 -0.13637991639E+02  0.29579031519E+02  0.00000000000E+00 0.  1.
</event>
<event>
 5    1  0.1751020E-003  0.9118800E+02  0.7818608E-02  0.1130116E+00
         25   -1    0    0    0    0  0.00000000000E+00  0.00000000000E+00  0.99999998245E-14  0.12500000000E+03  0.12500000000E+03 0.  0.
        -13    1    3    3    0    0 -0.20669094530E+02  0.38362985467E+02  0.24611157420E+02  0.50046481957E+02  0.10566000000E+00 0. -1.
         23    2    1    0    0    0 -0.27237718746E+02  0.12953174163E+02 -0.97664114559E+01  0.93297305539E+02  0.87745805511E+02 0.  0.
         13    1    3    3    0    0 -0.65686242156E+01 -0.25409811305E+02 -0.34377568876E+02  0.43250823582E+02  0.10566000000E+00 0.  1.
         22    1    1    0    0    0  0.27237718746E+02 -0.12953174163E+02  0.97664114559E+01  0.31702694461E+02  0.00000000000E+00 0. -1.
</event>
<event>
 5    1  0.1751020E-003  0.9118800E+02  0.7818608E-02  0.1130116E+00
         25   -1    0    0    0    0  0.00000000000E+00  0.00000000000E+00  0.99999998245E-14  0.12500000000E+03  0.12500000000E+03 0.  0.
        -13    1    3    3    0    0 -0.11594230265E+02  0.24347883456E+02 -0.59538056397E+01  0.27617106471E+02  0.10566000000E+00 0.  1.
         23    2    1    0    0    0 -0.18627336545E+02 -0.31081533701E+02  0.12823689972E+02  0.86561914350E+02  0.77559516421E+02 0.  0.
         13    1    3    3    0    0 -0.70331062799E+01 -0.55429417157E+02  0.18777495612E+02  0.58944807878E+02  0.10566000000E+00 0. -1.
         22    1    1    0    0    0  0.18627336545E+02  0.31081533701E+02 -0.12823689972E+02  0.38438085650E+02  0.00000000000E+00 0. -1.
</event>
<event>
 5    1  0.1751020E-003  0.9118800E+02  0.7818608E-02  0.1130116E+00
         25   -1    0    0    0    0  0.00000000000E+00  0.00000000000E+00  0.99999998245E-14  0.12500000000E+03  0.12500000000E+03 0.  0.
        -13    1    3    3    0    0 -0.32583628297E+02 -0.11679019678E+02 -0.48320077422E+01  0.34949274621E+02  0.10566000000E+00 0.  1.
         23    2    1    0    0    0  0.27344519048E+02 -0.65317143928E+01 -0.96136104844E+01  0.95287922971E+02  0.90537178787E+02 0.  0.
         13    1    3    3    0    0  0.59928147345E+02  0.51473052849E+01 -0.47816027421E+01  0.60338648350E+02  0.10566000000E+00 0. -1.
         22    1    1    0    0    0 -0.27344519048E+02  0.65317143928E+01  0.96136104844E+01  0.29712077029E+02  0.00000000000E+00 0. -1.
</event>
<event>
 5    1  0.1751020E-003  0.9118800E+02  0.7818608E-02  0.1130116E+00
         25   -1    0    0    0    0  0.00000000000E+00  0.00000000000E+00  0.99999998245E-14  0.12500000000E+03  0.12500000000E+03 0.  0.
        -13    1    3    3    0    0  0.38054954745E+02  0.10258536598E+02  0.43107361335E+02  0.58409527639E+02  0.10566000000E+00 0.  1.
         23    2    1    0    0    0  0.18449890541E+02 -0.11248819572E+02  0.19744125227E+02  0.95729453648E+02  0.91144738806E+02 0.  0.
         13    1    3    3    0    0 -0.19605064203E+02 -0.21507356170E+02 -0.23363236108E+02  0.37319926009E+02  0.10566000000E+00 0. -1.
         22    1    1    0    0    0 -0.18449890541E+02  0.11248819572E+02 -0.19744125227E+02  0.29270546352E+02  0.00000000000E+00 0.  1.
</event>
<event>
 5    1  0.1751020E-003  0.9118800E+02  0.7818608E-02  0.1130116E+00
         25   -1    0    0    0    0  0.00000000000E+00  0.00000000000E+00  0.99999998245E-14  0.12500000000E+03  0.12500000000E+03 0.  0.
        -13    1    3    3    0    0  0.18929647173E+02 -0.39691970584E+02 -0.41890706953E+02  0.60734064280E+02  0.10566000000E+00 0. -1.
         23    2    1    0    0    0  0.18282903642E+02 -0.15095880901E+02 -0.16343757615E+02  0.96202975870E+02  0.91791851314E+02 0.  0.
         13    1    3    3    0    0 -0.64674353108E+00  0.24596089683E+02  0.25546949338E+02  0.35468911590E+02  0.10566000000E+00 0.  1.
         22    1    1    0    0    0 -0.18282903642E+02  0.15095880901E+02  0.16343757615E+02  0.28797024130E+02  0.00000000000E+00 0. -1.
</event>
<event>
 5    1  0.1751020E-003  0.9118800E+02  0.7818608E-02  0.1130116E+00
         25   -1    0    0    0    0  0.00000000000E+00  0.00000000000E+00  0.99999998245E-14  0.12500000000E+03  0.12500000000E+03 0.  0.
        -13    1    3    3    0    0 -0.23790407276E+02  0.18060927731E+02 -0.13689386972E+02  0.32857131168E+02  0.10566000000E+00 0.  1.
         23    2    1    0    0    0  0.19355724454E+02 -0.18019399272E+02  0.13477543441E+02  0.95318574891E+02  0.90579488422E+02 0.  0.
         13    1    3    3    0    0  0.43146131730E+02 -0.36080327003E+02  0.27166930414E+02  0.62461443724E+02  0.10566000000E+00 0. -1.
         22    1    1    0    0    0 -0.19355724454E+02  0.18019399272E+02 -0.13477543441E+02  0.29681425109E+02  0.00000000000E+00 0. -1.
</event>
<event>
 5    1  0.1751020E-003  0.9118800E+02  0.7818608E-02  0.1130116E+00
         25   -1    0    0    0    0  0.00000000000E+00  0.00000000000E+00  0.99999998245E-14  0.12500000000E+03  0.12500000000E+03 0.  0.
        -13    1    3    3    0    0  0.38808537285E+02  0.28516797661E+01  0.40127942839E+02  0.55897205692E+02  0.10566000000E+00 0. -1.
         23    2    1    0    0    0  0.29090312314E+01 -0.97104554406E+01  0.27043608138E+02  0.96119000213E+02  0.91677423902E+02 0.  0.
         13    1    3    3    0    0 -0.35899506054E+02 -0.12562135207E+02 -0.13084334701E+02  0.40221794521E+02  0.10566000000E+00 0.  1.
         22    1    1    0    0    0 -0.29090312314E+01  0.97104554406E+01 -0.27043608138E+02  0.28880999787E+02  0.00000000000E+00 0. -1.
</event>
<event>
 5    1  0.1751020E-003  0.9118800E+02  0.7818608E-02  0.1130116E+00
         25   -1    0    0    0    0  0.00000000000E+00  0.00000000000E+00  0.99999998245E-14  0.12500000000E+03  0.12500000000E+03 0.  0.
        -13    1    3    3    0    0 -0.14321029940E+02  0.22322260971E+02  0.24573484254E+02  0.36155809019E+02  0.10566000000E+00 0. -1.
         23    2    1    0    0    0  0.62533149916E+01 -0.28598287188E+02  0.16150174281E+01  0.95681503112E+02  0.91078953540E+02 0.  0.
         13    1    3    3    0    0  0.20574344932E+02 -0.50920548159E+02 -0.22958466826E+02  0.59525694093E+02  0.10566000000E+00 0.  1.
         22    1    1    0    0    0 -0.62533149916E+01  0.28598287188E+02 -0.16150174281E+01  0.29318496888E+02  0.00000000000E+00 0.  1.
</event>
<event>
 5    1  0.1751020E-003  0.9118800E+02  0.7818608E-02  0.1130116E+00
         25   -1    0    0    0    0  0.00000000000E+00  0.00000000000E+00  0.99999998245E-14  0.12500000000E+03  0.12500000000E+03 0.  0.
        -13    1    3    3    0    0  0.27306283820E+02  0.35438304973E+02  0.36765927971E+02  0.57907263957E+02  0.10566000000E+00 0.  1.
         23    2    1    0    0    0  0.21982054614E+02  0.19259429356E+02  0.31333873185E+01  0.95606897744E+02  0.90976504857E+02 0.  0.
         13    1    3    3    0    0 -0.53242292065E+01 -0.16178875617E+02 -0.33632540652E+02  0.37699633787E+02  0.10566000000E+00 0. -1.
         22    1    1    0    0    0 -0.21982054614E+02 -0.19259429356E+02 -0.31333873185E+01  0.29393102256E+02  0.00000000000E+00 0.  1.
</event>
<event>
 5    1  0.1751020E-003  0.9118800E+02  0.7818608E-02  0.1130116E+00
         25   -1    0    0    0    0  0.00000000000E+00  0.00000000000E+00  0.99999998245E-14  0.12500000000E+03  0.12500000000E+03 0.  0.
        -13    1    3    3    0    0 -0.14626945107E+02  0.30807858042E+02  0.33351273810E+02  0.47701051027E+02  0.10566000000E+00 0. -1.
         23    2    1    0    0    0  0.11393805309E+02  0.21699839378E+02 -0.95492780317E+01  0.98696187741E+02  0.95126478623E+02 0.  0.
         13    1    3    3    0    0  0.26020750416E+02 -0.91080186643E+01 -0.42900551841E+02  0.50995136714E+02  0.10566000000E+00 0.  1.
         22    1    1    0    0    0 -0.11393805309E+02 -0.21699839378E+02  0.95492780317E+01  0.26303812259E+02  0.00000000000E+00 0. -1.
</event>
<event>
 5    1  0.1751020E-003  0.9118800E+02  0.7818608E-02  0.1130116E+00
         25   -1    0    0    0    0  0.00000000000E+00  0.00000000000E+00  0.99999998245E-14  0.12500000000E+03  0.12500000000E+03 0.  0.
        -13    1    3    3    0    0  0.47626843590E+02 -0.26095227848E+02  0.58163707759E+01  0.54617931852E+02  0.10566000000E+00 0.  1.
         23    2    1    0    0    0  0.54935817923E+01 -0.26385394644E+02  0.82265499082E+01  0.96821202744E+02  0.92629912479E+02 0.  0.
         13    1    3    3    0    0 -0.42133261797E+02 -0.29016679618E+00  0.24101791323E+01  0.42203270892E+02  0.10566000000E+00 0. -1.
         22    1    1    0    0    0 -0.54935817923E+01  0.26385394644E+02 -0.82265499082E+01  0.28178797256E+02  0.00000000000E+00 0.  1.
</event>
<event>
 5    1  0.1751020E-003  0.9118800E+02  0.7818608E-02  0.1130116E+00
         25   -1    0    0    0    0  0.00000000000E+00  0.00000000000E+00  0.99999998245E-14  0.12500000000E+03  0.12500000000E+03 0.  0.
        -13    1    3    3    0    0  0.16189939872E+02  0.99331724546E+01 -0.26961472869E+02  0.32980513207E+02  0.10566000000E+00 0.  1.
         23    2    1    0    0    0 -0.12888311320E+02 -0.15698146876E+00  0.26987684359E+02  0.95092336786E+02  0.90266739148E+02 0.  0.
         13    1    3    3    0    0 -0.29078251192E+02 -0.10090153923E+02  0.53949157229E+02  0.62111823579E+02  0.10566000000E+00 0. -1.
         22    1    1    0    0    0  0.12888311320E+02  0.15698146876E+00 -0.26987684359E+02  0.29907663214E+02  0.00000000000E+00 0. -1.
</event>
<event>
 5    1  0.1751020E-003  0.9118800E+02  0.7818608E-02  0.1130116E+00
         25   -1    0    0    0    0  0.00000000000E+00  0.00000000000E+00  0.99999998245E-14  0.12500000000E+03  0.12500000000E+03 0.  0.
        -13    1    3    3    0    0 -0.42365833597E+02 -0.10197900175E+02 -0.28881371004E+02  0.52278157766E+02  0.10566000000E+00 0. -1.
         23    2    1    0    0    0 -0.27734168155E+02 -0.69290290725E+01  0.10600781615E+02  0.94511115173E+02  0.89458251678E+02 0.  0.
         13    1    3    3    0    0  0.14631665442E+02  0.32688711026E+01  0.39482152619E+02  0.42232957407E+02  0.10566000000E+00 0.  1.
         22    1    1    0    0    0  0.27734168155E+02  0.69290290725E+01 -0.10600781615E+02  0.30488884827E+02  0.00000000000E+00 0. -1.
</event>
<event>
 5    1  0.1751020E-003  0.9118800E+02  0.7818608E-02  0.1130116E+00
         25   -1    0    0    0    0  0.00000000000E+00  0.00000000000E+00  0.99999998245E-14  0.12500000000E+03  0.12500000000E+03 0.  0.
        -13    1    3    3    0    0 -0.26022363283E+02 -0.28547689668E+02  0.18448307126E+00  0.38628735085E+02  0.10566000000E+00 0. -1.
         23    2    1    0    0    0 -0.57380316665E+01  0.26234746220E+02  0.64508349262E+01  0.97381162445E+02  0.93382496279E+02 0.  0.
         13    1    3    3    0    0  0.20284331617E+02  0.54782435889E+02  0.62663518550E+01  0.58752427360E+02  0.10566000000E+00 0.  1.
         22    1    1    0    0    0  0.57380316665E+01 -0.26234746220E+02 -0.64508349262E+01  0.27618837555E+02  0.00000000000E+00 0.  1.
</event>
<event>
 5    1  0.1751020E-003  0.9118800E+02  0.7818608E-02  0.1130116E+00
         25   -1    0    0    0    0  0.00000000000E+00  0.00000000000E+00  0.99999998245E-14  0.12500000000E+03  0.12500000000E+03 0.  0.
        -13    1    3    3    0    0  0.13288433897E+02 -0.96024650629E+01  0.53383201665E+02  0.55844133038E+02  0.10566000000E+00 0. -1.
         23    2    1    0    0    0 -0.13683947367E+02 -0.94173243165E+01  0.24855887578E+02  0.95104322049E+02  0.90283334632E+02 0.  0.
         13    1    3    3    0    0 -0.26972381264E+02  0.18514074636E+00 -0.28527314087E+02  0.39260189011E+02  0.10566000000E+00 0.  1.
         22    1    1    0    0    0  0.13683947367E+02  0.94173243165E+01 -0.24855887578E+02  0.29895677951E+02  0.00000000000E+00 0. -1.
</event>
<event>
 5    1  0.1751020E-003  0.9118800E+02  0.7818608E-02  0.1130116E+00
         25   -1    0    0    0    0  0.00000000000E+00  0.00000000000E+00  0.99999998245E-14  0.12500000000E+03  0.12500000000E+03 0.  0.
        -13    1    3    3    0    0 -0.32029474617E+02 -0.32256848753E+02  0.86218816802E+01  0.46268126647E+02  0.10566000000E+00 0. -1.
         23    2    1    0    0    0  0.16465601656E+02 -0.15773771307E+02  0.14734784888E+02  0.97851486508E+02  0.94009954935E+02 0.  0.
         13    1    3    3    0    0  0.48495076273E+02  0.16483077445E+02  0.61129032080E+01  0.51583359860E+02  0.10566000000E+00 0.  1.
         22    1    1    0    0    0 -0.16465601656E+02  0.15773771307E+02 -0.14734784888E+02  0.27148513492E+02  0.00000000000E+00 0.  1.
</event>
<event>
 5    1  0.1751020E-003  0.9118800E+02  0.7818608E-02  0.1130116E+00
         25   -1    0    0    0    0  0.00000000000E+00  0.00000000000E+00  0.99999998245E-14  0.12500000000E+03  0.12500000000E+03 0.  0.
        -13    1    3    3    0    0 -0.21403482934E+02  0.16555518727E+02  0.18475435073E+02  0.32765029333E+02  0.10566000000E+00 0. -1.
         23    2    1    0    0    0  0.11424028604E+02 -0.97056218131E+00 -0.29423961316E+02  0.93421210916E+02  0.87922140153E+02 0.  0.
         13    1    3    3    0    0  0.32827511538E+02 -0.17526080909E+02 -0.47899396389E+02  0.60656181583E+02  0.10566000000E+00 0.  1.
         22    1    1    0    0    0 -0.11424028604E+02  0.97056218131E+00  0.29423961316E+02  0.31578789084E+02  0.00000000000E+00 0.  1.
</event>
<event>
 5    1  0.1751020E-003  0.9118800E+02  0.7818608E-02  0.1130116E+00
         25   -1    0    0    0    0  0.00000000000E+00  0.00000000000E+00  0.99999998245E-14  0.12500000000E+03  0.12500000000E+03 0.  0.
        -13    1    3    3    0    0  0.34057131951E+02 -0.13063948107E+01  0.13509608264E+02  0.36662181926E+02  0.10566000000E+00 0.  1.
         23    2    1    0    0    0 -0.26145322843E+02  0.41242141688E+01  0.79446637201E+01  0.97364791828E+02  0.93360580316E+02 0.  0.
         13    1    3    3    0    0 -0.60202454794E+02  0.54306089795E+01 -0.55649445436E+01  0.60702609902E+02  0.10566000000E+00 0. -1.
         22    1    1    0    0    0  0.26145322843E+02 -0.41242141688E+01 -0.79446637201E+01  0.27635208172E+02  0.00000000000E+00 0. -1.
</event>
