<event>
 4    1  0.1976955E-002  0.9118800E+02  0.7818608E-02  0.1130116E+00
         25   -1    0    0    0    0  0.00000000000E+00  0.00000000000E+00  0.99999998245E-14  0.12500000000E+03  0.12500000000E+03 0.  0.
        -11    1    1    0    0    0  0.19388379436E+02 -0.23241231971E+02 -0.17077148194E+02  0.34751879250E+02  0.51100000000E-03 0. -1.
         11    1    1    0    0    0  0.17282423782E+02 -0.17754779493E+02 -0.12548082004E+02  0.27773525683E+02  0.51100000000E-03 0.  1.
         22    1    1    0    0    0 -0.36670803217E+02  0.40996011464E+02  0.29625230198E+02  0.62474595068E+02  0.00000000000E+00 0. -1.
</event>
<event>
 4    1  0.1976955E-002  0.9118800E+02  0.7818608E-02  0.1130116E+00
         25   -1    0    0    0    0  0.00000000000E+00  0.00000000000E+00  0.99999998245E-14  0.12500000000E+03  0.12500000000E+03 0.  0.
        -11    1    1    0    0    0 -0.28287970360E+02 -0.29136950770E+01  0.90191018055E+01  0.29833589857E+02  0.51100000000E-03 0.  1.
         11    1    1    0    0    0 -0.31187277783E+02 -0.26539004455E+01  0.93567430759E+01  0.32668610689E+02  0.51100000000E-03 0. -1.
         22    1    1    0    0    0  0.59475248143E+02  0.55675955225E+01 -0.18375844881E+02  0.62497799455E+02  0.00000000000E+00 0.  1.
</event>
<event>
 4    1  0.1976955E-002  0.9118800E+02  0.7818608E-02  0.1130116E+00
         25   -1    0    0    0    0  0.00000000000E+00  0.00000000000E+00  0.99999998245E-14  0.12500000000E+03  0.12500000000E+03 0.  0.
        -11    1    1    0    0    0  0.31725919474E+02  0.17120832318E+02  0.27372619704E+02  0.45264966315E+02  0.51100000000E-03 0. -1.
         11    1    1    0    0    0  0.33638392630E+01 -0.14973865090E+02  0.17144733280E+02  0.23010300516E+02  0.51100000000E-03 0.  1.
         22    1    1    0    0    0 -0.35089758737E+02 -0.21469672274E+01 -0.44517352983E+02  0.56724733170E+02  0.00000000000E+00 0. -1.
</event>
<event>
 4    1  0.1976955E-002  0.9118800E+02  0.7818608E-02  0.1130116E+00
         25   -1    0    0    0    0  0.00000000000E+00  0.00000000000E+00  0.99999998245E-14  0.12500000000E+03  0.12500000000E+03 0.  0.
        -11    1    1    0    0    0 -0.72156089859E+01  0.79931583762E+00  0.39920129839E+01  0.82849313075E+01  0.51100000000E-03 0. -1.
         11    1    1    0    0    0 -0.47242023740E+02  0.51767281072E+01  0.26089589088E+02  0.54215071520E+02  0.51100000000E-03 0.  1.
         22    1    1    0    0    0  0.54457632726E+02 -0.59760439448E+01 -0.30081602072E+02  0.62499997172E+02  0.00000000000E+00 0.  1.
</event>
<event>
 4    1  0.1976955E-002  0.9118800E+02  0.7818608E-02  0.1130116E+00
         25   -1    0    0    0    0  0.00000000000E+00  0.00000000000E+00  0.99999998245E-14  0.12500000000E+03  0.12500000000E+03 0.  0.
        -11    1    1    0    0    0 -0.20110100786E+02 -0.31549235270E+01  0.91693055611E+01  0.22325901120E+02  0.51100000000E-03 0. -1.
         11    1    1    0    0    0 -0.36048642402E+02 -0.60537324827E+01  0.16668526401E+02  0.40174520142E+02  0.51100000000E-03 0.  1.
         22    1    1    0    0    0  0.56158743188E+02  0.92086560097E+01 -0.25837831962E+02  0.62499578738E+02  0.00000000000E+00 0. -1.
</event>
<event>
 4    1  0.1976955E-002  0.9118800E+02  0.7818608E-02  0.1130116E+00
         25   -1    0    0    0    0  0.00000000000E+00  0.00000000000E+00  0.99999998245E-14  0.12500000000E+03  0.12500000000E+03 0.  0.
        -11    1    1    0    0    0 -0.22042482008E+02  0.51929796191E+02  0.20276198028E+02  0.59947468272E+02  0.51100000000E-03 0.  1.
         11    1    1    0    0    0 -0.93837712507E+00  0.22113293688E+01  0.86306949869E+00  0.25525317680E+01  0.51100000000E-03 0.  1.
         22    1    1    0    0    0  0.22980859133E+02 -0.54141125560E+02 -0.21139267526E+02  0.62499999960E+02  0.00000000000E+00 0.  1.
</event>
<event>
 4    1  0.1976955E-002  0.9118800E+02  0.7818608E-02  0.1130116E+00
         25   -1    0    0    0    0  0.00000000000E+00  0.00000000000E+00  0.99999998245E-14  0.12500000000E+03  0.12500000000E+03 0.  0.
        -11    1    1    0    0    0 -0.75414003405E+01 -0.16936838022E+02 -0.66884915577E+01  0.19709518534E+02  0.51100000000E-03 0. -1.
         11    1    1    0    0    0 -0.35063861682E+02 -0.36110786098E+01 -0.29314552137E+02  0.45846016752E+02  0.51100000000E-03 0.  1.
         22    1    1    0    0    0  0.42605262022E+02  0.20547916632E+02  0.36003043694E+02  0.59444464714E+02  0.00000000000E+00 0.  1.
</event>
<event>
 4    1  0.1976955E-002  0.9118800E+02  0.7818608E-02  0.1130116E+00
         25   -1    0    0    0    0  0.00000000000E+00  0.00000000000E+00  0.99999998245E-14  0.12500000000E+03  0.12500000000E+03 0.  0.
        -11    1    1    0    0    0 -0.35321053395E+02 -0.15734827618E+02 -0.48281822167E+02  0.61857060754E+02  0.51100000000E-03 0.  1.
         11    1    1    0    0    0 -0.36479286257E+00 -0.14099036390E+00 -0.51059877158E+00  0.64316676061E+00  0.51100000000E-03 0. -1.
         22    1    1    0    0    0  0.35685846257E+02  0.15875817982E+02  0.48792420939E+02  0.62499772486E+02  0.00000000000E+00 0.  1.
</event>
<event>
 4    1  0.1976955E-002  0.9118800E+02  0.7818608E-02  0.1130116E+00
         25   -1    0    0    0    0  0.00000000000E+00  0.00000000000E+00  0.99999998245E-14  0.12500000000E+03  0.12500000000E+03 0.  0.
        -11    1    1    0    0    0 -0.26419022399E+02 -0.99915122597E+00 -0.20207088649E+02  0.33275959485E+02  0.51100000000E-03 0.  1.
         11    1    1    0    0    0 -0.23057155994E+02 -0.10959968521E+01 -0.17923099388E+02  0.29224495608E+02  0.51100000000E-03 0. -1.
         22    1    1    0    0    0  0.49476178393E+02  0.20951480781E+01  0.38130188037E+02  0.62499544907E+02  0.00000000000E+00 0.  1.
</event>
<event>
 4    1  0.1976955E-002  0.9118800E+02  0.7818608E-02  0.1130116E+00
         25   -1    0    0    0    0  0.00000000000E+00  0.00000000000E+00  0.99999998245E-14  0.12500000000E+03  0.12500000000E+03 0.  0.
        -11    1    1    0    0    0  0.29903800363E+02 -0.67257578585E+01  0.27647336624E+02  0.41277697580E+02  0.51100000000E-03 0. -1.
         11    1    1    0    0    0  0.15162972752E+02 -0.38768323201E+01  0.14335904256E+02  0.21224130668E+02  0.51100000000E-03 0.  1.
         22    1    1    0    0    0 -0.45066773115E+02  0.10602590179E+02 -0.41983240880E+02  0.62498171751E+02  0.00000000000E+00 0. -1.
</event>
<event>
 4    1  0.1976955E-002  0.9118800E+02  0.7818608E-02  0.1130116E+00
         25   -1    0    0    0    0  0.00000000000E+00  0.00000000000E+00  0.99999998245E-14  0.12500000000E+03  0.12500000000E+03 0.  0.
        -11    1    1    0    0    0  0.41103497629E+01  0.32725156058E+02  0.78345058846E+00  0.32991583916E+02  0.51100000000E-03 0. -1.
         11    1    1    0    0    0  0.36774219395E+01  0.29269984533E+02  0.70085192815E+00  0.29508416094E+02  0.51100000000E-03 0.  1.
         22    1    1    0    0    0 -0.77877717023E+01 -0.61995140590E+02 -0.14843025166E+01  0.62499999991E+02  0.00000000000E+00 0. -1.
</event>
<event>
 4    1  0.1976955E-002  0.9118800E+02  0.7818608E-02  0.1130116E+00
         25   -1    0    0    0    0  0.00000000000E+00  0.00000000000E+00  0.99999998245E-14  0.12500000000E+03  0.12500000000E+03 0.  0.
        -11    1    1    0    0    0  0.11974214962E+02  0.26638439030E+02  0.18475229886E+02  0.34558969567E+02  0.51100000000E-03 0. -1.
         11    1    1    0    0    0  0.96817466173E+01  0.21537996292E+02  0.14935852188E+02  0.27941030452E+02  0.51100000000E-03 0.  1.
         22    1    1    0    0    0 -0.21655961579E+02 -0.48176435323E+02 -0.33411082074E+02  0.62499999981E+02  0.00000000000E+00 0.  1.
</event>
<event>
 4    1  0.1976955E-002  0.9118800E+02  0.7818608E-02  0.1130116E+00
         25   -1    0    0    0    0  0.00000000000E+00  0.00000000000E+00  0.99999998245E-14  0.12500000000E+03  0.12500000000E+03 0.  0.
        -11    1    1    0    0    0 -0.17070226461E+02 -0.17272397125E+01 -0.49394158836E+02  0.52289185458E+02  0.51100000000E-03 0.  1.
         11    1    1    0    0    0 -0.31804265386E+01 -0.35685377434E+00 -0.96968721802E+01  0.10211355832E+02  0.51100000000E-03 0. -1.
         22    1    1    0    0    0  0.20250652999E+02  0.20840934869E+01  0.59091031016E+02  0.62499458711E+02  0.00000000000E+00 0.  1.
</event>
<event>
 4    1  0.1976955E-002  0.9118800E+02  0.7818608E-02  0.1130116E+00
         25   -1    0    0    0    0  0.00000000000E+00  0.00000000000E+00  0.99999998245E-14  0.12500000000E+03  0.12500000000E+03 0.  0.
        -11    1    1    0    0    0 -0.13010235265E+02  0.11284911107E+02  0.41704035500E+02  0.45120306045E+02  0.51100000000E-03 0. -1.
         11    1    1    0    0    0 -0.19174622095E+01  0.72679224677E+01  0.15878434959E+02  0.17567699205E+02  0.51100000000E-03 0.  1.
         22    1    1    0    0    0  0.14927697474E+02 -0.18552833575E+02 -0.57582470460E+02  0.62311994750E+02  0.00000000000E+00 0. -1.
</event>
<event>
 4    1  0.1976955E-002  0.9118800E+02  0.7818608E-02  0.1130116E+00
         25   -1    0    0    0    0  0.00000000000E+00  0.00000000000E+00  0.99999998245E-14  0.12500000000E+03  0.12500000000E+03 0.  0.
        -11    1    1    0    0    0  0.39992642353E+01  0.14800383468E+02  0.23481414854E+01  0.15509972080E+02  0.51100000000E-03 0. -1.
         11    1    1    0    0    0  0.12113116408E+02  0.44840602126E+02  0.71172704509E+01  0.46990027954E+02  0.51100000000E-03 0. -1.
         22    1    1    0    0    0 -0.16112380643E+02 -0.59640985594E+02 -0.94654119363E+01  0.62499999966E+02  0.00000000000E+00 0. -1.
</event>
<event>
 4    1  0.1976955E-002  0.9118800E+02  0.7818608E-02  0.1130116E+00
         25   -1    0    0    0    0  0.00000000000E+00  0.00000000000E+00  0.99999998245E-14  0.12500000000E+03  0.12500000000E+03 0.  0.
        -11    1    1    0    0    0 -0.21869565823E+02  0.15684749211E+02  0.43125977465E+02  0.50834429274E+02  0.51100000000E-03 0. -1.
         11    1    1    0    0    0 -0.50016600476E+01  0.35993148671E+01  0.99052520105E+01  0.11665577071E+02  0.51100000000E-03 0.  1.
         22    1    1    0    0    0  0.26871225870E+02 -0.19284064078E+02 -0.53031229476E+02  0.62499993655E+02  0.00000000000E+00 0. -1.
</event>
<event>
 4    1  0.1976955E-002  0.9118800E+02  0.7818608E-02  0.1130116E+00
         25   -1    0    0    0    0  0.00000000000E+00  0.00000000000E+00  0.99999998245E-14  0.12500000000E+03  0.12500000000E+03 0.  0.
        -11    1    1    0    0    0 -0.11614090271E+02  0.74236902824E+01  0.61711493416E+01  0.15102362553E+02  0.51100000000E-03 0. -1.
         11    1    1    0    0    0 -0.36439981883E+02  0.23318932845E+02  0.19362107128E+02  0.47397638141E+02  0.51100000000E-03 0.  1.
         22    1    1    0    0    0  0.48054072154E+02 -0.30742623128E+02 -0.25533256469E+02  0.62499999306E+02  0.00000000000E+00 0.  1.
</event>
<event>
 4    1  0.1976955E-002  0.9118800E+02  0.7818608E-02  0.1130116E+00
         25   -1    0    0    0    0  0.00000000000E+00  0.00000000000E+00  0.99999998245E-14  0.12500000000E+03  0.12500000000E+03 0.  0.
        -11    1    1    0    0    0 -0.18958911114E+02 -0.54353996083E+01 -0.69635108356E+01  0.20915887812E+02  0.51100000000E-03 0. -1.
         11    1    1    0    0    0 -0.37963249948E+02 -0.10805409445E+02 -0.13091230649E+02  0.41585400564E+02  0.51100000000E-03 0.  1.
         22    1    1    0    0    0  0.56922161062E+02  0.16240809053E+02  0.20054741484E+02  0.62498711624E+02  0.00000000000E+00 0.  1.
</event>
<event>
 4    1  0.1976955E-002  0.9118800E+02  0.7818608E-02  0.1130116E+00
         25   -1    0    0    0    0  0.00000000000E+00  0.00000000000E+00  0.99999998245E-14  0.12500000000E+03  0.12500000000E+03 0.  0.
        -11    1    1    0    0    0  0.16487697888E+02 -0.18085429614E+01 -0.31228174784E+02  0.35359778136E+02  0.51100000000E-03 0.  1.
         11    1    1    0    0    0  0.12208412895E+02 -0.65118678484E+00 -0.24235354145E+02  0.27144461322E+02  0.51100000000E-03 0. -1.
         22    1    1    0    0    0 -0.28696110783E+02  0.24597297462E+01  0.55463528929E+02  0.62495760542E+02  0.00000000000E+00 0.  1.
</event>
<event>
 4    1  0.1976955E-002  0.9118800E+02  0.7818608E-02  0.1130116E+00
         25   -1    0    0    0    0  0.00000000000E+00  0.00000000000E+00  0.99999998245E-14  0.12500000000E+03  0.12500000000E+03 0.  0.
        -11    1    1    0    0    0  0.33991017417E+02 -0.12070669608E+01  0.47704089276E+02  0.58587766723E+02  0.51100000000E-03 0.  1.
         11    1    1    0    0    0  0.26822460417E+01  0.31158947928E+00  0.28660163384E+01  0.39377127555E+01  0.51100000000E-03 0. -1.
         22    1    1    0    0    0 -0.36673263458E+02  0.89547748154E+00 -0.50570105614E+02  0.62474520522E+02  0.00000000000E+00 0.  1.
</event>
<event>
 4    1  0.1976955E-002  0.9118800E+02  0.7818608E-02  0.1130116E+00
         25   -1    0    0    0    0  0.00000000000E+00  0.00000000000E+00  0.99999998245E-14  0.12500000000E+03  0.12500000000E+03 0.  0.
        -11    1    1    0    0    0  0.39773426407E+02  0.25353474520E+02 -0.28906688070E+02  0.55320165707E+02  0.51100000000E-03 0.  1.
         11    1    1    0    0    0  0.51595831072E+01  0.32906295566E+01 -0.37550615650E+01  0.71798348405E+01  0.51100000000E-03 0. -1.
         22    1    1    0    0    0 -0.44933009514E+02 -0.28644104077E+02  0.32661749635E+02  0.62499999453E+02  0.00000000000E+00 0.  1.
</event>
<event>
 4    1  0.1976955E-002  0.9118800E+02  0.7818608E-02  0.1130116E+00
         25   -1    0    0    0    0  0.00000000000E+00  0.00000000000E+00  0.99999998245E-14  0.12500000000E+03  0.12500000000E+03 0.  0.
        -11    1    1    0    0    0  0.34913525774E+01 -0.13359643415E+02  0.70074956816E+00  0.13826086403E+02  0.51100000000E-03 0.  1.
         11    1    1    0    0    0  0.11651636644E+01 -0.48159966636E+02  0.81113950829E+01  0.48852172144E+02  0.51100000000E-03 0. -1.
         22    1    1    0    0    0 -0.46565162417E+01  0.61519610051E+02 -0.88121446511E+01  0.62321741453E+02  0.00000000000E+00 0. -1.
</event>
<event>
 4    1  0.1976955E-002  0.9118800E+02  0.7818608E-02  0.1130116E+00
         25   -1    0    0    0    0  0.00000000000E+00  0.00000000000E+00  0.99999998245E-14  0.12500000000E+03  0.12500000000E+03 0.  0.
        -11    1    1    0    0    0  0.12686440371E+02  0.29490420429E+02  0.93271549903E+01  0.33430921119E+02  0.51100000000E-03 0. -1.
         11    1    1    0    0    0 -0.59632710211E+01  0.29611472036E+02 -0.10769878796E+02  0.32068522993E+02  0.51100000000E-03 0.  1.
         22    1    1    0    0    0 -0.67231693495E+01 -0.59101892465E+02  0.14427238059E+01  0.59500555888E+02  0.00000000000E+00 0.  1.
</event>
<event>
 4    1  0.1976955E-002  0.9118800E+02  0.7818608E-02  0.1130116E+00
         25   -1    0    0    0    0  0.00000000000E+00  0.00000000000E+00  0.99999998245E-14  0.12500000000E+03  0.12500000000E+03 0.  0.
        -11    1    1    0    0    0  0.37250821131E+02 -0.30642448871E+02  0.59998514735E+01  0.48606394288E+02  0.51100000000E-03 0. -1.
         11    1    1    0    0    0  0.10637755440E+02 -0.87755885093E+01  0.16911106172E+01  0.13893619034E+02  0.51100000000E-03 0.  1.
         22    1    1    0    0    0 -0.47888576571E+02  0.39418037380E+02 -0.76909620906E+01  0.62499986678E+02  0.00000000000E+00 0. -1.
</event>
<event>
 4    1  0.1976955E-002  0.9118800E+02  0.7818608E-02  0.1130116E+00
         25   -1    0    0    0    0  0.00000000000E+00  0.00000000000E+00  0.99999998245E-14  0.12500000000E+03  0.12500000000E+03 0.  0.
        -11    1    1    0    0    0 -0.24239426251E+02 -0.15480837355E+02  0.13062029395E+02  0.31588332061E+02  0.51100000000E-03 0. -1.
         11    1    1    0    0    0 -0.23773862323E+02 -0.15085307891E+02  0.12758137706E+02  0.30911698787E+02  0.51100000000E-03 0.  1.
         22    1    1    0    0    0  0.48013288575E+02  0.30566145245E+02 -0.25820167101E+02  0.62499969152E+02  0.00000000000E+00 0.  1.
</event>
<event>
 4    1  0.1976955E-002  0.9118800E+02  0.7818608E-02  0.1130116E+00
         25   -1    0    0    0    0  0.00000000000E+00  0.00000000000E+00  0.99999998245E-14  0.12500000000E+03  0.12500000000E+03 0.  0.
        -11    1    1    0    0    0 -0.20623902987E+02 -0.20628226630E+02  0.43766702996E+02  0.52596515091E+02  0.51100000000E-03 0.  1.
         11    1    1    0    0    0 -0.40989252248E+01 -0.39506061533E+01  0.81055332992E+01  0.99049556941E+01  0.51100000000E-03 0. -1.
         22    1    1    0    0    0  0.24722828212E+02  0.24578832783E+02 -0.51872236295E+02  0.62498529215E+02  0.00000000000E+00 0.  1.
</event>
<event>
 4    1  0.1976955E-002  0.9118800E+02  0.7818608E-02  0.1130116E+00
         25   -1    0    0    0    0  0.00000000000E+00  0.00000000000E+00  0.99999998245E-14  0.12500000000E+03  0.12500000000E+03 0.  0.
        -11    1    1    0    0    0 -0.25710626231E+02 -0.33011084971E+02 -0.28949324307E+02  0.50880560239E+02  0.51100000000E-03 0.  1.
         11    1    1    0    0    0 -0.58718450578E+01 -0.75388448549E+01 -0.66104942579E+01  0.11619439777E+02  0.51100000000E-03 0.  1.
         22    1    1    0    0    0  0.31582471289E+02  0.40549929826E+02  0.35559818565E+02  0.62499999984E+02  0.00000000000E+00 0.  1.
</event>
<event>
 4    1  0.1976955E-002  0.9118800E+02  0.7818608E-02  0.1130116E+00
         25   -1    0    0    0    0  0.00000000000E+00  0.00000000000E+00  0.99999998245E-14  0.12500000000E+03  0.12500000000E+03 0.  0.
        -11    1    1    0    0    0  0.15877098256E+02  0.91753170648E+01  0.12088630573E+02  0.21963690074E+02  0.51100000000E-03 0. -1.
         11    1    1    0    0    0  0.29009599049E+02  0.16982988156E+02  0.22655022539E+02  0.40536758259E+02  0.51100000000E-03 0.  1.
         22    1    1    0    0    0 -0.44886697305E+02 -0.26158305221E+02 -0.34743653112E+02  0.62499551667E+02  0.00000000000E+00 0. -1.
</event>
<event>
 4    1  0.1976955E-002  0.9118800E+02  0.7818608E-02  0.1130116E+00
         25   -1    0    0    0    0  0.00000000000E+00  0.00000000000E+00  0.99999998245E-14  0.12500000000E+03  0.12500000000E+03 0.  0.
        -11    1    1    0    0    0  0.27120488220E+02 -0.18512561881E+02 -0.38800791695E+01  0.33064948863E+02  0.51100000000E-03 0.  1.
         11    1    1    0    0    0  0.24068196265E+02 -0.16522668247E+02 -0.37647150545E+01  0.29435517953E+02  0.51100000000E-03 0. -1.
         22    1    1    0    0    0 -0.51188684485E+02  0.35035230128E+02  0.76447942240E+01  0.62499533184E+02  0.00000000000E+00 0.  1.
</event>
<event>
 4    1  0.1976955E-002  0.9118800E+02  0.7818608E-02  0.1130116E+00
         25   -1    0    0    0    0  0.00000000000E+00  0.00000000000E+00  0.99999998245E-14  0.12500000000E+03  0.12500000000E+03 0.  0.
        -11    1    1    0    0    0  0.86028804769E+00  0.22230275473E+01  0.24676942208E+01  0.34309564307E+01  0.51100000000E-03 0.  1.
         11    1    1    0    0    0  0.14822754578E+02  0.38268601903E+02  0.42484726309E+02  0.59069043625E+02  0.51100000000E-03 0.  1.
         22    1    1    0    0    0 -0.15683042626E+02 -0.40491629451E+02 -0.44952420530E+02  0.62499999945E+02  0.00000000000E+00 0.  1.
</event>
<event>
 4    1  0.1976955E-002  0.9118800E+02  0.7818608E-02  0.1130116E+00
         25   -1    0    0    0    0  0.00000000000E+00  0.00000000000E+00  0.99999998245E-14  0.12500000000E+03  0.12500000000E+03 0.  0.
        -11    1    1    0    0    0 -0.24437390529E+02  0.10180876234E+02 -0.38603337013E+02  0.46808694979E+02  0.51100000000E-03 0.  1.
         11    1    1    0    0    0 -0.81728442712E+01  0.34276827992E+01 -0.12948857261E+02  0.15691312803E+02  0.51100000000E-03 0. -1.
         22    1    1    0    0    0  0.32610234800E+02 -0.13608559034E+02  0.51552194275E+02  0.62499992218E+02  0.00000000000E+00 0.  1.
</event>
<event>
 4    1  0.1976955E-002  0.9118800E+02  0.7818608E-02  0.1130116E+00
         25   -1    0    0    0    0  0.00000000000E+00  0.00000000000E+00  0.99999998245E-14  0.12500000000E+03  0.12500000000E+03 0.  0.
        -11    1    1    0    0    0  0.23845103071E+02  0.19126626429E+02 -0.16438769925E+02  0.34708067304E+02  0.51100000000E-03 0. -1.
         11    1    1    0    0    0  0.19109845588E+02  0.15325355358E+02 -0.13127804636E+02  0.27791940739E+02  0.51100000000E-03 0.  1.
         22    1    1    0    0    0 -0.42954948659E+02 -0.34451981787E+02  0.29566574561E+02  0.62499991957E+02  0.00000000000E+00 0.  1.
</event>
<event>
 4    1  0.1976955E-002  0.9118800E+02  0.7818608E-02  0.1130116E+00
         25   -1    0    0    0    0  0.00000000000E+00  0.00000000000E+00  0.99999998245E-14  0.12500000000E+03  0.12500000000E+03 0.  0.
        -11    1    1    0    0    0  0.43968867038E+01 -0.31445399476E+02  0.37567312428E+01  0.31972782031E+02  0.51100000000E-03 0.  1.
         11    1    1    0    0    0  0.39939429839E+01 -0.30230539319E+02 -0.42029807676E+01  0.30781522634E+02  0.51100000000E-03 0. -1.
         22    1    1    0    0    0 -0.83908296877E+01  0.61675938795E+02  0.44624952477E+00  0.62245695335E+02  0.00000000000E+00 0.  1.
</event>
<event>
 4    1  0.1976955E-002  0.9118800E+02  0.7818608E-02  0.1130116E+00
         25   -1    0    0    0    0  0.00000000000E+00  0.00000000000E+00  0.99999998245E-14  0.12500000000E+03  0.12500000000E+03 0.  0.
        -11    1    1    0    0    0 -0.24824959133E+00  0.16296461887E+01  0.70474643996E+00  0.17927750460E+01  0.51100000000E-03 0.  1.
         11    1    1    0    0    0 -0.83836283929E+01  0.55187557545E+02  0.23862427385E+02  0.60707225055E+02  0.51100000000E-03 0. -1.
         22    1    1    0    0    0  0.86318779842E+01 -0.56817203734E+02 -0.24567173825E+02  0.62499999899E+02  0.00000000000E+00 0. -1.
</event>
<event>
 4    1  0.1976955E-002  0.9118800E+02  0.7818608E-02  0.1130116E+00
         25   -1    0    0    0    0  0.00000000000E+00  0.00000000000E+00  0.99999998245E-14  0.12500000000E+03  0.12500000000E+03 0.  0.
        -11    1    1    0    0    0  0.10946254178E+02 -0.40475264191E+02 -0.31132150494E+02  0.52223350012E+02  0.51100000000E-03 0.  1.
         11    1    1    0    0    0  0.21532707771E+01 -0.79665877013E+01 -0.61242504404E+01  0.10276650153E+02  0.51100000000E-03 0. -1.
         22    1    1    0    0    0 -0.13099524955E+02  0.48441851892E+02  0.37256400934E+02  0.62499999835E+02  0.00000000000E+00 0.  1.
</event>
<event>
 4    1  0.1976955E-002  0.9118800E+02  0.7818608E-02  0.1130116E+00
         25   -1    0    0    0    0  0.00000000000E+00  0.00000000000E+00  0.99999998245E-14  0.12500000000E+03  0.12500000000E+03 0.  0.
        -11    1    1    0    0    0 -0.21287718630E+01  0.23572765300E+02  0.41438314416E+02  0.47721492385E+02  0.51100000000E-03 0. -1.
         11    1    1    0    0    0 -0.97318003304E+00  0.74100500840E+01  0.12751201808E+02  0.14780022647E+02  0.51100000000E-03 0.  1.
         22    1    1    0    0    0  0.31019518960E+01 -0.30982815384E+02 -0.54189516225E+02  0.62498484968E+02  0.00000000000E+00 0. -1.
</event>
<event>
 4    1  0.1976955E-002  0.9118800E+02  0.7818608E-02  0.1130116E+00
         25   -1    0    0    0    0  0.00000000000E+00  0.00000000000E+00  0.99999998245E-14  0.12500000000E+03  0.12500000000E+03 0.  0.
        -11    1    1    0    0    0 -0.16037882730E+00  0.42688971470E+00 -0.52350310659E+00  0.69427081207E+00  0.51100000000E-03 0. -1.
         11    1    1    0    0    0 -0.14563528357E+02  0.37866002743E+02 -0.46626368203E+02  0.61805733828E+02  0.51100000000E-03 0.  1.
         22    1    1    0    0    0  0.14723907184E+02 -0.38292892458E+02  0.47149871309E+02  0.62499995360E+02  0.00000000000E+00 0.  1.
</event>
<event>
 4    1  0.1976955E-002  0.9118800E+02  0.7818608E-02  0.1130116E+00
         25   -1    0    0    0    0  0.00000000000E+00  0.00000000000E+00  0.99999998245E-14  0.12500000000E+03  0.12500000000E+03 0.  0.
        -11    1    1    0    0    0 -0.85172207086E+01  0.20804746082E+02  0.28304896570E+02  0.36146198669E+02  0.51100000000E-03 0.  1.
         11    1    1    0    0    0 -0.62097953474E+01  0.15168287109E+02  0.20636965681E+02  0.26353801336E+02  0.51100000000E-03 0.  1.
         22    1    1    0    0    0  0.14727016056E+02 -0.35973033191E+02 -0.48941862250E+02  0.62499999995E+02  0.00000000000E+00 0.  1.
</event>
<event>
 4    1  0.1976955E-002  0.9118800E+02  0.7818608E-02  0.1130116E+00
         25   -1    0    0    0    0  0.00000000000E+00  0.00000000000E+00  0.99999998245E-14  0.12500000000E+03  0.12500000000E+03 0.  0.
        -11    1    1    0    0    0 -0.73142407263E+01  0.41385414967E+02  0.42744983007E+02  0.59944843497E+02  0.51100000000E-03 0.  1.
         11    1    1    0    0    0 -0.74986643490E+00  0.14252115255E+01  0.20255412493E+01  0.25877297340E+01  0.51100000000E-03 0. -1.
         22    1    1    0    0    0  0.80641071612E+01 -0.42810626492E+02 -0.44770524256E+02  0.62467426769E+02  0.00000000000E+00 0.  1.
</event>
<event>
 4    1  0.1976955E-002  0.9118800E+02  0.7818608E-02  0.1130116E+00
         25   -1    0    0    0    0  0.00000000000E+00  0.00000000000E+00  0.99999998245E-14  0.12500000000E+03  0.12500000000E+03 0.  0.
        -11    1    1    0    0    0 -0.18986549642E+02  0.26089459920E+02 -0.22510505434E+02  0.39343002444E+02  0.51100000000E-03 0. -1.
         11    1    1    0    0    0 -0.28537404258E+01  0.24838854420E+02 -0.19634541165E+01  0.25079227972E+02  0.51100000000E-03 0.  1.
         22    1    1    0    0    0  0.21840290068E+02 -0.50928314340E+02  0.24473959550E+02  0.60577769584E+02  0.00000000000E+00 0.  1.
</event>
<event>
 4    1  0.1976955E-002  0.9118800E+02  0.7818608E-02  0.1130116E+00
         25   -1    0    0    0    0  0.00000000000E+00  0.00000000000E+00  0.99999998245E-14  0.12500000000E+03  0.12500000000E+03 0.  0.
        -11    1    1    0    0    0 -0.32577928591E+01  0.17123250540E+01 -0.22010312430E+01  0.42883341984E+01  0.51100000000E-03 0.  1.
         11    1    1    0    0    0 -0.44204954479E+02  0.23272376130E+02 -0.29881709876E+02  0.58211666155E+02  0.51100000000E-03 0. -1.
         22    1    1    0    0    0  0.47462747338E+02 -0.24984701184E+02  0.32082741119E+02  0.62499999646E+02  0.00000000000E+00 0. -1.
</event>
<event>
 4    1  0.1976955E-002  0.9118800E+02  0.7818608E-02  0.1130116E+00
         25   -1    0    0    0    0  0.00000000000E+00  0.00000000000E+00  0.99999998245E-14  0.12500000000E+03  0.12500000000E+03 0.  0.
        -11    1    1    0    0    0  0.25095892238E+01  0.38832478991E+01 -0.35666884778E+01  0.58394279922E+01  0.51100000000E-03 0.  1.
         11    1    1    0    0    0  0.23282708333E+02  0.37811365697E+02 -0.35195266140E+02  0.56661191675E+02  0.51100000000E-03 0. -1.
         22    1    1    0    0    0 -0.25792297556E+02 -0.41694613596E+02  0.38761954617E+02  0.62499380332E+02  0.00000000000E+00 0. -1.
</event>
<event>
 4    1  0.1976955E-002  0.9118800E+02  0.7818608E-02  0.1130116E+00
         25   -1    0    0    0    0  0.00000000000E+00  0.00000000000E+00  0.99999998245E-14  0.12500000000E+03  0.12500000000E+03 0.  0.
        -11    1    1    0    0    0  0.23129269872E+01 -0.79650334962E-01 -0.34797045976E+00  0.23403117583E+01  0.51100000000E-03 0.  1.
         11    1    1    0    0    0  0.59471877230E+02 -0.21230607551E+01 -0.88191230956E+01  0.60159691661E+02  0.51100000000E-03 0. -1.
         22    1    1    0    0    0 -0.61784804218E+02  0.22027110901E+01  0.91670935553E+01  0.62499996581E+02  0.00000000000E+00 0. -1.
</event>
<event>
 4    1  0.1976955E-002  0.9118800E+02  0.7818608E-02  0.1130116E+00
         25   -1    0    0    0    0  0.00000000000E+00  0.00000000000E+00  0.99999998245E-14  0.12500000000E+03  0.12500000000E+03 0.  0.
        -11    1    1    0    0    0  0.20596264503E+02  0.30350582176E+01  0.45031483937E+02  0.49611009218E+02  0.51100000000E-03 0. -1.
         11    1    1    0    0    0  0.53688496706E+01  0.81883446584E+00  0.11688951231E+02  0.12889011514E+02  0.51100000000E-03 0.  1.
         22    1    1    0    0    0 -0.25965114173E+02 -0.38538926834E+01 -0.56720435168E+02  0.62499979268E+02  0.00000000000E+00 0. -1.
</event>
<event>
 4    1  0.1976955E-002  0.9118800E+02  0.7818608E-02  0.1130116E+00
         25   -1    0    0    0    0  0.00000000000E+00  0.00000000000E+00  0.99999998245E-14  0.12500000000E+03  0.12500000000E+03 0.  0.
        -11    1    1    0    0    0 -0.16310748075E+01 -0.21861478385E+02  0.34720645487E+02  0.41062243796E+02  0.51100000000E-03 0. -1.
         11    1    1    0    0    0 -0.75599831100E+00 -0.11514128351E+02  0.18067600638E+02  0.21437930828E+02  0.51100000000E-03 0.  1.
         22    1    1    0    0    0  0.23870731185E+01  0.33375606736E+02 -0.52788246125E+02  0.62499825376E+02  0.00000000000E+00 0. -1.
</event>
<event>
 4    1  0.1976955E-002  0.9118800E+02  0.7818608E-02  0.1130116E+00
         25   -1    0    0    0    0  0.00000000000E+00  0.00000000000E+00  0.99999998245E-14  0.12500000000E+03  0.12500000000E+03 0.  0.
        -11    1    1    0    0    0 -0.27020996712E+02 -0.81606411374E+01  0.20563928866E+02  0.34922850653E+02  0.51100000000E-03 0.  1.
         11    1    1    0    0    0 -0.21568246902E+02 -0.68530828673E+01  0.15762929722E+02  0.27579412120E+02  0.51100000000E-03 0. -1.
         22    1    1    0    0    0  0.48589243614E+02  0.15013724005E+02 -0.36326858588E+02  0.62497737226E+02  0.00000000000E+00 0. -1.
</event>
<event>
 4    1  0.1976955E-002  0.9118800E+02  0.7818608E-02  0.1130116E+00
         25   -1    0    0    0    0  0.00000000000E+00  0.00000000000E+00  0.99999998245E-14  0.12500000000E+03  0.12500000000E+03 0.  0.
        -11    1    1    0    0    0  0.28027483416E+01 -0.15132453482E+02  0.70117708606E+01  0.16911873861E+02  0.51100000000E-03 0.  1.
         11    1    1    0    0    0  0.75533471425E+01 -0.40785973017E+02  0.18913715209E+02  0.45588126429E+02  0.51100000000E-03 0. -1.
         22    1    1    0    0    0 -0.10356095484E+02  0.55918426499E+02 -0.25925486069E+02  0.62499999710E+02  0.00000000000E+00 0.  1.
</event>
<event>
 4    1  0.1976955E-002  0.9118800E+02  0.7818608E-02  0.1130116E+00
         25   -1    0    0    0    0  0.00000000000E+00  0.00000000000E+00  0.99999998245E-14  0.12500000000E+03  0.12500000000E+03 0.  0.
        -11    1    1    0    0    0  0.46973238641E+02  0.13037879774E+02  0.37008747768E+01  0.48889343745E+02  0.51100000000E-03 0.  1.
         11    1    1    0    0    0  0.12643269868E+02  0.49213635913E+01  0.13992027118E+01  0.13639276412E+02  0.51100000000E-03 0. -1.
         22    1    1    0    0    0 -0.59616508509E+02 -0.17959243365E+02 -0.51000774886E+01  0.62471379843E+02  0.00000000000E+00 0.  1.
</event>
<event>
 4    1  0.1976955E-002  0.9118800E+02  0.7818608E-02  0.1130116E+00
         25   -1    0    0    0    0  0.00000000000E+00  0.00000000000E+00  0.99999998245E-14  0.12500000000E+03  0.12500000000E+03 0.  0.
        -11    1    1    0    0    0  0.33693565713E+02  0.65711668354E+01 -0.17102309499E+02  0.38352647816E+02  0.51100000000E-03 0. -1.
         11    1    1    0    0    0  0.21214121789E+02  0.41399491931E+01 -0.10766451486E+02  0.24147352246E+02  0.51100000000E-03 0.  1.
         22    1    1    0    0    0 -0.54907687502E+02 -0.10711116029E+02  0.27868760985E+02  0.62499999938E+02  0.00000000000E+00 0. -1.
</event>
<event>
 4    1  0.1976955E-002  0.9118800E+02  0.7818608E-02  0.1130116E+00
         25   -1    0    0    0    0  0.00000000000E+00  0.00000000000E+00  0.99999998245E-14  0.12500000000E+03  0.12500000000E+03 0.  0.
        -11    1    1    0    0    0  0.34009929017E+02 -0.41853686294E+02  0.25082966114E+02  0.59477403419E+02  0.51100000000E-03 0.  1.
         11    1    1    0    0    0  0.17232438279E+01 -0.21300369722E+01  0.12765115182E+01  0.30225996610E+01  0.51100000000E-03 0. -1.
         22    1    1    0    0    0 -0.35733172845E+02  0.43983723266E+02 -0.26359477632E+02  0.62499996920E+02  0.00000000000E+00 0.  1.
</event>
<event>
 4    1  0.1976955E-002  0.9118800E+02  0.7818608E-02  0.1130116E+00
         25   -1    0    0    0    0  0.00000000000E+00  0.00000000000E+00  0.99999998245E-14  0.12500000000E+03  0.12500000000E+03 0.  0.
        -11    1    1    0    0    0 -0.27695414143E+02 -0.43309635936E+02 -0.35538285617E+02  0.62495842056E+02  0.51100000000E-03 0. -1.
         11    1    1    0    0    0 -0.20060908349E-02 -0.36858146358E-02 -0.94943890612E-03  0.43326879883E-02  0.51100000000E-03 0.  1.
         22    1    1    0    0    0  0.27697420233E+02  0.43313321750E+02  0.35539235056E+02  0.62499825256E+02  0.00000000000E+00 0. -1.
</event>
<event>
 4    1  0.1976955E-002  0.9118800E+02  0.7818608E-02  0.1130116E+00
         25   -1    0    0    0    0  0.00000000000E+00  0.00000000000E+00  0.99999998245E-14  0.12500000000E+03  0.12500000000E+03 0.  0.
        -11    1    1    0    0    0 -0.14257754403E+02  0.18160912931E+02  0.21042051421E+02  0.31238921994E+02  0.51100000000E-03 0.  1.
         11    1    1    0    0    0 -0.14268840972E+02  0.18145120802E+02  0.21081036902E+02  0.31261083614E+02  0.51100000000E-03 0. -1.
         22    1    1    0    0    0  0.28526595375E+02 -0.36306033733E+02 -0.42123088322E+02  0.62499994392E+02  0.00000000000E+00 0. -1.
</event>
<event>
 4    1  0.1976955E-002  0.9118800E+02  0.7818608E-02  0.1130116E+00
         25   -1    0    0    0    0  0.00000000000E+00  0.00000000000E+00  0.99999998245E-14  0.12500000000E+03  0.12500000000E+03 0.  0.
        -11    1    1    0    0    0 -0.15772112231E+02  0.59130148691E+02  0.10609804913E+02  0.62110401455E+02  0.51100000000E-03 0. -1.
         11    1    1    0    0    0  0.17620023874E+00  0.33102784405E+00  0.26957550081E+00  0.46184106512E+00  0.51100000000E-03 0.  1.
         22    1    1    0    0    0  0.15595911992E+02 -0.59461176535E+02 -0.10879380414E+02  0.62427757480E+02  0.00000000000E+00 0. -1.
</event>
<event>
 4    1  0.1976955E-002  0.9118800E+02  0.7818608E-02  0.1130116E+00
         25   -1    0    0    0    0  0.00000000000E+00  0.00000000000E+00  0.99999998245E-14  0.12500000000E+03  0.12500000000E+03 0.  0.
        -11    1    1    0    0    0  0.13975659907E+02 -0.10645361084E+02  0.29369652577E+02  0.34223081030E+02  0.51100000000E-03 0.  1.
         11    1    1    0    0    0  0.11519895255E+02 -0.88211989298E+01  0.24270620057E+02  0.28276925849E+02  0.51100000000E-03 0. -1.
         22    1    1    0    0    0 -0.25495555163E+02  0.19466560014E+02 -0.53640272634E+02  0.62499993121E+02  0.00000000000E+00 0. -1.
</event>
<event>
 4    1  0.1976955E-002  0.9118800E+02  0.7818608E-02  0.1130116E+00
         25   -1    0    0    0    0  0.00000000000E+00  0.00000000000E+00  0.99999998245E-14  0.12500000000E+03  0.12500000000E+03 0.  0.
        -11    1    1    0    0    0 -0.10660733261E+01  0.71434197313E+00 -0.81304351502E+01  0.82310857597E+01  0.51100000000E-03 0. -1.
         11    1    1    0    0    0 -0.68710453753E+01  0.47139575299E+01 -0.53625404986E+02  0.54268929603E+02  0.51100000000E-03 0.  1.
         22    1    1    0    0    0  0.79371187014E+01 -0.54282995031E+01  0.61755840136E+02  0.62499984637E+02  0.00000000000E+00 0.  1.
</event>
<event>
 4    1  0.1976955E-002  0.9118800E+02  0.7818608E-02  0.1130116E+00
         25   -1    0    0    0    0  0.00000000000E+00  0.00000000000E+00  0.99999998245E-14  0.12500000000E+03  0.12500000000E+03 0.  0.
        -11    1    1    0    0    0  0.31666112850E+01 -0.28837581032E+01 -0.22401873429E+02  0.22807617614E+02  0.51100000000E-03 0.  1.
         11    1    1    0    0    0  0.50408327330E+01 -0.52939171854E+01 -0.39014150644E+02  0.39693066202E+02  0.51100000000E-03 0. -1.
         22    1    1    0    0    0 -0.82074440180E+01  0.81776752886E+01  0.61416024073E+02  0.62499316184E+02  0.00000000000E+00 0. -1.
</event>
<event>
 4    1  0.1976955E-002  0.9118800E+02  0.7818608E-02  0.1130116E+00
         25   -1    0    0    0    0  0.00000000000E+00  0.00000000000E+00  0.99999998245E-14  0.12500000000E+03  0.12500000000E+03 0.  0.
        -11    1    1    0    0    0 -0.21605898876E+01  0.21428339887E+01  0.28673712765E+01  0.41811128260E+01  0.51100000000E-03 0. -1.
         11    1    1    0    0    0 -0.30051737946E+02  0.29948004351E+02  0.40013785801E+02  0.58318890357E+02  0.51100000000E-03 0.  1.
         22    1    1    0    0    0  0.32212327833E+02 -0.32090838339E+02 -0.42881157077E+02  0.62499996816E+02  0.00000000000E+00 0.  1.
</event>
<event>
 4    1  0.1976955E-002  0.9118800E+02  0.7818608E-02  0.1130116E+00
         25   -1    0    0    0    0  0.00000000000E+00  0.00000000000E+00  0.99999998245E-14  0.12500000000E+03  0.12500000000E+03 0.  0.
        -11    1    1    0    0    0  0.12177010954E+02  0.38986059864E+01 -0.23686376695E+02  0.26916967987E+02  0.51100000000E-03 0. -1.
         11    1    1    0    0    0  0.15842612162E+02  0.65465943662E+01 -0.31188795198E+02  0.35589144469E+02  0.51100000000E-03 0.  1.
         22    1    1    0    0    0 -0.28019623116E+02 -0.10445200353E+02  0.54875171893E+02  0.62493887543E+02  0.00000000000E+00 0.  1.
</event>
<event>
 4    1  0.1976955E-002  0.9118800E+02  0.7818608E-02  0.1130116E+00
         25   -1    0    0    0    0  0.00000000000E+00  0.00000000000E+00  0.99999998245E-14  0.12500000000E+03  0.12500000000E+03 0.  0.
        -11    1    1    0    0    0  0.21548663738E+02  0.47159352936E+02  0.45288887576E+01  0.52046712787E+02  0.51100000000E-03 0.  1.
         11    1    1    0    0    0  0.93689535021E+00  0.10612067445E+02  0.10751666647E+01  0.10707461509E+02  0.51100000000E-03 0. -1.
         22    1    1    0    0    0 -0.22485559088E+02 -0.57771420381E+02 -0.56040554223E+01  0.62245825704E+02  0.00000000000E+00 0.  1.
</event>
<event>
 4    1  0.1976955E-002  0.9118800E+02  0.7818608E-02  0.1130116E+00
         25   -1    0    0    0    0  0.00000000000E+00  0.00000000000E+00  0.99999998245E-14  0.12500000000E+03  0.12500000000E+03 0.  0.
        -11    1    1    0    0    0  0.14720601414E+02  0.26511785505E+02  0.34327528428E+02  0.45803385081E+02  0.51100000000E-03 0. -1.
         11    1    1    0    0    0  0.56545108784E+01  0.97289371412E+01  0.12336721116E+02  0.16697916018E+02  0.51100000000E-03 0.  1.
         22    1    1    0    0    0 -0.20375112292E+02 -0.36240722646E+02 -0.46664249544E+02  0.62498698901E+02  0.00000000000E+00 0. -1.
</event>
<event>
 4    1  0.1976955E-002  0.9118800E+02  0.7818608E-02  0.1130116E+00
         25   -1    0    0    0    0  0.00000000000E+00  0.00000000000E+00  0.99999998245E-14  0.12500000000E+03  0.12500000000E+03 0.  0.
        -11    1    1    0    0    0  0.67208447574E+01 -0.40341017785E+01  0.21688507316E+02  0.23061549845E+02  0.51100000000E-03 0. -1.
         11    1    1    0    0    0  0.22758164023E+02 -0.14180092873E+02  0.29664670780E+02  0.39987520008E+02  0.51100000000E-03 0.  1.
         22    1    1    0    0    0 -0.29479008781E+02  0.18214194651E+02 -0.51353178096E+02  0.61950930147E+02  0.00000000000E+00 0. -1.
</event>
<event>
 4    1  0.1976955E-002  0.9118800E+02  0.7818608E-02  0.1130116E+00
         25   -1    0    0    0    0  0.00000000000E+00  0.00000000000E+00  0.99999998245E-14  0.12500000000E+03  0.12500000000E+03 0.  0.
        -11    1    1    0    0    0 -0.53540628186E+01 -0.11072366470E+02  0.25355931638E+02  0.28181315750E+02  0.51100000000E-03 0. -1.
         11    1    1    0    0    0 -0.16847737362E+02 -0.49015315070E+01  0.30181687181E+02  0.34911395083E+02  0.51100000000E-03 0.  1.
         22    1    1    0    0    0  0.22201800181E+02  0.15973897977E+02 -0.55537618819E+02  0.61907289166E+02  0.00000000000E+00 0.  1.
</event>
<event>
 4    1  0.1976955E-002  0.9118800E+02  0.7818608E-02  0.1130116E+00
         25   -1    0    0    0    0  0.00000000000E+00  0.00000000000E+00  0.99999998245E-14  0.12500000000E+03  0.12500000000E+03 0.  0.
        -11    1    1    0    0    0 -0.11907908495E+02 -0.55391245339E+01  0.45653556431E+01  0.13904051846E+02  0.51100000000E-03 0. -1.
         11    1    1    0    0    0 -0.41636452927E+02 -0.19352988823E+02  0.15919609815E+02  0.48595950095E+02  0.51100000000E-03 0.  1.
         22    1    1    0    0    0  0.53544361422E+02  0.24892113357E+02 -0.20484965458E+02  0.62499998059E+02  0.00000000000E+00 0.  1.
</event>
<event>
 4    1  0.1976955E-002  0.9118800E+02  0.7818608E-02  0.1130116E+00
         25   -1    0    0    0    0  0.00000000000E+00  0.00000000000E+00  0.99999998245E-14  0.12500000000E+03  0.12500000000E+03 0.  0.
        -11    1    1    0    0    0 -0.30451424471E+02 -0.30274802606E+02 -0.25266813449E+02  0.49822332215E+02  0.51100000000E-03 0. -1.
         11    1    1    0    0    0  0.16275304069E+02 -0.15706799052E+02  0.65419717400E+01  0.23545412579E+02  0.51100000000E-03 0.  1.
         22    1    1    0    0    0  0.14176120402E+02  0.45981601658E+02  0.18724841709E+02  0.51632255207E+02  0.00000000000E+00 0. -1.
</event>
<event>
 4    1  0.1976955E-002  0.9118800E+02  0.7818608E-02  0.1130116E+00
         25   -1    0    0    0    0  0.00000000000E+00  0.00000000000E+00  0.99999998245E-14  0.12500000000E+03  0.12500000000E+03 0.  0.
        -11    1    1    0    0    0 -0.24641535833E+00  0.97319944557E-01  0.91069114578E+00  0.94844626867E+00  0.51100000000E-03 0. -1.
         11    1    1    0    0    0 -0.15362908045E+02  0.57752161708E+01  0.59323075609E+02  0.61551599211E+02  0.51100000000E-03 0.  1.
         22    1    1    0    0    0  0.15609323404E+02 -0.58725361154E+01 -0.60233766755E+02  0.62499954520E+02  0.00000000000E+00 0.  1.
</event>
<event>
 4    1  0.1976955E-002  0.9118800E+02  0.7818608E-02  0.1130116E+00
         25   -1    0    0    0    0  0.00000000000E+00  0.00000000000E+00  0.99999998245E-14  0.12500000000E+03  0.12500000000E+03 0.  0.
        -11    1    1    0    0    0  0.27544470000E+02 -0.58088052626E+01 -0.54088323243E+02  0.60975296290E+02  0.51100000000E-03 0. -1.
         11    1    1    0    0    0  0.12213592213E+01  0.11772840135E+01 -0.80530502531E+00  0.18778265204E+01  0.51100000000E-03 0.  1.
         22    1    1    0    0    0 -0.28765829222E+02  0.46315212491E+01  0.54893628268E+02  0.62146877189E+02  0.00000000000E+00 0. -1.
</event>
<event>
 4    1  0.1976955E-002  0.9118800E+02  0.7818608E-02  0.1130116E+00
         25   -1    0    0    0    0  0.00000000000E+00  0.00000000000E+00  0.99999998245E-14  0.12500000000E+03  0.12500000000E+03 0.  0.
        -11    1    1    0    0    0 -0.13907079188E+02  0.25237849764E+02 -0.14601076977E+02  0.32303983677E+02  0.51100000000E-03 0.  1.
         11    1    1    0    0    0 -0.12994821613E+02  0.23593499372E+02 -0.13648472732E+02  0.30196016452E+02  0.51100000000E-03 0. -1.
         22    1    1    0    0    0  0.26901900801E+02 -0.48831349136E+02  0.28249549709E+02  0.62499999871E+02  0.00000000000E+00 0.  1.
</event>
<event>
 4    1  0.1976955E-002  0.9118800E+02  0.7818608E-02  0.1130116E+00
         25   -1    0    0    0    0  0.00000000000E+00  0.00000000000E+00  0.99999998245E-14  0.12500000000E+03  0.12500000000E+03 0.  0.
        -11    1    1    0    0    0  0.22103949796E+02 -0.46681680013E+02 -0.29524994598E+02  0.59493605974E+02  0.51100000000E-03 0.  1.
         11    1    1    0    0    0  0.11758703826E+01 -0.23677397414E+01 -0.14327935687E+01  0.30069519969E+01  0.51100000000E-03 0. -1.
         22    1    1    0    0    0 -0.23279820179E+02  0.49049419755E+02  0.30957788167E+02  0.62499442030E+02  0.00000000000E+00 0.  1.
</event>
<event>
 4    1  0.1976955E-002  0.9118800E+02  0.7818608E-02  0.1130116E+00
         25   -1    0    0    0    0  0.00000000000E+00  0.00000000000E+00  0.99999998245E-14  0.12500000000E+03  0.12500000000E+03 0.  0.
        -11    1    1    0    0    0 -0.58690019140E+02 -0.80224313940E+01  0.71340612755E+01  0.59663829768E+02  0.51100000000E-03 0. -1.
         11    1    1    0    0    0 -0.27897593105E+01 -0.38123040341E+00  0.34024762218E+00  0.28361703645E+01  0.51100000000E-03 0.  1.
         22    1    1    0    0    0  0.61479778450E+02  0.84036617974E+01 -0.74743088977E+01  0.62499999867E+02  0.00000000000E+00 0. -1.
</event>
<event>
 4    1  0.1976955E-002  0.9118800E+02  0.7818608E-02  0.1130116E+00
         25   -1    0    0    0    0  0.00000000000E+00  0.00000000000E+00  0.99999998245E-14  0.12500000000E+03  0.12500000000E+03 0.  0.
        -11    1    1    0    0    0  0.36378218111E+02  0.61551896792E+01 -0.49350758367E+02  0.61617842096E+02  0.51100000000E-03 0. -1.
         11    1    1    0    0    0 -0.79897314652E+00 -0.18157431827E+01 -0.44010372788E+00  0.20319874377E+01  0.51100000000E-03 0.  1.
         22    1    1    0    0    0 -0.35579244964E+02 -0.43394464965E+01  0.49790862095E+02  0.61350170466E+02  0.00000000000E+00 0. -1.
</event>
<event>
 4    1  0.1976955E-002  0.9118800E+02  0.7818608E-02  0.1130116E+00
         25   -1    0    0    0    0  0.00000000000E+00  0.00000000000E+00  0.99999998245E-14  0.12500000000E+03  0.12500000000E+03 0.  0.
        -11    1    1    0    0    0  0.92266850751E+01 -0.10575783328E+01 -0.38859274759E+01  0.10067304605E+02  0.51100000000E-03 0. -1.
         11    1    1    0    0    0  0.70142199214E+01 -0.38299973760E+02 -0.38569362575E+02  0.54805866482E+02  0.51100000000E-03 0.  1.
         22    1    1    0    0    0 -0.16240904996E+02  0.39357552093E+02  0.42455290051E+02  0.60126828913E+02  0.00000000000E+00 0.  1.
</event>
<event>
 4    1  0.1976955E-002  0.9118800E+02  0.7818608E-02  0.1130116E+00
         25   -1    0    0    0    0  0.00000000000E+00  0.00000000000E+00  0.99999998245E-14  0.12500000000E+03  0.12500000000E+03 0.  0.
        -11    1    1    0    0    0  0.39643690269E+01 -0.62720729830E-01 -0.26776535861E+01  0.47843478824E+01  0.51100000000E-03 0. -1.
         11    1    1    0    0    0  0.47821949947E+02 -0.75863423695E+00 -0.32304521027E+02  0.57715652138E+02  0.51100000000E-03 0. -1.
         22    1    1    0    0    0 -0.51786318974E+02  0.82135496678E+00  0.34982174613E+02  0.62499999980E+02  0.00000000000E+00 0. -1.
</event>
<event>
 4    1  0.1976955E-002  0.9118800E+02  0.7818608E-02  0.1130116E+00
         25   -1    0    0    0    0  0.00000000000E+00  0.00000000000E+00  0.99999998245E-14  0.12500000000E+03  0.12500000000E+03 0.  0.
        -11    1    1    0    0    0  0.37582152454E+01 -0.28601173302E+02  0.49048097105E+02  0.56902259411E+02  0.51100000000E-03 0.  1.
         11    1    1    0    0    0  0.36601131233E+00 -0.32522503836E+01  0.45546187444E+01  0.56085335879E+01  0.51100000000E-03 0. -1.
         22    1    1    0    0    0 -0.41242265577E+01  0.31853423686E+02 -0.53602715850E+02  0.62489207002E+02  0.00000000000E+00 0.  1.
</event>
<event>
 4    1  0.1976955E-002  0.9118800E+02  0.7818608E-02  0.1130116E+00
         25   -1    0    0    0    0  0.00000000000E+00  0.00000000000E+00  0.99999998245E-14  0.12500000000E+03  0.12500000000E+03 0.  0.
        -11    1    1    0    0    0 -0.18626543153E+02 -0.43413546022E+02 -0.31755136974E+02  0.56921637473E+02  0.51100000000E-03 0.  1.
         11    1    1    0    0    0 -0.18203905868E+01 -0.42500470105E+01 -0.31211320718E+01  0.55783677855E+01  0.51100000000E-03 0. -1.
         22    1    1    0    0    0  0.20446933740E+02  0.47663593033E+02  0.34876269045E+02  0.62499994742E+02  0.00000000000E+00 0.  1.
</event>
<event>
 4    1  0.1976955E-002  0.9118800E+02  0.7818608E-02  0.1130116E+00
         25   -1    0    0    0    0  0.00000000000E+00  0.00000000000E+00  0.99999998245E-14  0.12500000000E+03  0.12500000000E+03 0.  0.
        -11    1    1    0    0    0 -0.50904475009E+02 -0.19295889463E+02  0.29807017258E+02  0.62064927328E+02  0.51100000000E-03 0.  1.
         11    1    1    0    0    0 -0.36526352115E+00 -0.12229749504E+00  0.20261445637E+00  0.43523211764E+00  0.51100000000E-03 0. -1.
         22    1    1    0    0    0  0.51269738530E+02  0.19418186958E+02 -0.30009631714E+02  0.62499840555E+02  0.00000000000E+00 0.  1.
</event>
<event>
 4    1  0.1976955E-002  0.9118800E+02  0.7818608E-02  0.1130116E+00
         25   -1    0    0    0    0  0.00000000000E+00  0.00000000000E+00  0.99999998245E-14  0.12500000000E+03  0.12500000000E+03 0.  0.
        -11    1    1    0    0    0 -0.29372293485E+01  0.47557033794E+02  0.39355414676E+02  0.61799251161E+02  0.51100000000E-03 0. -1.
         11    1    1    0    0    0 -0.36451190747E-01  0.54228518566E+00  0.44233913420E+00  0.70076107387E+00  0.51100000000E-03 0.  1.
         22    1    1    0    0    0  0.29736805393E+01 -0.48099318980E+02 -0.39797753810E+02  0.62499987765E+02  0.00000000000E+00 0. -1.
</event>
<event>
 4    1  0.1976955E-002  0.9118800E+02  0.7818608E-02  0.1130116E+00
         25   -1    0    0    0    0  0.00000000000E+00  0.00000000000E+00  0.99999998245E-14  0.12500000000E+03  0.12500000000E+03 0.  0.
        -11    1    1    0    0    0 -0.81305814231E+01  0.18032797517E+01  0.32955756840E+02  0.33991764904E+02  0.51100000000E-03 0. -1.
         11    1    1    0    0    0 -0.33488110264E+01  0.74896343299E+01  0.27539805825E+02  0.28735867185E+02  0.51100000000E-03 0.  1.
         22    1    1    0    0    0  0.11479392449E+02 -0.92929140816E+01 -0.60495562665E+02  0.62272367912E+02  0.00000000000E+00 0. -1.
</event>
<event>
 4    1  0.1976955E-002  0.9118800E+02  0.7818608E-02  0.1130116E+00
         25   -1    0    0    0    0  0.00000000000E+00  0.00000000000E+00  0.99999998245E-14  0.12500000000E+03  0.12500000000E+03 0.  0.
        -11    1    1    0    0    0  0.28758208419E+02 -0.25264336672E+02  0.32798431898E+02  0.50408911853E+02  0.51100000000E-03 0.  1.
         11    1    1    0    0    0  0.65792703874E+01 -0.53910237247E+01  0.86194167646E+01  0.12109677174E+02  0.51100000000E-03 0. -1.
         22    1    1    0    0    0 -0.35337478806E+02  0.30655360397E+02 -0.41417848662E+02  0.62481410974E+02  0.00000000000E+00 0. -1.
</event>
<event>
 4    1  0.1976955E-002  0.9118800E+02  0.7818608E-02  0.1130116E+00
         25   -1    0    0    0    0  0.00000000000E+00  0.00000000000E+00  0.99999998245E-14  0.12500000000E+03  0.12500000000E+03 0.  0.
        -11    1    1    0    0    0  0.17229041327E+02 -0.20436260146E+01 -0.40083044053E+02  0.43676843901E+02  0.51100000000E-03 0.  1.
         11    1    1    0    0    0  0.74763576679E+01 -0.84332108388E+00 -0.17254148508E+02  0.18823197269E+02  0.51100000000E-03 0. -1.
         22    1    1    0    0    0 -0.24705398995E+02  0.28869470985E+01  0.57337192561E+02  0.62499958830E+02  0.00000000000E+00 0.  1.
</event>
<event>
 4    1  0.1976955E-002  0.9118800E+02  0.7818608E-02  0.1130116E+00
         25   -1    0    0    0    0  0.00000000000E+00  0.00000000000E+00  0.99999998245E-14  0.12500000000E+03  0.12500000000E+03 0.  0.
        -11    1    1    0    0    0 -0.21298807336E+01 -0.22812349893E+01  0.18777883070E+01  0.36423226385E+01  0.51100000000E-03 0.  1.
         11    1    1    0    0    0  0.60157452842E+02 -0.90522626858E+01 -0.10090909301E+02  0.61665947191E+02  0.51100000000E-03 0. -1.
         22    1    1    0    0    0 -0.58027572108E+02  0.11333497675E+02  0.82131209938E+01  0.59691730171E+02  0.00000000000E+00 0. -1.
</event>
<event>
 4    1  0.1976955E-002  0.9118800E+02  0.7818608E-02  0.1130116E+00
         25   -1    0    0    0    0  0.00000000000E+00  0.00000000000E+00  0.99999998245E-14  0.12500000000E+03  0.12500000000E+03 0.  0.
        -11    1    1    0    0    0  0.51590325475E+01  0.88832363596E+00 -0.17947979706E+00  0.52380291110E+01  0.51100000000E-03 0. -1.
         11    1    1    0    0    0  0.56398264259E+02  0.97158855616E+01 -0.19418253846E+01  0.57261971061E+02  0.51100000000E-03 0.  1.
         22    1    1    0    0    0 -0.61557296807E+02 -0.10604209198E+02  0.21213051817E+01  0.62499999828E+02  0.00000000000E+00 0.  1.
</event>
<event>
 4    1  0.1976955E-002  0.9118800E+02  0.7818608E-02  0.1130116E+00
         25   -1    0    0    0    0  0.00000000000E+00  0.00000000000E+00  0.99999998245E-14  0.12500000000E+03  0.12500000000E+03 0.  0.
        -11    1    1    0    0    0  0.15451384711E+02 -0.57691771546E+01 -0.29824928675E+01  0.16760786333E+02  0.51100000000E-03 0.  1.
         11    1    1    0    0    0  0.42139870234E+02 -0.12464762710E+02 -0.12859562812E+02  0.45787632924E+02  0.51100000000E-03 0. -1.
         22    1    1    0    0    0 -0.57591254946E+02  0.18233939864E+02  0.15842055679E+02  0.62451580743E+02  0.00000000000E+00 0. -1.
</event>
<event>
 4    1  0.1976955E-002  0.9118800E+02  0.7818608E-02  0.1130116E+00
         25   -1    0    0    0    0  0.00000000000E+00  0.00000000000E+00  0.99999998245E-14  0.12500000000E+03  0.12500000000E+03 0.  0.
        -11    1    1    0    0    0 -0.53072808948E+02  0.64999694651E+01 -0.17688571464E+02  0.56319252600E+02  0.51100000000E-03 0. -1.
         11    1    1    0    0    0 -0.58237981435E+01  0.78784342275E+00 -0.19149746951E+01  0.61809748761E+01  0.51100000000E-03 0.  1.
         22    1    1    0    0    0  0.58896607092E+02 -0.72878128878E+01  0.19603546159E+02  0.62499772524E+02  0.00000000000E+00 0. -1.
</event>
<event>
 4    1  0.1976955E-002  0.9118800E+02  0.7818608E-02  0.1130116E+00
         25   -1    0    0    0    0  0.00000000000E+00  0.00000000000E+00  0.99999998245E-14  0.12500000000E+03  0.12500000000E+03 0.  0.
        -11    1    1    0    0    0  0.29963543203E+02  0.17326131281E+02 -0.22755227982E+02  0.41422326676E+02  0.51100000000E-03 0.  1.
         11    1    1    0    0    0  0.15247105470E+02  0.88155320927E+01 -0.11579312661E+02  0.21077673336E+02  0.51100000000E-03 0.  1.
         22    1    1    0    0    0 -0.45210648673E+02 -0.26141663374E+02  0.34334540642E+02  0.62499999988E+02  0.00000000000E+00 0.  1.
</event>
<event>
 4    1  0.1976955E-002  0.9118800E+02  0.7818608E-02  0.1130116E+00
         25   -1    0    0    0    0  0.00000000000E+00  0.00000000000E+00  0.99999998245E-14  0.12500000000E+03  0.12500000000E+03 0.  0.
        -11    1    1    0    0    0  0.13944794210E+02  0.14519985207E+02  0.23447684721E+02  0.30904387634E+02  0.51100000000E-03 0. -1.
         11    1    1    0    0    0  0.13367700967E+02 -0.19911692594E+01  0.29930595941E+02  0.32840535285E+02  0.51100000000E-03 0.  1.
         22    1    1    0    0    0 -0.27312495178E+02 -0.12528815948E+02 -0.53378280661E+02  0.61255077081E+02  0.00000000000E+00 0. -1.
</event>
<event>
 4    1  0.1976955E-002  0.9118800E+02  0.7818608E-02  0.1130116E+00
         25   -1    0    0    0    0  0.00000000000E+00  0.00000000000E+00  0.99999998245E-14  0.12500000000E+03  0.12500000000E+03 0.  0.
        -11    1    1    0    0    0  0.34273886149E+01  0.21043766371E+00  0.69390015787E+01  0.77421586072E+01  0.51100000000E-03 0. -1.
         11    1    1    0    0    0  0.23986219988E+02  0.25915518071E+01  0.49157360555E+02  0.54758569987E+02  0.51100000000E-03 0.  1.
         22    1    1    0    0    0 -0.27413608603E+02 -0.28019894708E+01 -0.56096362133E+02  0.62499271406E+02  0.00000000000E+00 0.  1.
</event>
<event>
 4    1  0.1976955E-002  0.9118800E+02  0.7818608E-02  0.1130116E+00
         25   -1    0    0    0    0  0.00000000000E+00  0.00000000000E+00  0.99999998245E-14  0.12500000000E+03  0.12500000000E+03 0.  0.
        -11    1    1    0    0    0  0.56155805671E+02 -0.23053238984E+02 -0.61597208727E+01  0.61015313649E+02  0.51100000000E-03 0.  1.
         11    1    1    0    0    0  0.56837618649E+00 -0.12695871597E+01 -0.11887697747E+01  0.18297750910E+01  0.51100000000E-03 0. -1.
         22    1    1    0    0    0 -0.56724181857E+02  0.24322826143E+02  0.73484906475E+01  0.62154911260E+02  0.00000000000E+00 0.  1.
</event>
<event>
 4    1  0.1976955E-002  0.9118800E+02  0.7818608E-02  0.1130116E+00
         25   -1    0    0    0    0  0.00000000000E+00  0.00000000000E+00  0.99999998245E-14  0.12500000000E+03  0.12500000000E+03 0.  0.
        -11    1    1    0    0    0  0.26487377899E-01 -0.75830455785E+00  0.24875949627E+00  0.79850418393E+00  0.51100000000E-03 0. -1.
         11    1    1    0    0    0 -0.12339939439E+02 -0.59188590724E+02  0.12374785077E+02  0.61714655336E+02  0.51100000000E-03 0.  1.
         22    1    1    0    0    0  0.12313452061E+02  0.59946895282E+02 -0.12623544573E+02  0.62486840480E+02  0.00000000000E+00 0.  1.
</event>
<event>
 4    1  0.1976955E-002  0.9118800E+02  0.7818608E-02  0.1130116E+00
         25   -1    0    0    0    0  0.00000000000E+00  0.00000000000E+00  0.99999998245E-14  0.12500000000E+03  0.12500000000E+03 0.  0.
        -11    1    1    0    0    0 -0.96430895947E+01 -0.93926767478E+01  0.58774771249E+01  0.14688644969E+02  0.51100000000E-03 0. -1.
         11    1    1    0    0    0 -0.31322657869E+02 -0.30633900084E+02  0.19141104737E+02  0.47811364979E+02  0.51100000000E-03 0.  1.
         22    1    1    0    0    0  0.40965747463E+02  0.40026576832E+02 -0.25018581862E+02  0.62499990052E+02  0.00000000000E+00 0.  1.
</event>
<event>
 4    1  0.1976955E-002  0.9118800E+02  0.7818608E-02  0.1130116E+00
         25   -1    0    0    0    0  0.00000000000E+00  0.00000000000E+00  0.99999998245E-14  0.12500000000E+03  0.12500000000E+03 0.  0.
        -11    1    1    0    0    0  0.70290807760E+01 -0.48485481297E+01 -0.46987573012E+02  0.47757181799E+02  0.51100000000E-03 0. -1.
         11    1    1    0    0    0  0.14646594510E+01 -0.13237404175E+01 -0.14617094246E+02  0.14749812218E+02  0.51100000000E-03 0.  1.
         22    1    1    0    0    0 -0.84937402270E+01  0.61722885472E+01  0.61604667258E+02  0.62493005984E+02  0.00000000000E+00 0. -1.
</event>
<event>
 4    1  0.1976955E-002  0.9118800E+02  0.7818608E-02  0.1130116E+00
         25   -1    0    0    0    0  0.00000000000E+00  0.00000000000E+00  0.99999998245E-14  0.12500000000E+03  0.12500000000E+03 0.  0.
        -11    1    1    0    0    0 -0.15330179243E+02 -0.83582561639E+01 -0.33837389611E+01  0.17785514649E+02  0.51100000000E-03 0. -1.
         11    1    1    0    0    0 -0.38289509523E+02 -0.21872228121E+02 -0.74285776608E+01  0.44717610276E+02  0.51100000000E-03 0.  1.
         22    1    1    0    0    0  0.53619688765E+02  0.30230484285E+02  0.10812316622E+02  0.62496875075E+02  0.00000000000E+00 0.  1.
</event>
<event>
 4    1  0.1976955E-002  0.9118800E+02  0.7818608E-02  0.1130116E+00
         25   -1    0    0    0    0  0.00000000000E+00  0.00000000000E+00  0.99999998245E-14  0.12500000000E+03  0.12500000000E+03 0.  0.
        -11    1    1    0    0    0  0.68953353878E+01  0.77501670737E+01 -0.18781456996E+02  0.21455858569E+02  0.51100000000E-03 0.  1.
         11    1    1    0    0    0  0.10972801686E+02  0.28007968386E+02 -0.28631743760E+02  0.41528609668E+02  0.51100000000E-03 0. -1.
         22    1    1    0    0    0 -0.17868137074E+02 -0.35758135460E+02  0.47413200755E+02  0.62015531764E+02  0.00000000000E+00 0. -1.
</event>
<event>
 4    1  0.1976955E-002  0.9118800E+02  0.7818608E-02  0.1130116E+00
         25   -1    0    0    0    0  0.00000000000E+00  0.00000000000E+00  0.99999998245E-14  0.12500000000E+03  0.12500000000E+03 0.  0.
        -11    1    1    0    0    0  0.39721303845E+01  0.14708085785E+02  0.29291231189E+02  0.33016387326E+02  0.51100000000E-03 0.  1.
         11    1    1    0    0    0  0.16565377941E+02  0.20132789401E+02  0.16527219266E+02  0.30868915308E+02  0.51100000000E-03 0. -1.
         22    1    1    0    0    0 -0.20537508326E+02 -0.34840875186E+02 -0.45818450455E+02  0.61114697365E+02  0.00000000000E+00 0. -1.
</event>
<event>
 4    1  0.1976955E-002  0.9118800E+02  0.7818608E-02  0.1130116E+00
         25   -1    0    0    0    0  0.00000000000E+00  0.00000000000E+00  0.99999998245E-14  0.12500000000E+03  0.12500000000E+03 0.  0.
        -11    1    1    0    0    0 -0.15232499474E+02 -0.28165623011E+01  0.30728088966E+02  0.34411880437E+02  0.51100000000E-03 0.  1.
         11    1    1    0    0    0 -0.25070053157E+01 -0.55446069917E+01  0.28009640908E+02  0.28663002746E+02  0.51100000000E-03 0. -1.
         22    1    1    0    0    0  0.17739504790E+02  0.83611692928E+01 -0.58737729874E+02  0.61925116818E+02  0.00000000000E+00 0. -1.
</event>
<event>
 4    1  0.1976955E-002  0.9118800E+02  0.7818608E-02  0.1130116E+00
         25   -1    0    0    0    0  0.00000000000E+00  0.00000000000E+00  0.99999998245E-14  0.12500000000E+03  0.12500000000E+03 0.  0.
        -11    1    1    0    0    0  0.14857973748E+01  0.42338976831E+01 -0.48966396930E+00  0.45136741679E+01  0.51100000000E-03 0.  1.
         11    1    1    0    0    0  0.19058136955E+02  0.54399624263E+02 -0.63152463591E+01  0.57986326327E+02  0.51100000000E-03 0. -1.
         22    1    1    0    0    0 -0.20543934329E+02 -0.58633521946E+02  0.68049103284E+01  0.62499999505E+02  0.00000000000E+00 0. -1.
</event>
<event>
 4    1  0.1976955E-002  0.9118800E+02  0.7818608E-02  0.1130116E+00
         25   -1    0    0    0    0  0.00000000000E+00  0.00000000000E+00  0.99999998245E-14  0.12500000000E+03  0.12500000000E+03 0.  0.
        -11    1    1    0    0    0  0.19562841393E+00  0.83926562658E+00  0.17219513661E+01  0.19255529171E+01  0.51100000000E-03 0. -1.
         11    1    1    0    0    0  0.53726026865E+01  0.26244320413E+02  0.54329040231E+02  0.60574531168E+02  0.51100000000E-03 0.  1.
         22    1    1    0    0    0 -0.55682311004E+01 -0.27083586039E+02 -0.56050991597E+02  0.62499915915E+02  0.00000000000E+00 0.  1.
</event>
<event>
 4    1  0.1976955E-002  0.9118800E+02  0.7818608E-02  0.1130116E+00
         25   -1    0    0    0    0  0.00000000000E+00  0.00000000000E+00  0.99999998245E-14  0.12500000000E+03  0.12500000000E+03 0.  0.
        -11    1    1    0    0    0  0.21129423972E+02  0.16587965496E+02  0.91337000028E+01  0.28373185100E+02  0.51100000000E-03 0. -1.
         11    1    1    0    0    0  0.25409650755E+02  0.19986323199E+02  0.10933294662E+02  0.34126828141E+02  0.51100000000E-03 0.  1.
         22    1    1    0    0    0 -0.46539074728E+02 -0.36574288695E+02 -0.20066994665E+02  0.62499986759E+02  0.00000000000E+00 0.  1.
</event>
<event>
 4    1  0.1976955E-002  0.9118800E+02  0.7818608E-02  0.1130116E+00
         25   -1    0    0    0    0  0.00000000000E+00  0.00000000000E+00  0.99999998245E-14  0.12500000000E+03  0.12500000000E+03 0.  0.
        -11    1    1    0    0    0 -0.24502145154E+01  0.58901428998E+01  0.22494732742E+01  0.67644264224E+01  0.51100000000E-03 0. -1.
         11    1    1    0    0    0 -0.20192776161E+02  0.48528280186E+02  0.18539470841E+02  0.55735573615E+02  0.51100000000E-03 0.  1.
         22    1    1    0    0    0  0.22642990677E+02 -0.54418423085E+02 -0.20788944116E+02  0.62499999963E+02  0.00000000000E+00 0.  1.
</event>
<event>
 4    1  0.1976955E-002  0.9118800E+02  0.7818608E-02  0.1130116E+00
         25   -1    0    0    0    0  0.00000000000E+00  0.00000000000E+00  0.99999998245E-14  0.12500000000E+03  0.12500000000E+03 0.  0.
        -11    1    1    0    0    0 -0.61895998561E+01 -0.15282808893E+02 -0.11794525847E+02  0.20272795423E+02  0.51100000000E-03 0. -1.
         11    1    1    0    0    0 -0.12898976843E+02 -0.31830161857E+02 -0.24568150264E+02  0.42227204680E+02  0.51100000000E-03 0.  1.
         22    1    1    0    0    0  0.19088576699E+02  0.47112970749E+02  0.36362676111E+02  0.62499999898E+02  0.00000000000E+00 0.  1.
</event>
<event>
 4    1  0.1976955E-002  0.9118800E+02  0.7818608E-02  0.1130116E+00
         25   -1    0    0    0    0  0.00000000000E+00  0.00000000000E+00  0.99999998245E-14  0.12500000000E+03  0.12500000000E+03 0.  0.
        -11    1    1    0    0    0 -0.30254432199E+02 -0.21484054849E+02 -0.15944129590E+02  0.40387009657E+02  0.51100000000E-03 0. -1.
         11    1    1    0    0    0 -0.16681805470E+02 -0.11439133359E+02 -0.89386990443E+01  0.22114175241E+02  0.51100000000E-03 0.  1.
         22    1    1    0    0    0  0.46936237668E+02  0.32923188208E+02  0.24882828634E+02  0.62498815101E+02  0.00000000000E+00 0.  1.
</event>
<event>
 4    1  0.1976955E-002  0.9118800E+02  0.7818608E-02  0.1130116E+00
         25   -1    0    0    0    0  0.00000000000E+00  0.00000000000E+00  0.99999998245E-14  0.12500000000E+03  0.12500000000E+03 0.  0.
        -11    1    1    0    0    0  0.10454509341E+02 -0.10959511958E+02 -0.24874133367E+02  0.29122674653E+02  0.51100000000E-03 0.  1.
         11    1    1    0    0    0  0.11591284731E+02 -0.12546691584E+02 -0.28675959372E+02  0.33377956762E+02  0.51100000000E-03 0. -1.
         22    1    1    0    0    0 -0.22045794072E+02  0.23506203541E+02  0.53550092740E+02  0.62499368585E+02  0.00000000000E+00 0.  1.
</event>
<event>
 4    1  0.1976955E-002  0.9118800E+02  0.7818608E-02  0.1130116E+00
         25   -1    0    0    0    0  0.00000000000E+00  0.00000000000E+00  0.99999998245E-14  0.12500000000E+03  0.12500000000E+03 0.  0.
        -11    1    1    0    0    0  0.95286291681E+01  0.24262342239E+02  0.26002235297E+01  0.26195747506E+02  0.51100000000E-03 0.  1.
         11    1    1    0    0    0  0.13206615081E+02  0.33624471585E+02  0.36026349208E+01  0.36304252504E+02  0.51100000000E-03 0. -1.
         22    1    1    0    0    0 -0.22735244249E+02 -0.57886813824E+02 -0.62028584505E+01  0.62499999990E+02  0.00000000000E+00 0. -1.
</event>
<event>
 4    1  0.1976955E-002  0.9118800E+02  0.7818608E-02  0.1130116E+00
         25   -1    0    0    0    0  0.00000000000E+00  0.00000000000E+00  0.99999998245E-14  0.12500000000E+03  0.12500000000E+03 0.  0.
        -11    1    1    0    0    0  0.21127469963E+01  0.12741073210E+01 -0.17440442378E+01  0.30213804627E+01  0.51100000000E-03 0.  1.
         11    1    1    0    0    0  0.41571600771E+02  0.24999325984E+02 -0.34417179425E+02  0.59478622463E+02  0.51100000000E-03 0. -1.
         22    1    1    0    0    0 -0.43684347767E+02 -0.26273433305E+02  0.36161223663E+02  0.62499997074E+02  0.00000000000E+00 0. -1.
</event>
<event>
 4    1  0.1976955E-002  0.9118800E+02  0.7818608E-02  0.1130116E+00
         25   -1    0    0    0    0  0.00000000000E+00  0.00000000000E+00  0.99999998245E-14  0.12500000000E+03  0.12500000000E+03 0.  0.
        -11    1    1    0    0    0  0.27162424193E+02  0.21050366891E+02 -0.28326685093E+02  0.44534439740E+02  0.51100000000E-03 0.  1.
         11    1    1    0    0    0  0.21180523076E+02 -0.75437652542E+01 -0.67726021001E+00  0.22494035512E+02  0.51100000000E-03 0. -1.
         22    1    1    0    0    0 -0.48342947269E+02 -0.13506601637E+02  0.29003945303E+02  0.57971524748E+02  0.00000000000E+00 0. -1.
</event>
<event>
 4    1  0.1976955E-002  0.9118800E+02  0.7818608E-02  0.1130116E+00
         25   -1    0    0    0    0  0.00000000000E+00  0.00000000000E+00  0.99999998245E-14  0.12500000000E+03  0.12500000000E+03 0.  0.
        -11    1    1    0    0    0  0.26336173485E+02  0.22830833562E+02 -0.17225057604E+02  0.38878575137E+02  0.51100000000E-03 0.  1.
         11    1    1    0    0    0  0.16049638358E+02  0.13873298979E+02 -0.10388213793E+02  0.23621479675E+02  0.51100000000E-03 0. -1.
         22    1    1    0    0    0 -0.42385811843E+02 -0.36704132541E+02  0.27613271397E+02  0.62499945187E+02  0.00000000000E+00 0.  1.
</event>
<event>
 4    1  0.1976955E-002  0.9118800E+02  0.7818608E-02  0.1130116E+00
         25   -1    0    0    0    0  0.00000000000E+00  0.00000000000E+00  0.99999998245E-14  0.12500000000E+03  0.12500000000E+03 0.  0.
        -11    1    1    0    0    0  0.63948158100E+01 -0.11131635658E+01 -0.12584128571E+01  0.66118382881E+01  0.51100000000E-03 0. -1.
         11    1    1    0    0    0  0.54051235061E+02 -0.94152577073E+01 -0.10644413386E+02  0.55888161768E+02  0.51100000000E-03 0. -1.
         22    1    1    0    0    0 -0.60446050871E+02  0.10528421273E+02  0.11902826243E+02  0.62499999943E+02  0.00000000000E+00 0. -1.
</event>
<event>
 4    1  0.1976955E-002  0.9118800E+02  0.7818608E-02  0.1130116E+00
         25   -1    0    0    0    0  0.00000000000E+00  0.00000000000E+00  0.99999998245E-14  0.12500000000E+03  0.12500000000E+03 0.  0.
        -11    1    1    0    0    0  0.19402366633E-01  0.12889765786E+02 -0.39448604483E+01  0.13479924432E+02  0.51100000000E-03 0. -1.
         11    1    1    0    0    0  0.19513232653E+01  0.46207448997E+02 -0.16274597138E+02  0.49028547985E+02  0.51100000000E-03 0.  1.
         22    1    1    0    0    0 -0.19707256319E+01 -0.59097214783E+02  0.20219457586E+02  0.62491527583E+02  0.00000000000E+00 0.  1.
</event>
<event>
 4    1  0.1976955E-002  0.9118800E+02  0.7818608E-02  0.1130116E+00
         25   -1    0    0    0    0  0.00000000000E+00  0.00000000000E+00  0.99999998245E-14  0.12500000000E+03  0.12500000000E+03 0.  0.
        -11    1    1    0    0    0  0.17006316266E+02  0.80411705517E+01 -0.38905815751E+01  0.19209680945E+02  0.51100000000E-03 0.  1.
         11    1    1    0    0    0  0.38325538042E+02  0.18118099542E+02 -0.87715067541E+01  0.43290319105E+02  0.51100000000E-03 0. -1.
         22    1    1    0    0    0 -0.55331854307E+02 -0.26159270094E+02  0.12662088329E+02  0.62499999950E+02  0.00000000000E+00 0. -1.
</event>
<event>
 4    1  0.1976955E-002  0.9118800E+02  0.7818608E-02  0.1130116E+00
         25   -1    0    0    0    0  0.00000000000E+00  0.00000000000E+00  0.99999998245E-14  0.12500000000E+03  0.12500000000E+03 0.  0.
        -11    1    1    0    0    0 -0.34679575436E+02  0.31121881731E+02 -0.26750606029E+02  0.53729316003E+02  0.51100000000E-03 0.  1.
         11    1    1    0    0    0 -0.82717870584E+01  0.47911999992E+01  0.72027058555E+01  0.11969002902E+02  0.51100000000E-03 0. -1.
         22    1    1    0    0    0  0.42951362495E+02 -0.35913081730E+02  0.19547900174E+02  0.59301681095E+02  0.00000000000E+00 0.  1.
</event>
<event>
 4    1  0.1976955E-002  0.9118800E+02  0.7818608E-02  0.1130116E+00
         25   -1    0    0    0    0  0.00000000000E+00  0.00000000000E+00  0.99999998245E-14  0.12500000000E+03  0.12500000000E+03 0.  0.
        -11    1    1    0    0    0 -0.20396970716E+02 -0.13621313940E+02 -0.49448784135E+02  0.55197453388E+02  0.51100000000E-03 0. -1.
         11    1    1    0    0    0 -0.26718362093E+01 -0.18040507797E+01 -0.65524226300E+01  0.73025715011E+01  0.51100000000E-03 0.  1.
         22    1    1    0    0    0  0.23068806925E+02  0.15425364720E+02  0.56001206765E+02  0.62499975111E+02  0.00000000000E+00 0. -1.
</event>
<event>
 4    1  0.1976955E-002  0.9118800E+02  0.7818608E-02  0.1130116E+00
         25   -1    0    0    0    0  0.00000000000E+00  0.00000000000E+00  0.99999998245E-14  0.12500000000E+03  0.12500000000E+03 0.  0.
        -11    1    1    0    0    0  0.41888098020E+02 -0.33934151908E+01  0.35370075770E+02  0.54928774633E+02  0.51100000000E-03 0.  1.
         11    1    1    0    0    0  0.57413974309E+01 -0.47863227273E+00  0.49124166022E+01  0.75712991255E+01  0.51100000000E-03 0. -1.
         22    1    1    0    0    0 -0.47629495451E+02  0.38720474635E+01 -0.40282492372E+02  0.62499926242E+02  0.00000000000E+00 0. -1.
</event>
<event>
 4    1  0.1976955E-002  0.9118800E+02  0.7818608E-02  0.1130116E+00
         25   -1    0    0    0    0  0.00000000000E+00  0.00000000000E+00  0.99999998245E-14  0.12500000000E+03  0.12500000000E+03 0.  0.
        -11    1    1    0    0    0 -0.22599090294E+02  0.82749062563E+00 -0.21656166805E+02  0.31311230953E+02  0.51100000000E-03 0.  1.
         11    1    1    0    0    0 -0.17051875727E+02  0.20209852528E+02 -0.19449115060E+02  0.32824879009E+02  0.51100000000E-03 0. -1.
         22    1    1    0    0    0  0.39650966021E+02 -0.21037343154E+02  0.41105281865E+02  0.60863890038E+02  0.00000000000E+00 0.  1.
</event>
<event>
 4    1  0.1976955E-002  0.9118800E+02  0.7818608E-02  0.1130116E+00
         25   -1    0    0    0    0  0.00000000000E+00  0.00000000000E+00  0.99999998245E-14  0.12500000000E+03  0.12500000000E+03 0.  0.
        -11    1    1    0    0    0  0.70207061813E+01 -0.26645861780E+01  0.11451113608E+01  0.75961579153E+01  0.51100000000E-03 0. -1.
         11    1    1    0    0    0  0.50744303395E+02 -0.19265867478E+02  0.82628030424E+01  0.54903842226E+02  0.51100000000E-03 0.  1.
         22    1    1    0    0    0 -0.57765009577E+02  0.21930453656E+02 -0.94079144032E+01  0.62499999859E+02  0.00000000000E+00 0.  1.
</event>
<event>
 4    1  0.1976955E-002  0.9118800E+02  0.7818608E-02  0.1130116E+00
         25   -1    0    0    0    0  0.00000000000E+00  0.00000000000E+00  0.99999998245E-14  0.12500000000E+03  0.12500000000E+03 0.  0.
        -11    1    1    0    0    0 -0.57561931988E+01 -0.80973571070E+01  0.35052690248E+02  0.36433391911E+02  0.51100000000E-03 0. -1.
         11    1    1    0    0    0 -0.23407696301E+02 -0.81096947605E+01  0.14592771821E+02  0.28751284926E+02  0.51100000000E-03 0.  1.
         22    1    1    0    0    0  0.29163889500E+02  0.16207051868E+02 -0.49645462069E+02  0.59815323163E+02  0.00000000000E+00 0. -1.
</event>
<event>
 4    1  0.1976955E-002  0.9118800E+02  0.7818608E-02  0.1130116E+00
         25   -1    0    0    0    0  0.00000000000E+00  0.00000000000E+00  0.99999998245E-14  0.12500000000E+03  0.12500000000E+03 0.  0.
        -11    1    1    0    0    0  0.29804037032E+02 -0.11721896469E+02  0.42568334884E+02  0.53270504178E+02  0.51100000000E-03 0.  1.
         11    1    1    0    0    0  0.51777472919E+01 -0.20259204051E+01  0.73668376347E+01  0.92295025599E+01  0.51100000000E-03 0. -1.
         22    1    1    0    0    0 -0.34981784324E+02  0.13747816874E+02 -0.49935172519E+02  0.62499993262E+02  0.00000000000E+00 0.  1.
</event>
<event>
 4    1  0.1976955E-002  0.9118800E+02  0.7818608E-02  0.1130116E+00
         25   -1    0    0    0    0  0.00000000000E+00  0.00000000000E+00  0.99999998245E-14  0.12500000000E+03  0.12500000000E+03 0.  0.
        -11    1    1    0    0    0 -0.20897702796E+02  0.94441297956E+01 -0.37958101216E+02  0.44347750991E+02  0.51100000000E-03 0. -1.
         11    1    1    0    0    0  0.44871895403E+01  0.28891091282E+02  0.12517728801E+02  0.31804458179E+02  0.51100000000E-03 0.  1.
         22    1    1    0    0    0  0.16410513255E+02 -0.38335221078E+02  0.25440372415E+02  0.48847790831E+02  0.00000000000E+00 0.  1.
</event>
<event>
 4    1  0.1976955E-002  0.9118800E+02  0.7818608E-02  0.1130116E+00
         25   -1    0    0    0    0  0.00000000000E+00  0.00000000000E+00  0.99999998245E-14  0.12500000000E+03  0.12500000000E+03 0.  0.
        -11    1    1    0    0    0  0.29056030064E+02  0.24476275587E+02  0.20618267944E+02  0.43225616513E+02  0.51100000000E-03 0. -1.
         11    1    1    0    0    0  0.13072834263E+02  0.11487162358E+02  0.83088565557E+01  0.19284475420E+02  0.51100000000E-03 0.  1.
         22    1    1    0    0    0 -0.42128864327E+02 -0.35963437946E+02 -0.28927124500E+02  0.62489908066E+02  0.00000000000E+00 0. -1.
</event>
<event>
 4    1  0.1976955E-002  0.9118800E+02  0.7818608E-02  0.1130116E+00
         25   -1    0    0    0    0  0.00000000000E+00  0.00000000000E+00  0.99999998245E-14  0.12500000000E+03  0.12500000000E+03 0.  0.
        -11    1    1    0    0    0  0.36798387023E+00 -0.96360647779E+01  0.23929276762E+01  0.99355553271E+01  0.51100000000E-03 0.  1.
         11    1    1    0    0    0 -0.52495576433E+01 -0.50818588307E+02  0.12532166413E+02  0.52603630752E+02  0.51100000000E-03 0. -1.
         22    1    1    0    0    0  0.48815737731E+01  0.60454653085E+02 -0.14925094090E+02  0.62460813921E+02  0.00000000000E+00 0. -1.
</event>
<event>
 4    1  0.1976955E-002  0.9118800E+02  0.7818608E-02  0.1130116E+00
         25   -1    0    0    0    0  0.00000000000E+00  0.00000000000E+00  0.99999998245E-14  0.12500000000E+03  0.12500000000E+03 0.  0.
        -11    1    1    0    0    0 -0.47461616995E+02  0.10259122016E+02 -0.14053884606E+02  0.50550631501E+02  0.51100000000E-03 0. -1.
         11    1    1    0    0    0 -0.67487717341E+01 -0.12974649397E+01 -0.11853608474E+02  0.13701728698E+02  0.51100000000E-03 0.  1.
         22    1    1    0    0    0  0.54210388729E+02 -0.89616570766E+01  0.25907493080E+02  0.60747639801E+02  0.00000000000E+00 0. -1.
</event>
<event>
 4    1  0.1976955E-002  0.9118800E+02  0.7818608E-02  0.1130116E+00
         25   -1    0    0    0    0  0.00000000000E+00  0.00000000000E+00  0.99999998245E-14  0.12500000000E+03  0.12500000000E+03 0.  0.
        -11    1    1    0    0    0 -0.58816887808E+01  0.52959996709E+02 -0.13750122176E+02  0.55031094614E+02  0.51100000000E-03 0. -1.
         11    1    1    0    0    0  0.38171834092E+00 -0.28424914655E+02 -0.14697357526E+02  0.32002090565E+02  0.51100000000E-03 0.  1.
         22    1    1    0    0    0  0.54999704399E+01 -0.24535082054E+02  0.28447479702E+02  0.37966814821E+02  0.00000000000E+00 0. -1.
</event>
<event>
 4    1  0.1976955E-002  0.9118800E+02  0.7818608E-02  0.1130116E+00
         25   -1    0    0    0    0  0.00000000000E+00  0.00000000000E+00  0.99999998245E-14  0.12500000000E+03  0.12500000000E+03 0.  0.
        -11    1    1    0    0    0 -0.15512149312E+02 -0.62048657221E+01  0.49055120679E+01  0.17412385931E+02  0.51100000000E-03 0.  1.
         11    1    1    0    0    0 -0.37592312752E+02 -0.19462354157E+02  0.15641683623E+02  0.45129009232E+02  0.51100000000E-03 0. -1.
         22    1    1    0    0    0  0.53104462064E+02  0.25667219880E+02 -0.20547195691E+02  0.62458604837E+02  0.00000000000E+00 0.  1.
</event>
<event>
 4    1  0.1976955E-002  0.9118800E+02  0.7818608E-02  0.1130116E+00
         25   -1    0    0    0    0  0.00000000000E+00  0.00000000000E+00  0.99999998245E-14  0.12500000000E+03  0.12500000000E+03 0.  0.
        -11    1    1    0    0    0 -0.79989447031E+01  0.32765856333E+01  0.10443038129E+02  0.13556407172E+02  0.51100000000E-03 0.  1.
         11    1    1    0    0    0 -0.28023769822E+02  0.12503529474E+02  0.38130745774E+02  0.48945109029E+02  0.51100000000E-03 0. -1.
         22    1    1    0    0    0  0.36022714525E+02 -0.15780115108E+02 -0.48573783903E+02  0.62498483799E+02  0.00000000000E+00 0. -1.
</event>
<event>
 4    1  0.1976955E-002  0.9118800E+02  0.7818608E-02  0.1130116E+00
         25   -1    0    0    0    0  0.00000000000E+00  0.00000000000E+00  0.99999998245E-14  0.12500000000E+03  0.12500000000E+03 0.  0.
        -11    1    1    0    0    0 -0.27469664459E+02  0.41600228959E+02 -0.33249400625E+02  0.59922317689E+02  0.51100000000E-03 0. -1.
         11    1    1    0    0    0 -0.11739353936E+01  0.17543273453E+01 -0.14800220270E+01  0.25780330107E+01  0.51100000000E-03 0.  1.
         22    1    1    0    0    0  0.28643599853E+02 -0.43354556305E+02  0.34729422652E+02  0.62499649300E+02  0.00000000000E+00 0. -1.
</event>
<event>
 4    1  0.1976955E-002  0.9118800E+02  0.7818608E-02  0.1130116E+00
         25   -1    0    0    0    0  0.00000000000E+00  0.00000000000E+00  0.99999998245E-14  0.12500000000E+03  0.12500000000E+03 0.  0.
        -11    1    1    0    0    0 -0.13570215328E+02 -0.20678073931E+02  0.17002549869E+02  0.30013666685E+02  0.51100000000E-03 0. -1.
         11    1    1    0    0    0 -0.14687808257E+02 -0.22376954484E+02  0.18409292838E+02  0.32486333533E+02  0.51100000000E-03 0.  1.
         22    1    1    0    0    0  0.28258023585E+02  0.43055028416E+02 -0.35411842707E+02  0.62499999782E+02  0.00000000000E+00 0. -1.
</event>
<event>
 4    1  0.1976955E-002  0.9118800E+02  0.7818608E-02  0.1130116E+00
         25   -1    0    0    0    0  0.00000000000E+00  0.00000000000E+00  0.99999998245E-14  0.12500000000E+03  0.12500000000E+03 0.  0.
        -11    1    1    0    0    0  0.53934568841E+02  0.26456230284E+02  0.12668980862E+02  0.61395218977E+02  0.51100000000E-03 0. -1.
         11    1    1    0    0    0  0.97053313042E+00  0.47621013273E+00  0.22766288743E+00  0.11047811092E+01  0.51100000000E-03 0.  1.
         22    1    1    0    0    0 -0.54905101971E+02 -0.26932440416E+02 -0.12896643749E+02  0.62499999914E+02  0.00000000000E+00 0. -1.
</event>
<event>
 4    1  0.1976955E-002  0.9118800E+02  0.7818608E-02  0.1130116E+00
         25   -1    0    0    0    0  0.00000000000E+00  0.00000000000E+00  0.99999998245E-14  0.12500000000E+03  0.12500000000E+03 0.  0.
        -11    1    1    0    0    0 -0.33784449769E+02 -0.14791548758E+01  0.38979662412E+02  0.51604176452E+02  0.51100000000E-03 0. -1.
         11    1    1    0    0    0 -0.71209230827E+01 -0.32425546076E+00  0.82405369706E+01  0.10895831174E+02  0.51100000000E-03 0.  1.
         22    1    1    0    0    0  0.40905372852E+02  0.18034103365E+01 -0.47220199382E+02  0.62499992373E+02  0.00000000000E+00 0. -1.
</event>
<event>
 4    1  0.1976955E-002  0.9118800E+02  0.7818608E-02  0.1130116E+00
         25   -1    0    0    0    0  0.00000000000E+00  0.00000000000E+00  0.99999998245E-14  0.12500000000E+03  0.12500000000E+03 0.  0.
        -11    1    1    0    0    0 -0.77035652668E+01  0.48832621408E+02  0.10557271019E+02  0.50551219600E+02  0.51100000000E-03 0. -1.
         11    1    1    0    0    0 -0.13821328388E+01  0.11408162393E+02  0.33291594785E+01  0.11964103119E+02  0.51100000000E-03 0.  1.
         22    1    1    0    0    0  0.90856981056E+01 -0.60240783800E+02 -0.13886430498E+02  0.62484677281E+02  0.00000000000E+00 0. -1.
</event>
<event>
 4    1  0.1976955E-002  0.9118800E+02  0.7818608E-02  0.1130116E+00
         25   -1    0    0    0    0  0.00000000000E+00  0.00000000000E+00  0.99999998245E-14  0.12500000000E+03  0.12500000000E+03 0.  0.
        -11    1    1    0    0    0  0.72415130125E+01 -0.61587545676E+00 -0.46893268406E+01  0.86491964810E+01  0.51100000000E-03 0. -1.
         11    1    1    0    0    0  0.50102968291E+02  0.98389828228E+01  0.22214438411E+02  0.55682980243E+02  0.51100000000E-03 0.  1.
         22    1    1    0    0    0 -0.57344481304E+02 -0.92231073661E+01 -0.17525111571E+02  0.60667823276E+02  0.00000000000E+00 0.  1.
</event>
<event>
 4    1  0.1976955E-002  0.9118800E+02  0.7818608E-02  0.1130116E+00
         25   -1    0    0    0    0  0.00000000000E+00  0.00000000000E+00  0.99999998245E-14  0.12500000000E+03  0.12500000000E+03 0.  0.
        -11    1    1    0    0    0 -0.28825051664E+02 -0.15340585179E+02  0.20895200013E+02  0.38766306774E+02  0.51100000000E-03 0.  1.
         11    1    1    0    0    0 -0.17634713327E+02 -0.97790738250E+01  0.12519761142E+02  0.23735159960E+02  0.51100000000E-03 0. -1.
         22    1    1    0    0    0  0.46459764991E+02  0.25119659004E+02 -0.33414961154E+02  0.62498533266E+02  0.00000000000E+00 0. -1.
</event>
<event>
 4    1  0.1976955E-002  0.9118800E+02  0.7818608E-02  0.1130116E+00
         25   -1    0    0    0    0  0.00000000000E+00  0.00000000000E+00  0.99999998245E-14  0.12500000000E+03  0.12500000000E+03 0.  0.
        -11    1    1    0    0    0  0.91465994253E+01  0.16933419071E+02  0.46149715412E+02  0.50001971915E+02  0.51100000000E-03 0.  1.
         11    1    1    0    0    0  0.25411315604E+01  0.37845618907E+01  0.11641790031E+02  0.12502461106E+02  0.51100000000E-03 0. -1.
         22    1    1    0    0    0 -0.11687730986E+02 -0.20717980961E+02 -0.57791505443E+02  0.62495566980E+02  0.00000000000E+00 0.  1.
</event>
<event>
 4    1  0.1976955E-002  0.9118800E+02  0.7818608E-02  0.1130116E+00
         25   -1    0    0    0    0  0.00000000000E+00  0.00000000000E+00  0.99999998245E-14  0.12500000000E+03  0.12500000000E+03 0.  0.
        -11    1    1    0    0    0  0.14940539376E+01 -0.73038918337E+01  0.20071062087E+01  0.77205899179E+01  0.51100000000E-03 0.  1.
         11    1    1    0    0    0  0.12281366829E+02 -0.52185976807E+02  0.11282676325E+02  0.54786010366E+02  0.51100000000E-03 0. -1.
         22    1    1    0    0    0 -0.13775420767E+02  0.59489868641E+02 -0.13289782534E+02  0.62493399716E+02  0.00000000000E+00 0. -1.
</event>
<event>
 4    1  0.1976955E-002  0.9118800E+02  0.7818608E-02  0.1130116E+00
         25   -1    0    0    0    0  0.00000000000E+00  0.00000000000E+00  0.99999998245E-14  0.12500000000E+03  0.12500000000E+03 0.  0.
        -11    1    1    0    0    0  0.51258638007E+01  0.44805591406E+01 -0.12490320470E+02  0.14225259071E+02  0.51100000000E-03 0. -1.
         11    1    1    0    0    0  0.16939498943E+02  0.14126433289E+02 -0.42943441383E+02  0.48276722133E+02  0.51100000000E-03 0.  1.
         22    1    1    0    0    0 -0.22065362743E+02 -0.18606992430E+02  0.55433761853E+02  0.62498018796E+02  0.00000000000E+00 0.  1.
</event>
<event>
 4    1  0.1976955E-002  0.9118800E+02  0.7818608E-02  0.1130116E+00
         25   -1    0    0    0    0  0.00000000000E+00  0.00000000000E+00  0.99999998245E-14  0.12500000000E+03  0.12500000000E+03 0.  0.
        -11    1    1    0    0    0  0.29759242591E+01  0.22105014346E+01 -0.50664015109E+00  0.37415406309E+01  0.51100000000E-03 0.  1.
         11    1    1    0    0    0  0.55185223227E+02  0.73264149019E+01 -0.19548420759E+02  0.59001914989E+02  0.51100000000E-03 0. -1.
         22    1    1    0    0    0 -0.58161147486E+02 -0.95369163365E+01  0.20055060910E+02  0.62256544380E+02  0.00000000000E+00 0. -1.
</event>
<event>
 4    1  0.1976955E-002  0.9118800E+02  0.7818608E-02  0.1130116E+00
         25   -1    0    0    0    0  0.00000000000E+00  0.00000000000E+00  0.99999998245E-14  0.12500000000E+03  0.12500000000E+03 0.  0.
        -11    1    1    0    0    0  0.65466378415E+01  0.15500913163E+02  0.25736543708E+01  0.17022352158E+02  0.51100000000E-03 0.  1.
         11    1    1    0    0    0  0.17704411237E+02  0.41435961601E+02  0.61569526186E+01  0.45478491146E+02  0.51100000000E-03 0. -1.
         22    1    1    0    0    0 -0.24251049079E+02 -0.56936874764E+02 -0.87306069894E+01  0.62499156696E+02  0.00000000000E+00 0. -1.
</event>
<event>
 4    1  0.1976955E-002  0.9118800E+02  0.7818608E-02  0.1130116E+00
         25   -1    0    0    0    0  0.00000000000E+00  0.00000000000E+00  0.99999998245E-14  0.12500000000E+03  0.12500000000E+03 0.  0.
        -11    1    1    0    0    0 -0.27838937380E+02 -0.26597033709E+02  0.12688030029E+02  0.40538805395E+02  0.51100000000E-03 0.  1.
         11    1    1    0    0    0 -0.15083131625E+02 -0.14406975615E+02  0.68725733609E+01  0.21961194659E+02  0.51100000000E-03 0. -1.
         22    1    1    0    0    0  0.42922069005E+02  0.41004009324E+02 -0.19560603390E+02  0.62499999946E+02  0.00000000000E+00 0. -1.
</event>
<event>
 4    1  0.1976955E-002  0.9118800E+02  0.7818608E-02  0.1130116E+00
         25   -1    0    0    0    0  0.00000000000E+00  0.00000000000E+00  0.99999998245E-14  0.12500000000E+03  0.12500000000E+03 0.  0.
        -11    1    1    0    0    0 -0.71515424368E+01 -0.28157033326E+02  0.10677227381E+02  0.30951030189E+02  0.51100000000E-03 0.  1.
         11    1    1    0    0    0 -0.72817814774E+01 -0.28701454657E+02  0.10887592710E+02  0.31548970128E+02  0.51100000000E-03 0. -1.
         22    1    1    0    0    0  0.14433323914E+02  0.56858487982E+02 -0.21564820091E+02  0.62499999683E+02  0.00000000000E+00 0. -1.
</event>
<event>
 4    1  0.1976955E-002  0.9118800E+02  0.7818608E-02  0.1130116E+00
         25   -1    0    0    0    0  0.00000000000E+00  0.00000000000E+00  0.99999998245E-14  0.12500000000E+03  0.12500000000E+03 0.  0.
        -11    1    1    0    0    0 -0.89438970614E+01  0.49350354293E+02  0.24163872391E+01  0.50212445579E+02  0.51100000000E-03 0. -1.
         11    1    1    0    0    0  0.14933656040E+01  0.12401746111E+02  0.68730513798E+00  0.12510229257E+02  0.51100000000E-03 0.  1.
         22    1    1    0    0    0  0.74505314574E+01 -0.61752100404E+02 -0.31036923771E+01  0.62277325165E+02  0.00000000000E+00 0. -1.
</event>
<event>
 4    1  0.1976955E-002  0.9118800E+02  0.7818608E-02  0.1130116E+00
         25   -1    0    0    0    0  0.00000000000E+00  0.00000000000E+00  0.99999998245E-14  0.12500000000E+03  0.12500000000E+03 0.  0.
        -11    1    1    0    0    0 -0.12908910463E+02 -0.39033267347E+02  0.51797873802E+01  0.41437496627E+02  0.51100000000E-03 0.  1.
         11    1    1    0    0    0 -0.65672794366E+01 -0.19838578895E+02  0.26326201010E+01  0.21062503665E+02  0.51100000000E-03 0. -1.
         22    1    1    0    0    0  0.19476189900E+02  0.58871846242E+02 -0.78124074812E+01  0.62499999709E+02  0.00000000000E+00 0. -1.
</event>
<event>
 4    1  0.1976955E-002  0.9118800E+02  0.7818608E-02  0.1130116E+00
         25   -1    0    0    0    0  0.00000000000E+00  0.00000000000E+00  0.99999998245E-14  0.12500000000E+03  0.12500000000E+03 0.  0.
        -11    1    1    0    0    0  0.34014422997E+02 -0.47698659343E+02  0.52623301896E+01  0.58820363771E+02  0.51100000000E-03 0.  1.
         11    1    1    0    0    0  0.21308481439E+01 -0.29806809108E+01  0.33882573149E+00  0.36796434123E+01  0.51100000000E-03 0. -1.
         22    1    1    0    0    0 -0.36145271141E+02  0.50679340254E+02 -0.56011559211E+01  0.62499992816E+02  0.00000000000E+00 0.  1.
</event>
<event>
 4    1  0.1976955E-002  0.9118800E+02  0.7818608E-02  0.1130116E+00
         25   -1    0    0    0    0  0.00000000000E+00  0.00000000000E+00  0.99999998245E-14  0.12500000000E+03  0.12500000000E+03 0.  0.
        -11    1    1    0    0    0 -0.40625875757E+01  0.21823206009E+02  0.15379467617E+02  0.27005276572E+02  0.51100000000E-03 0.  1.
         11    1    1    0    0    0 -0.53402291670E+01  0.28684233643E+02  0.20213166115E+02  0.35494723437E+02  0.51100000000E-03 0. -1.
         22    1    1    0    0    0  0.94028167426E+01 -0.50507439652E+02 -0.35592633731E+02  0.62499999990E+02  0.00000000000E+00 0. -1.
</event>
<event>
 4    1  0.1976955E-002  0.9118800E+02  0.7818608E-02  0.1130116E+00
         25   -1    0    0    0    0  0.00000000000E+00  0.00000000000E+00  0.99999998245E-14  0.12500000000E+03  0.12500000000E+03 0.  0.
        -11    1    1    0    0    0 -0.14014006061E+02  0.12660769823E+01  0.14598446441E+02  0.20275846605E+02  0.51100000000E-03 0. -1.
         11    1    1    0    0    0 -0.28719329330E+02  0.36095075909E+01  0.30745055978E+02  0.42226613522E+02  0.51100000000E-03 0.  1.
         22    1    1    0    0    0  0.42733335391E+02 -0.48755845731E+01 -0.45343502418E+02  0.62497539873E+02  0.00000000000E+00 0. -1.
</event>
<event>
 4    1  0.1976955E-002  0.9118800E+02  0.7818608E-02  0.1130116E+00
         25   -1    0    0    0    0  0.00000000000E+00  0.00000000000E+00  0.99999998245E-14  0.12500000000E+03  0.12500000000E+03 0.  0.
        -11    1    1    0    0    0  0.14974575845E+02 -0.70922971320E+01  0.57070369903E+02  0.59426978061E+02  0.51100000000E-03 0. -1.
         11    1    1    0    0    0  0.77539107563E+00 -0.36455020074E+00  0.29511588165E+01  0.30730224194E+01  0.51100000000E-03 0.  1.
         22    1    1    0    0    0 -0.15749966921E+02  0.74568473327E+01 -0.60021528719E+02  0.62499999520E+02  0.00000000000E+00 0. -1.
</event>
<event>
 4    1  0.1976955E-002  0.9118800E+02  0.7818608E-02  0.1130116E+00
         25   -1    0    0    0    0  0.00000000000E+00  0.00000000000E+00  0.99999998245E-14  0.12500000000E+03  0.12500000000E+03 0.  0.
        -11    1    1    0    0    0  0.23591290726E+02 -0.32027261390E+01  0.29095075222E+01  0.23984822015E+02  0.51100000000E-03 0.  1.
         11    1    1    0    0    0  0.37883905049E+02 -0.51395987353E+01  0.46704604840E+01  0.38515178026E+02  0.51100000000E-03 0. -1.
         22    1    1    0    0    0 -0.61475195775E+02  0.83423248743E+01 -0.75799680062E+01  0.62499999959E+02  0.00000000000E+00 0.  1.
</event>
<event>
 4    1  0.1976955E-002  0.9118800E+02  0.7818608E-02  0.1130116E+00
         25   -1    0    0    0    0  0.00000000000E+00  0.00000000000E+00  0.99999998245E-14  0.12500000000E+03  0.12500000000E+03 0.  0.
        -11    1    1    0    0    0  0.32951726670E+02  0.19484007193E+02 -0.14920575195E+01  0.38310169182E+02  0.51100000000E-03 0.  1.
         11    1    1    0    0    0  0.19430528994E+02  0.12924666292E+02  0.81844081186E+01  0.24730082738E+02  0.51100000000E-03 0. -1.
         22    1    1    0    0    0 -0.52382255664E+02 -0.32408673485E+02 -0.66923505991E+01  0.61959748079E+02  0.00000000000E+00 0.  1.
</event>
<event>
 4    1  0.1976955E-002  0.9118800E+02  0.7818608E-02  0.1130116E+00
         25   -1    0    0    0    0  0.00000000000E+00  0.00000000000E+00  0.99999998245E-14  0.12500000000E+03  0.12500000000E+03 0.  0.
        -11    1    1    0    0    0 -0.67421851936E+01  0.46897021403E+01  0.55241241231E+01  0.98977934378E+01  0.51100000000E-03 0. -1.
         11    1    1    0    0    0 -0.35827092378E+02  0.24930884648E+02  0.29357496215E+02  0.52602206626E+02  0.51100000000E-03 0.  1.
         22    1    1    0    0    0  0.42569277572E+02 -0.29620586788E+02 -0.34881620338E+02  0.62499999937E+02  0.00000000000E+00 0.  1.
</event>
<event>
 4    1  0.1976955E-002  0.9118800E+02  0.7818608E-02  0.1130116E+00
         25   -1    0    0    0    0  0.00000000000E+00  0.00000000000E+00  0.99999998245E-14  0.12500000000E+03  0.12500000000E+03 0.  0.
        -11    1    1    0    0    0 -0.21155486061E+02  0.41186786309E+01 -0.33106040789E+02  0.39503519351E+02  0.51100000000E-03 0. -1.
         11    1    1    0    0    0 -0.12321848810E+02  0.23978797402E+01 -0.19268117590E+02  0.22996481058E+02  0.51100000000E-03 0.  1.
         22    1    1    0    0    0  0.33477334870E+02 -0.65165583711E+01  0.52374158379E+02  0.62499999591E+02  0.00000000000E+00 0. -1.
</event>
<event>
 4    1  0.1976955E-002  0.9118800E+02  0.7818608E-02  0.1130116E+00
         25   -1    0    0    0    0  0.00000000000E+00  0.00000000000E+00  0.99999998245E-14  0.12500000000E+03  0.12500000000E+03 0.  0.
        -11    1    1    0    0    0 -0.28433179758E+02 -0.12532409365E+02  0.25463538548E+02  0.40173359223E+02  0.51100000000E-03 0.  1.
         11    1    1    0    0    0 -0.24211333536E+02 -0.62670102381E+01 -0.74437996789E+01  0.26093567077E+02  0.51100000000E-03 0. -1.
         22    1    1    0    0    0  0.52644513293E+02  0.18799419604E+02 -0.18019738869E+02  0.58733073700E+02  0.00000000000E+00 0.  1.
</event>
<event>
 4    1  0.1976955E-002  0.9118800E+02  0.7818608E-02  0.1130116E+00
         25   -1    0    0    0    0  0.00000000000E+00  0.00000000000E+00  0.99999998245E-14  0.12500000000E+03  0.12500000000E+03 0.  0.
        -11    1    1    0    0    0 -0.45830414974E+02  0.82429112269E+01  0.34742696945E+02  0.58098429527E+02  0.51100000000E-03 0. -1.
         11    1    1    0    0    0 -0.30754336689E+01  0.77472156237E+00  0.30810482757E+01  0.44216902299E+01  0.51100000000E-03 0.  1.
         22    1    1    0    0    0  0.48905848643E+02 -0.90176327892E+01 -0.37823745221E+02  0.62479880243E+02  0.00000000000E+00 0. -1.
</event>
<event>
 4    1  0.1976955E-002  0.9118800E+02  0.7818608E-02  0.1130116E+00
         25   -1    0    0    0    0  0.00000000000E+00  0.00000000000E+00  0.99999998245E-14  0.12500000000E+03  0.12500000000E+03 0.  0.
        -11    1    1    0    0    0 -0.47023078123E+02 -0.79358364490E+01  0.28264777202E+02  0.55435052150E+02  0.51100000000E-03 0. -1.
         11    1    1    0    0    0 -0.59889749440E+01 -0.10174194838E+01  0.36070150863E+01  0.70649502036E+01  0.51100000000E-03 0.  1.
         22    1    1    0    0    0  0.53012053067E+02  0.89532559328E+01 -0.31871792289E+02  0.62499997647E+02  0.00000000000E+00 0. -1.
</event>
<event>
 4    1  0.1976955E-002  0.9118800E+02  0.7818608E-02  0.1130116E+00
         25   -1    0    0    0    0  0.00000000000E+00  0.00000000000E+00  0.99999998245E-14  0.12500000000E+03  0.12500000000E+03 0.  0.
        -11    1    1    0    0    0  0.28385305125E+02 -0.35424588577E+02 -0.30216106560E+02  0.54531093137E+02  0.51100000000E-03 0.  1.
         11    1    1    0    0    0  0.91355620334E+01  0.47496991683E+01 -0.41031257192E+01  0.11083942294E+02  0.51100000000E-03 0. -1.
         22    1    1    0    0    0 -0.37520867158E+02  0.30674889408E+02  0.34319232279E+02  0.59384964568E+02  0.00000000000E+00 0.  1.
</event>
<event>
 4    1  0.1976955E-002  0.9118800E+02  0.7818608E-02  0.1130116E+00
         25   -1    0    0    0    0  0.00000000000E+00  0.00000000000E+00  0.99999998245E-14  0.12500000000E+03  0.12500000000E+03 0.  0.
        -11    1    1    0    0    0  0.59276151544E+01  0.15653314572E+02  0.22482414475E+02  0.28028946455E+02  0.51100000000E-03 0.  1.
         11    1    1    0    0    0  0.36248906379E+01  0.21517739286E+02  0.26766449363E+02  0.34533979613E+02  0.51100000000E-03 0. -1.
         22    1    1    0    0    0 -0.95525057924E+01 -0.37171053858E+02 -0.49248863838E+02  0.62437073932E+02  0.00000000000E+00 0.  1.
</event>
<event>
 4    1  0.1976955E-002  0.9118800E+02  0.7818608E-02  0.1130116E+00
         25   -1    0    0    0    0  0.00000000000E+00  0.00000000000E+00  0.99999998245E-14  0.12500000000E+03  0.12500000000E+03 0.  0.
        -11    1    1    0    0    0  0.28294709641E+01 -0.32854869952E+02  0.19218955714E+02  0.38168267507E+02  0.51100000000E-03 0. -1.
         11    1    1    0    0    0  0.11248224055E+01 -0.21096690961E+02  0.12077034530E+02  0.24334961645E+02  0.51100000000E-03 0.  1.
         22    1    1    0    0    0 -0.39542933697E+01  0.53951560913E+02 -0.31295990245E+02  0.62496770848E+02  0.00000000000E+00 0. -1.
</event>
<event>
 4    1  0.1976955E-002  0.9118800E+02  0.7818608E-02  0.1130116E+00
         25   -1    0    0    0    0  0.00000000000E+00  0.00000000000E+00  0.99999998245E-14  0.12500000000E+03  0.12500000000E+03 0.  0.
        -11    1    1    0    0    0  0.23961525668E+01  0.27677328463E+02 -0.37225539035E+02  0.46449077652E+02  0.51100000000E-03 0. -1.
         11    1    1    0    0    0  0.83996287386E+00  0.95781702508E+01 -0.12852447147E+02  0.16050927727E+02  0.51100000000E-03 0.  1.
         22    1    1    0    0    0 -0.32361154406E+01 -0.37255498714E+02  0.50077986182E+02  0.62499994621E+02  0.00000000000E+00 0. -1.
</event>
<event>
 4    1  0.1976955E-002  0.9118800E+02  0.7818608E-02  0.1130116E+00
         25   -1    0    0    0    0  0.00000000000E+00  0.00000000000E+00  0.99999998245E-14  0.12500000000E+03  0.12500000000E+03 0.  0.
        -11    1    1    0    0    0  0.18731016216E+02 -0.27508209758E+02  0.24177747866E+01  0.33367622147E+02  0.51100000000E-03 0.  1.
         11    1    1    0    0    0  0.16347181579E+02 -0.24023426017E+02  0.20833438925E+01  0.29132381729E+02  0.51100000000E-03 0. -1.
         22    1    1    0    0    0 -0.35078197795E+02  0.51531635775E+02 -0.45011186791E+01  0.62499996124E+02  0.00000000000E+00 0. -1.
</event>
<event>
 4    1  0.1976955E-002  0.9118800E+02  0.7818608E-02  0.1130116E+00
         25   -1    0    0    0    0  0.00000000000E+00  0.00000000000E+00  0.99999998245E-14  0.12500000000E+03  0.12500000000E+03 0.  0.
        -11    1    1    0    0    0  0.70330904649E+01 -0.13603775239E+02  0.32718091894E+01  0.15659878604E+02  0.51100000000E-03 0.  1.
         11    1    1    0    0    0  0.20540831538E+02 -0.40858537744E+02  0.10134131023E+02  0.46840649854E+02  0.51100000000E-03 0. -1.
         22    1    1    0    0    0 -0.27573922003E+02  0.54462312983E+02 -0.13405940212E+02  0.62499471543E+02  0.00000000000E+00 0. -1.
</event>
<event>
 4    1  0.1976955E-002  0.9118800E+02  0.7818608E-02  0.1130116E+00
         25   -1    0    0    0    0  0.00000000000E+00  0.00000000000E+00  0.99999998245E-14  0.12500000000E+03  0.12500000000E+03 0.  0.
        -11    1    1    0    0    0  0.96254043072E+00 -0.53399828074E+01 -0.89256412142E+00  0.54989609415E+01  0.51100000000E-03 0.  1.
         11    1    1    0    0    0  0.99850270382E+01 -0.55059157983E+02 -0.10863926678E+02  0.57002074926E+02  0.51100000000E-03 0. -1.
         22    1    1    0    0    0 -0.10947567469E+02  0.60399140790E+02  0.11756490799E+02  0.62498964132E+02  0.00000000000E+00 0. -1.
</event>
<event>
 4    1  0.1976955E-002  0.9118800E+02  0.7818608E-02  0.1130116E+00
         25   -1    0    0    0    0  0.00000000000E+00  0.00000000000E+00  0.99999998245E-14  0.12500000000E+03  0.12500000000E+03 0.  0.
        -11    1    1    0    0    0  0.10238142421E+02  0.11465605880E+02  0.31137185102E+01  0.15683587652E+02  0.51100000000E-03 0. -1.
         11    1    1    0    0    0 -0.28216731366E+02  0.23647192503E+02  0.37602757435E+02  0.52624528589E+02  0.51100000000E-03 0.  1.
         22    1    1    0    0    0  0.17978588945E+02 -0.35112798382E+02 -0.40716475946E+02  0.56691883759E+02  0.00000000000E+00 0.  1.
</event>
<event>
 4    1  0.1976955E-002  0.9118800E+02  0.7818608E-02  0.1130116E+00
         25   -1    0    0    0    0  0.00000000000E+00  0.00000000000E+00  0.99999998245E-14  0.12500000000E+03  0.12500000000E+03 0.  0.
        -11    1    1    0    0    0 -0.47328680505E+01  0.27188072318E+02 -0.25999635063E+01  0.27719147296E+02  0.51100000000E-03 0. -1.
         11    1    1    0    0    0 -0.59011950160E+01  0.34117400319E+02 -0.32995799277E+01  0.34780861621E+02  0.51100000000E-03 0.  1.
         22    1    1    0    0    0  0.10634063066E+02 -0.61305472637E+02  0.58995434340E+01  0.62499991082E+02  0.00000000000E+00 0.  1.
</event>
<event>
 4    1  0.1976955E-002  0.9118800E+02  0.7818608E-02  0.1130116E+00
         25   -1    0    0    0    0  0.00000000000E+00  0.00000000000E+00  0.99999998245E-14  0.12500000000E+03  0.12500000000E+03 0.  0.
        -11    1    1    0    0    0  0.33436285442E+02 -0.35706239064E+02 -0.21787864456E+02  0.53550272923E+02  0.51100000000E-03 0. -1.
         11    1    1    0    0    0  0.50244911723E+01 -0.64033536827E+01 -0.37512541510E+01  0.89621625679E+01  0.51100000000E-03 0.  1.
         22    1    1    0    0    0 -0.38460776615E+02  0.42109592747E+02  0.25539118607E+02  0.62487564509E+02  0.00000000000E+00 0. -1.
</event>
<event>
 4    1  0.1976955E-002  0.9118800E+02  0.7818608E-02  0.1130116E+00
         25   -1    0    0    0    0  0.00000000000E+00  0.00000000000E+00  0.99999998245E-14  0.12500000000E+03  0.12500000000E+03 0.  0.
        -11    1    1    0    0    0 -0.30627525559E+02  0.45342229912E+02 -0.22018385222E+02  0.58981119211E+02  0.51100000000E-03 0. -1.
         11    1    1    0    0    0 -0.22636476561E+01  0.22715983432E+01 -0.15153994093E+01  0.35469275965E+01  0.51100000000E-03 0.  1.
         22    1    1    0    0    0  0.32891173216E+02 -0.47613828255E+02  0.23533784632E+02  0.62471953193E+02  0.00000000000E+00 0. -1.
</event>
<event>
 4    1  0.1976955E-002  0.9118800E+02  0.7818608E-02  0.1130116E+00
         25   -1    0    0    0    0  0.00000000000E+00  0.00000000000E+00  0.99999998245E-14  0.12500000000E+03  0.12500000000E+03 0.  0.
        -11    1    1    0    0    0  0.14112792206E+02  0.42919011080E+01 -0.79315126120E+00  0.14772285136E+02  0.51100000000E-03 0. -1.
         11    1    1    0    0    0  0.45501506083E+02  0.14155437776E+02 -0.26802721764E+01  0.47727846522E+02  0.51100000000E-03 0.  1.
         22    1    1    0    0    0 -0.59614298289E+02 -0.18447338884E+02  0.34734234376E+01  0.62499868342E+02  0.00000000000E+00 0.  1.
</event>
<event>
 4    1  0.1976955E-002  0.9118800E+02  0.7818608E-02  0.1130116E+00
         25   -1    0    0    0    0  0.00000000000E+00  0.00000000000E+00  0.99999998245E-14  0.12500000000E+03  0.12500000000E+03 0.  0.
        -11    1    1    0    0    0  0.37461190474E+02  0.34474683090E+02  0.56860047968E+01  0.51226704136E+02  0.51100000000E-03 0.  1.
         11    1    1    0    0    0  0.82032342829E+01  0.76209299846E+01  0.13107946600E+01  0.11273411615E+02  0.51100000000E-03 0. -1.
         22    1    1    0    0    0 -0.45664424757E+02 -0.42095613074E+02 -0.69967994568E+01  0.62499884249E+02  0.00000000000E+00 0.  1.
</event>
<event>
 4    1  0.1976955E-002  0.9118800E+02  0.7818608E-02  0.1130116E+00
         25   -1    0    0    0    0  0.00000000000E+00  0.00000000000E+00  0.99999998245E-14  0.12500000000E+03  0.12500000000E+03 0.  0.
        -11    1    1    0    0    0  0.23927190779E+02 -0.13911542134E+02 -0.24212659480E+02  0.36773554934E+02  0.51100000000E-03 0. -1.
         11    1    1    0    0    0  0.16140713559E+02 -0.10794510156E+02 -0.16889166270E+02  0.25734957183E+02  0.51100000000E-03 0.  1.
         22    1    1    0    0    0 -0.40067904338E+02  0.24706052290E+02  0.41101825750E+02  0.62491487882E+02  0.00000000000E+00 0. -1.
</event>
<event>
 4    1  0.1976955E-002  0.9118800E+02  0.7818608E-02  0.1130116E+00
         25   -1    0    0    0    0  0.00000000000E+00  0.00000000000E+00  0.99999998245E-14  0.12500000000E+03  0.12500000000E+03 0.  0.
        -11    1    1    0    0    0 -0.84741042580E+01  0.29739010864E+02 -0.15935589687E+02  0.34787386063E+02  0.51100000000E-03 0. -1.
         11    1    1    0    0    0 -0.67623514549E+01  0.23687356367E+02 -0.12695226020E+02  0.27712614687E+02  0.51100000000E-03 0.  1.
         22    1    1    0    0    0  0.15236455713E+02 -0.53426367231E+02  0.28630815707E+02  0.62499999250E+02  0.00000000000E+00 0. -1.
</event>
<event>
 4    1  0.1976955E-002  0.9118800E+02  0.7818608E-02  0.1130116E+00
         25   -1    0    0    0    0  0.00000000000E+00  0.00000000000E+00  0.99999998245E-14  0.12500000000E+03  0.12500000000E+03 0.  0.
        -11    1    1    0    0    0 -0.27450049141E+01 -0.32906447928E+01 -0.19392296419E+02  0.19860124767E+02  0.51100000000E-03 0. -1.
         11    1    1    0    0    0 -0.59749240152E+01 -0.72464211957E+01 -0.41592730032E+02  0.42639952262E+02  0.51100000000E-03 0.  1.
         22    1    1    0    0    0  0.87199289292E+01  0.10537065988E+02  0.60985026450E+02  0.62499922971E+02  0.00000000000E+00 0.  1.
</event>
<event>
 4    1  0.1976955E-002  0.9118800E+02  0.7818608E-02  0.1130116E+00
         25   -1    0    0    0    0  0.00000000000E+00  0.00000000000E+00  0.99999998245E-14  0.12500000000E+03  0.12500000000E+03 0.  0.
        -11    1    1    0    0    0  0.19425222949E+02  0.14145027780E+02 -0.86255357249E+00  0.24045063869E+02  0.51100000000E-03 0. -1.
         11    1    1    0    0    0  0.22921931914E+02  0.20117110951E+02 -0.26131150468E+02  0.40161550527E+02  0.51100000000E-03 0.  1.
         22    1    1    0    0    0 -0.42347154864E+02 -0.34262138731E+02  0.26993704040E+02  0.60793385604E+02  0.00000000000E+00 0.  1.
</event>
<event>
 4    1  0.1976955E-002  0.9118800E+02  0.7818608E-02  0.1130116E+00
         25   -1    0    0    0    0  0.00000000000E+00  0.00000000000E+00  0.99999998245E-14  0.12500000000E+03  0.12500000000E+03 0.  0.
        -11    1    1    0    0    0  0.48993615852E+02 -0.21865438198E+02 -0.16947929067E+01  0.53678152959E+02  0.51100000000E-03 0. -1.
         11    1    1    0    0    0  0.84582580124E+01 -0.26063923466E+01  0.46860740445E+00  0.88631260191E+01  0.51100000000E-03 0.  1.
         22    1    1    0    0    0 -0.57451873865E+02  0.24471830544E+02  0.12261855023E+01  0.62458721022E+02  0.00000000000E+00 0. -1.
</event>
<event>
 4    1  0.1976955E-002  0.9118800E+02  0.7818608E-02  0.1130116E+00
         25   -1    0    0    0    0  0.00000000000E+00  0.00000000000E+00  0.99999998245E-14  0.12500000000E+03  0.12500000000E+03 0.  0.
        -11    1    1    0    0    0  0.14579782368E+02 -0.47008485375E+02  0.38390284759E+01  0.49367052687E+02  0.51100000000E-03 0.  1.
         11    1    1    0    0    0  0.12543102600E+02 -0.75188012831E+01 -0.23602450696E+00  0.14625918891E+02  0.51100000000E-03 0. -1.
         22    1    1    0    0    0 -0.27122884968E+02  0.54527286658E+02 -0.36030039689E+01  0.61007028422E+02  0.00000000000E+00 0.  1.
</event>
<event>
 4    1  0.1976955E-002  0.9118800E+02  0.7818608E-02  0.1130116E+00
         25   -1    0    0    0    0  0.00000000000E+00  0.00000000000E+00  0.99999998245E-14  0.12500000000E+03  0.12500000000E+03 0.  0.
        -11    1    1    0    0    0 -0.12674463517E+01 -0.69956391283E+01  0.17840056278E+01  0.73299429336E+01  0.51100000000E-03 0. -1.
         11    1    1    0    0    0 -0.91411178360E+01 -0.52749855081E+02  0.13328105112E+02  0.55170151644E+02  0.51100000000E-03 0.  1.
         22    1    1    0    0    0  0.10408564188E+02  0.59745494209E+02 -0.15112110739E+02  0.62499905422E+02  0.00000000000E+00 0.  1.
</event>
<event>
 4    1  0.1976955E-002  0.9118800E+02  0.7818608E-02  0.1130116E+00
         25   -1    0    0    0    0  0.00000000000E+00  0.00000000000E+00  0.99999998245E-14  0.12500000000E+03  0.12500000000E+03 0.  0.
        -11    1    1    0    0    0  0.23057627109E+02  0.53867227816E+02  0.18032790735E+02  0.61306720206E+02  0.51100000000E-03 0.  1.
         11    1    1    0    0    0  0.90091955084E+00 -0.16383625770E+00  0.14754791235E+01  0.17365302362E+01  0.51100000000E-03 0. -1.
         22    1    1    0    0    0 -0.23958546660E+02 -0.53703391558E+02 -0.19508269858E+02  0.61956749558E+02  0.00000000000E+00 0.  1.
</event>
<event>
 4    1  0.1976955E-002  0.9118800E+02  0.7818608E-02  0.1130116E+00
         25   -1    0    0    0    0  0.00000000000E+00  0.00000000000E+00  0.99999998245E-14  0.12500000000E+03  0.12500000000E+03 0.  0.
        -11    1    1    0    0    0  0.30037939096E+02  0.17176368128E+02  0.67452484256E+01  0.35253422298E+02  0.51100000000E-03 0.  1.
         11    1    1    0    0    0  0.23159260993E+02  0.13361077341E+02  0.52449497228E+01  0.27246637505E+02  0.51100000000E-03 0. -1.
         22    1    1    0    0    0 -0.53197200088E+02 -0.30537445469E+02 -0.11990198148E+02  0.62499940197E+02  0.00000000000E+00 0. -1.
</event>
<event>
 4    1  0.1976955E-002  0.9118800E+02  0.7818608E-02  0.1130116E+00
         25   -1    0    0    0    0  0.00000000000E+00  0.00000000000E+00  0.99999998245E-14  0.12500000000E+03  0.12500000000E+03 0.  0.
        -11    1    1    0    0    0  0.11400831969E+02 -0.11021300735E+02 -0.81373743188E+01  0.17823156301E+02  0.51100000000E-03 0. -1.
         11    1    1    0    0    0  0.28570339330E+02 -0.27623756245E+02 -0.20412844171E+02  0.44676844180E+02  0.51100000000E-03 0.  1.
         22    1    1    0    0    0 -0.39971171299E+02  0.38645056980E+02  0.28550218490E+02  0.62499999518E+02  0.00000000000E+00 0.  1.
</event>
<event>
 4    1  0.1976955E-002  0.9118800E+02  0.7818608E-02  0.1130116E+00
         25   -1    0    0    0    0  0.00000000000E+00  0.00000000000E+00  0.99999998245E-14  0.12500000000E+03  0.12500000000E+03 0.  0.
        -11    1    1    0    0    0 -0.78848681620E+01  0.37920777362E+02  0.55825033087E+01  0.39132094821E+02  0.51100000000E-03 0.  1.
         11    1    1    0    0    0 -0.46256243913E+01  0.22685291568E+02  0.31703550199E+01  0.23368140828E+02  0.51100000000E-03 0. -1.
         22    1    1    0    0    0  0.12510492553E+02 -0.60606068930E+02 -0.87528583286E+01  0.62499764351E+02  0.00000000000E+00 0. -1.
</event>
<event>
 4    1  0.1976955E-002  0.9118800E+02  0.7818608E-02  0.1130116E+00
         25   -1    0    0    0    0  0.00000000000E+00  0.00000000000E+00  0.99999998245E-14  0.12500000000E+03  0.12500000000E+03 0.  0.
        -11    1    1    0    0    0 -0.48097069072E+02 -0.26665773352E+02  0.14021207331E+02  0.56753729190E+02  0.51100000000E-03 0.  1.
         11    1    1    0    0    0 -0.48728398583E+01 -0.26963420422E+01  0.14159151199E+01  0.57462722335E+01  0.51100000000E-03 0. -1.
         22    1    1    0    0    0  0.52969908930E+02  0.29362115394E+02 -0.15437122451E+02  0.62499998576E+02  0.00000000000E+00 0.  1.
</event>
<event>
 4    1  0.1976955E-002  0.9118800E+02  0.7818608E-02  0.1130116E+00
         25   -1    0    0    0    0  0.00000000000E+00  0.00000000000E+00  0.99999998245E-14  0.12500000000E+03  0.12500000000E+03 0.  0.
        -11    1    1    0    0    0 -0.26346981046E+02  0.23439179910E+02  0.22074232246E+02  0.41603248607E+02  0.51100000000E-03 0. -1.
         11    1    1    0    0    0 -0.13234765184E+02  0.11769752113E+02  0.11090002284E+02  0.20896751546E+02  0.51100000000E-03 0.  1.
         22    1    1    0    0    0  0.39581746230E+02 -0.35208932024E+02 -0.33164234531E+02  0.62499999847E+02  0.00000000000E+00 0. -1.
</event>
<event>
 4    1  0.1976955E-002  0.9118800E+02  0.7818608E-02  0.1130116E+00
         25   -1    0    0    0    0  0.00000000000E+00  0.00000000000E+00  0.99999998245E-14  0.12500000000E+03  0.12500000000E+03 0.  0.
        -11    1    1    0    0    0 -0.59126897310E+01  0.88305501786E+01  0.78645712606E+01  0.13220816831E+02  0.51100000000E-03 0. -1.
         11    1    1    0    0    0 -0.45674713257E+02  0.21599448629E+02  0.41422575464E+01  0.50693923798E+02  0.51100000000E-03 0.  1.
         22    1    1    0    0    0  0.51587402988E+02 -0.30429998807E+02 -0.12006828807E+02  0.61085259371E+02  0.00000000000E+00 0.  1.
</event>
<event>
 4    1  0.1976955E-002  0.9118800E+02  0.7818608E-02  0.1130116E+00
         25   -1    0    0    0    0  0.00000000000E+00  0.00000000000E+00  0.99999998245E-14  0.12500000000E+03  0.12500000000E+03 0.  0.
        -11    1    1    0    0    0  0.23850382458E+02 -0.12449502583E+02 -0.10156619083E+02  0.28757395039E+02  0.51100000000E-03 0. -1.
         11    1    1    0    0    0  0.28055925231E+02 -0.14595363367E+02 -0.11764793357E+02  0.33742701957E+02  0.51100000000E-03 0.  1.
         22    1    1    0    0    0 -0.51906307689E+02  0.27044865951E+02  0.21921412439E+02  0.62499903004E+02  0.00000000000E+00 0.  1.
</event>
<event>
 4    1  0.1976955E-002  0.9118800E+02  0.7818608E-02  0.1130116E+00
         25   -1    0    0    0    0  0.00000000000E+00  0.00000000000E+00  0.99999998245E-14  0.12500000000E+03  0.12500000000E+03 0.  0.
        -11    1    1    0    0    0  0.34769779206E+01  0.80289689328E+00  0.44147799797E+01  0.56766452603E+01  0.51100000000E-03 0.  1.
         11    1    1    0    0    0  0.36506979475E+02  0.88618693915E+01  0.42636530815E+02  0.56825751555E+02  0.51100000000E-03 0. -1.
         22    1    1    0    0    0 -0.39983957396E+02 -0.96647662848E+01 -0.47051310795E+02  0.62497603185E+02  0.00000000000E+00 0. -1.
</event>
<event>
 4    1  0.1976955E-002  0.9118800E+02  0.7818608E-02  0.1130116E+00
         25   -1    0    0    0    0  0.00000000000E+00  0.00000000000E+00  0.99999998245E-14  0.12500000000E+03  0.12500000000E+03 0.  0.
        -11    1    1    0    0    0 -0.96568684976E+01 -0.22756295589E+02  0.24772147400E+02  0.34996619625E+02  0.51100000000E-03 0.  1.
         11    1    1    0    0    0 -0.98406455910E+01 -0.14997136299E+02  0.20953716727E+02  0.27582796228E+02  0.51100000000E-03 0. -1.
         22    1    1    0    0    0  0.19497514089E+02  0.37753431888E+02 -0.45725864128E+02  0.62420584146E+02  0.00000000000E+00 0.  1.
</event>
<event>
 4    1  0.1976955E-002  0.9118800E+02  0.7818608E-02  0.1130116E+00
         25   -1    0    0    0    0  0.00000000000E+00  0.00000000000E+00  0.99999998245E-14  0.12500000000E+03  0.12500000000E+03 0.  0.
        -11    1    1    0    0    0  0.15547018518E+02  0.31925545159E+02 -0.11186660335E+02  0.37230250982E+02  0.51100000000E-03 0. -1.
         11    1    1    0    0    0  0.10550995845E+02  0.21669675167E+02 -0.75935420600E+01  0.25269749038E+02  0.51100000000E-03 0.  1.
         22    1    1    0    0    0 -0.26098014363E+02 -0.53595220326E+02  0.18780202395E+02  0.62499999980E+02  0.00000000000E+00 0. -1.
</event>
<event>
 4    1  0.1976955E-002  0.9118800E+02  0.7818608E-02  0.1130116E+00
         25   -1    0    0    0    0  0.00000000000E+00  0.00000000000E+00  0.99999998245E-14  0.12500000000E+03  0.12500000000E+03 0.  0.
        -11    1    1    0    0    0 -0.13598550219E+01 -0.79533106100E+01  0.43056120356E+01  0.91456356040E+01  0.51100000000E-03 0.  1.
         11    1    1    0    0    0 -0.79341485074E+01 -0.46435199045E+02  0.25050154024E+02  0.53354368516E+02  0.51100000000E-03 0. -1.
         22    1    1    0    0    0  0.92940035293E+01  0.54388509655E+02 -0.29355766059E+02  0.62499995880E+02  0.00000000000E+00 0. -1.
</event>
<event>
 4    1  0.1976955E-002  0.9118800E+02  0.7818608E-02  0.1130116E+00
         25   -1    0    0    0    0  0.00000000000E+00  0.00000000000E+00  0.99999998245E-14  0.12500000000E+03  0.12500000000E+03 0.  0.
        -11    1    1    0    0    0  0.40931794190E+02  0.93668494988E+01 -0.22305374716E+02  0.47546602261E+02  0.51100000000E-03 0. -1.
         11    1    1    0    0    0  0.13113551196E+02  0.28091647847E+01 -0.66208527701E+01  0.14956347262E+02  0.51100000000E-03 0.  1.
         22    1    1    0    0    0 -0.54045345386E+02 -0.12176014284E+02  0.28926227486E+02  0.62497050477E+02  0.00000000000E+00 0. -1.
</event>
<event>
 4    1  0.1976955E-002  0.9118800E+02  0.7818608E-02  0.1130116E+00
         25   -1    0    0    0    0  0.00000000000E+00  0.00000000000E+00  0.99999998245E-14  0.12500000000E+03  0.12500000000E+03 0.  0.
        -11    1    1    0    0    0  0.22169457398E+02 -0.47302699987E+02 -0.17282485620E+02  0.55024672438E+02  0.51100000000E-03 0.  1.
         11    1    1    0    0    0  0.31004102028E+01 -0.64571538519E+01 -0.21436830475E+01  0.74768145999E+01  0.51100000000E-03 0. -1.
         22    1    1    0    0    0 -0.25269867601E+02  0.53759853839E+02  0.19426168667E+02  0.62498512962E+02  0.00000000000E+00 0.  1.
</event>
<event>
 4    1  0.1976955E-002  0.9118800E+02  0.7818608E-02  0.1130116E+00
         25   -1    0    0    0    0  0.00000000000E+00  0.00000000000E+00  0.99999998245E-14  0.12500000000E+03  0.12500000000E+03 0.  0.
        -11    1    1    0    0    0  0.65475216799E+00  0.57405218424E+01  0.19398067404E+01  0.60946814417E+01  0.51100000000E-03 0. -1.
         11    1    1    0    0    0  0.60612386146E+01  0.53126323208E+02  0.17955921928E+02  0.56405318577E+02  0.51100000000E-03 0.  1.
         22    1    1    0    0    0 -0.67159907825E+01 -0.58866845051E+02 -0.19895728669E+02  0.62499999982E+02  0.00000000000E+00 0.  1.
</event>
<event>
 4    1  0.1976955E-002  0.9118800E+02  0.7818608E-02  0.1130116E+00
         25   -1    0    0    0    0  0.00000000000E+00  0.00000000000E+00  0.99999998245E-14  0.12500000000E+03  0.12500000000E+03 0.  0.
        -11    1    1    0    0    0  0.36943335556E+02  0.44137291627E+02  0.14127057498E+02  0.59266215570E+02  0.51100000000E-03 0. -1.
         11    1    1    0    0    0  0.20190674946E+01  0.24057206285E+01  0.77022386969E+00  0.32337857630E+01  0.51100000000E-03 0.  1.
         22    1    1    0    0    0 -0.38962403051E+02 -0.46543012255E+02 -0.14897281368E+02  0.62499998667E+02  0.00000000000E+00 0. -1.
</event>
<event>
 4    1  0.1976955E-002  0.9118800E+02  0.7818608E-02  0.1130116E+00
         25   -1    0    0    0    0  0.00000000000E+00  0.00000000000E+00  0.99999998245E-14  0.12500000000E+03  0.12500000000E+03 0.  0.
        -11    1    1    0    0    0 -0.15514059063E+02 -0.13011772826E+02  0.49110316914E+02  0.53120763251E+02  0.51100000000E-03 0. -1.
         11    1    1    0    0    0 -0.27180643795E+01 -0.22963846849E+01  0.86780779340E+01  0.93792480233E+01  0.51100000000E-03 0.  1.
         22    1    1    0    0    0  0.18232123442E+02  0.15308157511E+02 -0.57788394848E+02  0.62499988726E+02  0.00000000000E+00 0. -1.
</event>
<event>
 4    1  0.1976955E-002  0.9118800E+02  0.7818608E-02  0.1130116E+00
         25   -1    0    0    0    0  0.00000000000E+00  0.00000000000E+00  0.99999998245E-14  0.12500000000E+03  0.12500000000E+03 0.  0.
        -11    1    1    0    0    0 -0.85397835247E+01  0.77061021046E+00 -0.28591791737E+02  0.29849829107E+02  0.51100000000E-03 0. -1.
         11    1    1    0    0    0 -0.93358339144E+01  0.83689980994E+00 -0.31275797011E+02  0.32650171134E+02  0.51100000000E-03 0.  1.
         22    1    1    0    0    0  0.17875617439E+02 -0.16075100204E+01  0.59867588748E+02  0.62499999758E+02  0.00000000000E+00 0.  1.
</event>
<event>
 4    1  0.1976955E-002  0.9118800E+02  0.7818608E-02  0.1130116E+00
         25   -1    0    0    0    0  0.00000000000E+00  0.00000000000E+00  0.99999998245E-14  0.12500000000E+03  0.12500000000E+03 0.  0.
        -11    1    1    0    0    0 -0.15486418452E+01 -0.17177992360E+02  0.32615858704E+01  0.17553337453E+02  0.51100000000E-03 0.  1.
         11    1    1    0    0    0 -0.39619287738E+01 -0.43987422768E+02  0.83433952558E+01  0.44946662680E+02  0.51100000000E-03 0. -1.
         22    1    1    0    0    0  0.55105706191E+01  0.61165415129E+02 -0.11604981126E+02  0.62499999867E+02  0.00000000000E+00 0. -1.
</event>
<event>
 4    1  0.1976955E-002  0.9118800E+02  0.7818608E-02  0.1130116E+00
         25   -1    0    0    0    0  0.00000000000E+00  0.00000000000E+00  0.99999998245E-14  0.12500000000E+03  0.12500000000E+03 0.  0.
        -11    1    1    0    0    0  0.43259649616E+02 -0.27031186779E+02  0.14798883048E+02  0.53113927395E+02  0.51100000000E-03 0. -1.
         11    1    1    0    0    0  0.71648876861E+01 -0.27441679444E+01  0.60029179148E+01  0.97417194075E+01  0.51100000000E-03 0.  1.
         22    1    1    0    0    0 -0.50424537302E+02  0.29775354724E+02 -0.20801800963E+02  0.62144353198E+02  0.00000000000E+00 0. -1.
</event>
<event>
 4    1  0.1976955E-002  0.9118800E+02  0.7818608E-02  0.1130116E+00
         25   -1    0    0    0    0  0.00000000000E+00  0.00000000000E+00  0.99999998245E-14  0.12500000000E+03  0.12500000000E+03 0.  0.
        -11    1    1    0    0    0  0.37465486425E+01  0.20837782431E+02 -0.90796087088E+01  0.23036690256E+02  0.51100000000E-03 0.  1.
         11    1    1    0    0    0  0.64112726587E+01  0.35702998789E+02 -0.15541696193E+02  0.39463310307E+02  0.51100000000E-03 0. -1.
         22    1    1    0    0    0 -0.10157821301E+02 -0.56540781220E+02  0.24621304901E+02  0.62499999437E+02  0.00000000000E+00 0. -1.
</event>
<event>
 4    1  0.1976955E-002  0.9118800E+02  0.7818608E-02  0.1130116E+00
         25   -1    0    0    0    0  0.00000000000E+00  0.00000000000E+00  0.99999998245E-14  0.12500000000E+03  0.12500000000E+03 0.  0.
        -11    1    1    0    0    0 -0.16144226828E+02 -0.44423890429E+02  0.64409647422E+01  0.47703292630E+02  0.51100000000E-03 0.  1.
         11    1    1    0    0    0 -0.50035901286E+01 -0.13781154850E+02  0.19966005301E+01  0.14796707645E+02  0.51100000000E-03 0. -1.
         22    1    1    0    0    0  0.21147816956E+02  0.58205045279E+02 -0.84375652723E+01  0.62499999725E+02  0.00000000000E+00 0.  1.
</event>
<event>
 4    1  0.1976955E-002  0.9118800E+02  0.7818608E-02  0.1130116E+00
         25   -1    0    0    0    0  0.00000000000E+00  0.00000000000E+00  0.99999998245E-14  0.12500000000E+03  0.12500000000E+03 0.  0.
        -11    1    1    0    0    0 -0.14353286408E+02 -0.21612103514E+02  0.91026994434E+01  0.27494708336E+02  0.51100000000E-03 0. -1.
         11    1    1    0    0    0 -0.18289938657E+02 -0.27590733863E+02  0.11384660304E+02  0.35005441600E+02  0.51100000000E-03 0.  1.
         22    1    1    0    0    0  0.32643225065E+02  0.49202837377E+02 -0.20487359748E+02  0.62499850064E+02  0.00000000000E+00 0. -1.
</event>
<event>
 4    1  0.1976955E-002  0.9118800E+02  0.7818608E-02  0.1130116E+00
         25   -1    0    0    0    0  0.00000000000E+00  0.00000000000E+00  0.99999998245E-14  0.12500000000E+03  0.12500000000E+03 0.  0.
        -11    1    1    0    0    0 -0.17892350777E+02  0.17049964581E+02 -0.42420458686E+02  0.49095140532E+02  0.51100000000E-03 0.  1.
         11    1    1    0    0    0 -0.48837924562E+01  0.46553191286E+01 -0.11583040765E+02  0.13404859513E+02  0.51100000000E-03 0. -1.
         22    1    1    0    0    0  0.22776143233E+02 -0.21705283710E+02  0.54003499450E+02  0.62499999955E+02  0.00000000000E+00 0.  1.
</event>
<event>
 4    1  0.1976955E-002  0.9118800E+02  0.7818608E-02  0.1130116E+00
         25   -1    0    0    0    0  0.00000000000E+00  0.00000000000E+00  0.99999998245E-14  0.12500000000E+03  0.12500000000E+03 0.  0.
        -11    1    1    0    0    0 -0.15503191722E+02  0.27504824008E+02  0.31026713920E+01  0.31725240225E+02  0.51100000000E-03 0. -1.
         11    1    1    0    0    0 -0.11262008237E+02  0.11324573743E+02  0.31138013955E+02  0.34995066986E+02  0.51100000000E-03 0.  1.
         22    1    1    0    0    0  0.26765199959E+02 -0.38829397751E+02 -0.34240685347E+02  0.58279692789E+02  0.00000000000E+00 0. -1.
</event>
<event>
 4    1  0.1976955E-002  0.9118800E+02  0.7818608E-02  0.1130116E+00
         25   -1    0    0    0    0  0.00000000000E+00  0.00000000000E+00  0.99999998245E-14  0.12500000000E+03  0.12500000000E+03 0.  0.
        -11    1    1    0    0    0 -0.67944764866E+01  0.51979150887E+02  0.15243195738E+02  0.54592600728E+02  0.51100000000E-03 0.  1.
         11    1    1    0    0    0 -0.10144988267E+01  0.75240134407E+01  0.22107449929E+01  0.79074256120E+01  0.51100000000E-03 0. -1.
         22    1    1    0    0    0  0.78089753133E+01 -0.59503164328E+02 -0.17453940731E+02  0.62499973660E+02  0.00000000000E+00 0.  1.
</event>
<event>
 4    1  0.1976955E-002  0.9118800E+02  0.7818608E-02  0.1130116E+00
         25   -1    0    0    0    0  0.00000000000E+00  0.00000000000E+00  0.99999998245E-14  0.12500000000E+03  0.12500000000E+03 0.  0.
        -11    1    1    0    0    0 -0.27008728730E+01  0.25828975204E+00  0.60756050158E+00  0.27803880838E+01  0.51100000000E-03 0.  1.
         11    1    1    0    0    0 -0.41070062848E+02  0.42714489541E+02 -0.10221329061E+02  0.60131133759E+02  0.51100000000E-03 0. -1.
         22    1    1    0    0    0  0.43770935721E+02 -0.42972779293E+02  0.96137685590E+01  0.62088478158E+02  0.00000000000E+00 0. -1.
</event>
<event>
 4    1  0.1976955E-002  0.9118800E+02  0.7818608E-02  0.1130116E+00
         25   -1    0    0    0    0  0.00000000000E+00  0.00000000000E+00  0.99999998245E-14  0.12500000000E+03  0.12500000000E+03 0.  0.
        -11    1    1    0    0    0 -0.19579843071E+02  0.21597290194E+02  0.45330893444E+01  0.29501899899E+02  0.51100000000E-03 0. -1.
         11    1    1    0    0    0 -0.21900804242E+02  0.24156225432E+02  0.50701239497E+01  0.32998100107E+02  0.51100000000E-03 0.  1.
         22    1    1    0    0    0  0.41480647313E+02 -0.45753515626E+02 -0.96032132941E+01  0.62499999993E+02  0.00000000000E+00 0.  1.
</event>
<event>
 4    1  0.1976955E-002  0.9118800E+02  0.7818608E-02  0.1130116E+00
         25   -1    0    0    0    0  0.00000000000E+00  0.00000000000E+00  0.99999998245E-14  0.12500000000E+03  0.12500000000E+03 0.  0.
        -11    1    1    0    0    0  0.83123754266E+01 -0.94144613719E+01  0.12557710511E+02  0.17760173470E+02  0.51100000000E-03 0. -1.
         11    1    1    0    0    0  0.17071296325E+02 -0.23338836460E+02  0.34184694596E+02  0.44774141984E+02  0.51100000000E-03 0.  1.
         22    1    1    0    0    0 -0.25383671752E+02  0.32753297832E+02 -0.46742405108E+02  0.62465684545E+02  0.00000000000E+00 0.  1.
</event>
<event>
 4    1  0.1976955E-002  0.9118800E+02  0.7818608E-02  0.1130116E+00
         25   -1    0    0    0    0  0.00000000000E+00  0.00000000000E+00  0.99999998245E-14  0.12500000000E+03  0.12500000000E+03 0.  0.
        -11    1    1    0    0    0 -0.13494818818E+02  0.11822293874E+02  0.78039747804E+01  0.19564733323E+02  0.51100000000E-03 0.  1.
         11    1    1    0    0    0 -0.31768770684E+02  0.18498534808E+02  0.22492666774E+02  0.43097223108E+02  0.51100000000E-03 0. -1.
         22    1    1    0    0    0  0.45263589501E+02 -0.30320828682E+02 -0.30296641554E+02  0.62338043569E+02  0.00000000000E+00 0. -1.
</event>
<event>
 4    1  0.1976955E-002  0.9118800E+02  0.7818608E-02  0.1130116E+00
         25   -1    0    0    0    0  0.00000000000E+00  0.00000000000E+00  0.99999998245E-14  0.12500000000E+03  0.12500000000E+03 0.  0.
        -11    1    1    0    0    0 -0.63977131326E+01 -0.23426574530E+02 -0.14618079651E+02  0.28344724033E+02  0.51100000000E-03 0. -1.
         11    1    1    0    0    0 -0.77309736736E+01 -0.28184026022E+02 -0.17677020226E+02  0.34155297116E+02  0.51100000000E-03 0.  1.
         22    1    1    0    0    0  0.14128686806E+02  0.51610600553E+02  0.32295099877E+02  0.62499978851E+02  0.00000000000E+00 0. -1.
</event>
<event>
 4    1  0.1976955E-002  0.9118800E+02  0.7818608E-02  0.1130116E+00
         25   -1    0    0    0    0  0.00000000000E+00  0.00000000000E+00  0.99999998245E-14  0.12500000000E+03  0.12500000000E+03 0.  0.
        -11    1    1    0    0    0  0.12533536929E+02  0.23139469436E+01 -0.78126038252E+01  0.14949270123E+02  0.51100000000E-03 0.  1.
         11    1    1    0    0    0  0.37102420230E+02 -0.64086246694E+01 -0.29489643775E+02  0.47825716380E+02  0.51100000000E-03 0. -1.
         22    1    1    0    0    0 -0.49635957159E+02  0.40946777258E+01  0.37302247600E+02  0.62225013497E+02  0.00000000000E+00 0. -1.
</event>
<event>
 4    1  0.1976955E-002  0.9118800E+02  0.7818608E-02  0.1130116E+00
         25   -1    0    0    0    0  0.00000000000E+00  0.00000000000E+00  0.99999998245E-14  0.12500000000E+03  0.12500000000E+03 0.  0.
        -11    1    1    0    0    0 -0.48839044646E+02 -0.17609118444E+02 -0.16688721843E+02  0.54532987919E+02  0.51100000000E-03 0. -1.
         11    1    1    0    0    0 -0.71029063346E+01 -0.26999117542E+01 -0.23959921836E+01  0.79675329108E+01  0.51100000000E-03 0.  1.
         22    1    1    0    0    0  0.55941950981E+02  0.20309030198E+02  0.19084714027E+02  0.62499479171E+02  0.00000000000E+00 0. -1.
</event>
<event>
 4    1  0.1976955E-002  0.9118800E+02  0.7818608E-02  0.1130116E+00
         25   -1    0    0    0    0  0.00000000000E+00  0.00000000000E+00  0.99999998245E-14  0.12500000000E+03  0.12500000000E+03 0.  0.
        -11    1    1    0    0    0 -0.21709671286E+02  0.12203830546E+02 -0.13781663500E+02  0.28463618119E+02  0.51100000000E-03 0. -1.
         11    1    1    0    0    0 -0.25981189425E+02  0.14450793868E+02 -0.16572093886E+02  0.34036479598E+02  0.51100000000E-03 0.  1.
         22    1    1    0    0    0  0.47690860711E+02 -0.26654624414E+02  0.30353757386E+02  0.62499902284E+02  0.00000000000E+00 0.  1.
</event>
<event>
 4    1  0.1976955E-002  0.9118800E+02  0.7818608E-02  0.1130116E+00
         25   -1    0    0    0    0  0.00000000000E+00  0.00000000000E+00  0.99999998245E-14  0.12500000000E+03  0.12500000000E+03 0.  0.
        -11    1    1    0    0    0 -0.13535191154E+02  0.29305261158E+02  0.34163325441E+02  0.47001409942E+02  0.51100000000E-03 0. -1.
         11    1    1    0    0    0 -0.44623376613E+01  0.96637465627E+01  0.11265249176E+02  0.15498590074E+02  0.51100000000E-03 0. -1.
         22    1    1    0    0    0  0.17997528815E+02 -0.38969007720E+02 -0.45428574617E+02  0.62499999983E+02  0.00000000000E+00 0. -1.
</event>
<event>
 4    1  0.1976955E-002  0.9118800E+02  0.7818608E-02  0.1130116E+00
         25   -1    0    0    0    0  0.00000000000E+00  0.00000000000E+00  0.99999998245E-14  0.12500000000E+03  0.12500000000E+03 0.  0.
        -11    1    1    0    0    0 -0.21841743722E+02  0.15215433069E+02 -0.39747270150E+02  0.47837398100E+02  0.51100000000E-03 0. -1.
         11    1    1    0    0    0 -0.66970187788E+01  0.46635375515E+01 -0.12181676979E+02  0.14662601996E+02  0.51100000000E-03 0.  1.
         22    1    1    0    0    0  0.28538762501E+02 -0.19878970621E+02  0.51928947129E+02  0.62499999904E+02  0.00000000000E+00 0. -1.
</event>
<event>
 4    1  0.1976955E-002  0.9118800E+02  0.7818608E-02  0.1130116E+00
         25   -1    0    0    0    0  0.00000000000E+00  0.00000000000E+00  0.99999998245E-14  0.12500000000E+03  0.12500000000E+03 0.  0.
        -11    1    1    0    0    0 -0.14880738413E+02  0.17973253946E+02  0.10661082213E+01  0.23358313726E+02  0.51100000000E-03 0.  1.
         11    1    1    0    0    0 -0.25581202456E+02  0.29631793385E+02  0.36254366516E+00  0.39148084710E+02  0.51100000000E-03 0. -1.
         22    1    1    0    0    0  0.40461940869E+02 -0.47605047330E+02 -0.14286518864E+01  0.62493601564E+02  0.00000000000E+00 0. -1.
</event>
<event>
 4    1  0.1976955E-002  0.9118800E+02  0.7818608E-02  0.1130116E+00
         25   -1    0    0    0    0  0.00000000000E+00  0.00000000000E+00  0.99999998245E-14  0.12500000000E+03  0.12500000000E+03 0.  0.
        -11    1    1    0    0    0 -0.20169778259E+02 -0.25615140184E+00  0.46647137054E+02  0.50821658416E+02  0.51100000000E-03 0. -1.
         11    1    1    0    0    0 -0.46573279240E+01 -0.15309651088E+00  0.10708565796E+02  0.11678506908E+02  0.51100000000E-03 0.  1.
         22    1    1    0    0    0  0.24827106183E+02  0.40924791272E+00 -0.57355702849E+02  0.62499834677E+02  0.00000000000E+00 0. -1.
</event>
<event>
 4    1  0.1976955E-002  0.9118800E+02  0.7818608E-02  0.1130116E+00
         25   -1    0    0    0    0  0.00000000000E+00  0.00000000000E+00  0.99999998245E-14  0.12500000000E+03  0.12500000000E+03 0.  0.
        -11    1    1    0    0    0  0.86883395155E+01  0.20222746739E+02 -0.86966073476E+01  0.23665960974E+02  0.51100000000E-03 0. -1.
         11    1    1    0    0    0  0.14244517027E+02  0.33185775827E+02 -0.14278678055E+02  0.38834039577E+02  0.51100000000E-03 0.  1.
         22    1    1    0    0    0 -0.22932856542E+02 -0.53408522566E+02  0.22975285403E+02  0.62499999450E+02  0.00000000000E+00 0.  1.
</event>
<event>
 4    1  0.1976955E-002  0.9118800E+02  0.7818608E-02  0.1130116E+00
         25   -1    0    0    0    0  0.00000000000E+00  0.00000000000E+00  0.99999998245E-14  0.12500000000E+03  0.12500000000E+03 0.  0.
        -11    1    1    0    0    0  0.11311429557E+01 -0.25214719789E+02 -0.40855125099E+02  0.48022940618E+02  0.51100000000E-03 0.  1.
         11    1    1    0    0    0  0.33736930454E+00 -0.76022817099E+01 -0.12315711453E+02  0.14477059580E+02  0.51100000000E-03 0. -1.
         22    1    1    0    0    0 -0.14685122602E+01  0.32817001499E+02  0.53170836552E+02  0.62499999802E+02  0.00000000000E+00 0.  1.
</event>
<event>
 4    1  0.1976955E-002  0.9118800E+02  0.7818608E-02  0.1130116E+00
         25   -1    0    0    0    0  0.00000000000E+00  0.00000000000E+00  0.99999998245E-14  0.12500000000E+03  0.12500000000E+03 0.  0.
        -11    1    1    0    0    0  0.49898649786E+02 -0.31690844692E+02 -0.17256542216E+02  0.61578999158E+02  0.51100000000E-03 0.  1.
         11    1    1    0    0    0  0.10926138158E+01  0.45977376321E+00  0.23913823058E-03  0.11854101324E+01  0.51100000000E-03 0. -1.
         22    1    1    0    0    0 -0.50991263602E+02  0.31231070929E+02  0.17256303078E+02  0.62235590710E+02  0.00000000000E+00 0.  1.
</event>
<event>
 4    1  0.1976955E-002  0.9118800E+02  0.7818608E-02  0.1130116E+00
         25   -1    0    0    0    0  0.00000000000E+00  0.00000000000E+00  0.99999998245E-14  0.12500000000E+03  0.12500000000E+03 0.  0.
        -11    1    1    0    0    0 -0.10985610400E+02 -0.12322221571E+01 -0.56244563232E+01  0.12403084959E+02  0.51100000000E-03 0. -1.
         11    1    1    0    0    0 -0.44352199196E+02 -0.49367311836E+01 -0.22764279561E+02  0.50096919191E+02  0.51100000000E-03 0.  1.
         22    1    1    0    0    0  0.55337809596E+02  0.61689533407E+01  0.28388735884E+02  0.62499995850E+02  0.00000000000E+00 0.  1.
</event>
<event>
 4    1  0.1976955E-002  0.9118800E+02  0.7818608E-02  0.1130116E+00
         25   -1    0    0    0    0  0.00000000000E+00  0.00000000000E+00  0.99999998245E-14  0.12500000000E+03  0.12500000000E+03 0.  0.
        -11    1    1    0    0    0  0.10234885687E+02  0.19104339577E+02  0.52641627305E+01  0.22303364885E+02  0.51100000000E-03 0. -1.
         11    1    1    0    0    0 -0.50371332257E+02 -0.16216984606E+02 -0.24241850711E+02  0.58205919194E+02  0.51100000000E-03 0.  1.
         22    1    1    0    0    0  0.40136446570E+02 -0.28873549708E+01  0.18977687981E+02  0.44490715920E+02  0.00000000000E+00 0.  1.
</event>
<event>
 4    1  0.1976955E-002  0.9118800E+02  0.7818608E-02  0.1130116E+00
         25   -1    0    0    0    0  0.00000000000E+00  0.00000000000E+00  0.99999998245E-14  0.12500000000E+03  0.12500000000E+03 0.  0.
        -11    1    1    0    0    0 -0.34414166681E+02 -0.35727150876E+01 -0.13022226118E+02  0.36968602012E+02  0.51100000000E-03 0.  1.
         11    1    1    0    0    0 -0.23812325281E+02 -0.26093803780E+01 -0.88334994248E+01  0.25531674712E+02  0.51100000000E-03 0. -1.
         22    1    1    0    0    0  0.58226491962E+02  0.61820954656E+01  0.21855725542E+02  0.62499723276E+02  0.00000000000E+00 0.  1.
</event>
<event>
 4    1  0.1976955E-002  0.9118800E+02  0.7818608E-02  0.1130116E+00
         25   -1    0    0    0    0  0.00000000000E+00  0.00000000000E+00  0.99999998245E-14  0.12500000000E+03  0.12500000000E+03 0.  0.
        -11    1    1    0    0    0  0.73813502199E-01 -0.15987382965E+00  0.18224778787E+00  0.25342176666E+00  0.51100000000E-03 0.  1.
         11    1    1    0    0    0  0.18424462906E+02 -0.39959024365E+02  0.44027881087E+02  0.62246596492E+02  0.51100000000E-03 0. -1.
         22    1    1    0    0    0 -0.18498276408E+02  0.40118898195E+02 -0.44210128875E+02  0.62499981741E+02  0.00000000000E+00 0. -1.
</event>
<event>
 4    1  0.1976955E-002  0.9118800E+02  0.7818608E-02  0.1130116E+00
         25   -1    0    0    0    0  0.00000000000E+00  0.00000000000E+00  0.99999998245E-14  0.12500000000E+03  0.12500000000E+03 0.  0.
        -11    1    1    0    0    0 -0.72422522326E+01 -0.13789595343E+01 -0.33090873987E+02  0.33902178223E+02  0.51100000000E-03 0. -1.
         11    1    1    0    0    0  0.45891570428E+01 -0.10352602454E+02 -0.27281801122E+02  0.29538676555E+02  0.51100000000E-03 0.  1.
         22    1    1    0    0    0  0.26530951897E+01  0.11731561988E+02  0.60372675108E+02  0.61559145222E+02  0.00000000000E+00 0. -1.
</event>
<event>
 4    1  0.1976955E-002  0.9118800E+02  0.7818608E-02  0.1130116E+00
         25   -1    0    0    0    0  0.00000000000E+00  0.00000000000E+00  0.99999998245E-14  0.12500000000E+03  0.12500000000E+03 0.  0.
        -11    1    1    0    0    0 -0.23763759186E+02 -0.21400798780E+02 -0.37048397582E+02  0.48941742948E+02  0.51100000000E-03 0.  1.
         11    1    1    0    0    0 -0.19743795789E+01 -0.18360089089E+02  0.15108965556E+02  0.23859419241E+02  0.51100000000E-03 0. -1.
         22    1    1    0    0    0  0.25738138765E+02  0.39760887869E+02  0.21939432026E+02  0.52198837811E+02  0.00000000000E+00 0.  1.
</event>
<event>
 4    1  0.1976955E-002  0.9118800E+02  0.7818608E-02  0.1130116E+00
         25   -1    0    0    0    0  0.00000000000E+00  0.00000000000E+00  0.99999998245E-14  0.12500000000E+03  0.12500000000E+03 0.  0.
        -11    1    1    0    0    0  0.39320684000E+01 -0.54283032581E+00  0.12314830152E+01  0.41560049738E+01  0.51100000000E-03 0.  1.
         11    1    1    0    0    0  0.52052053400E+02 -0.54121269156E+01  0.25850418945E+02  0.58369097481E+02  0.51100000000E-03 0. -1.
         22    1    1    0    0    0 -0.55984121800E+02  0.59549572414E+01 -0.27081901960E+02  0.62474897545E+02  0.00000000000E+00 0. -1.
</event>
<event>
 4    1  0.1976955E-002  0.9118800E+02  0.7818608E-02  0.1130116E+00
         25   -1    0    0    0    0  0.00000000000E+00  0.00000000000E+00  0.99999998245E-14  0.12500000000E+03  0.12500000000E+03 0.  0.
        -11    1    1    0    0    0 -0.13843894179E+02 -0.15000433429E+02 -0.69621983720E+01  0.21567072484E+02  0.51100000000E-03 0.  1.
         11    1    1    0    0    0 -0.26207849547E+02 -0.28902006588E+02 -0.12388610846E+02  0.40934765684E+02  0.51100000000E-03 0. -1.
         22    1    1    0    0    0  0.40051743726E+02  0.43902440017E+02  0.19350809218E+02  0.62498161832E+02  0.00000000000E+00 0.  1.
</event>
<event>
 4    1  0.1976955E-002  0.9118800E+02  0.7818608E-02  0.1130116E+00
         25   -1    0    0    0    0  0.00000000000E+00  0.00000000000E+00  0.99999998245E-14  0.12500000000E+03  0.12500000000E+03 0.  0.
        -11    1    1    0    0    0  0.18478722803E+02  0.45371750215E+02 -0.71940497777E+01  0.49515788053E+02  0.51100000000E-03 0.  1.
         11    1    1    0    0    0  0.48493349836E+01  0.11901270404E+02 -0.18530852377E+01  0.12984229364E+02  0.51100000000E-03 0. -1.
         22    1    1    0    0    0 -0.23328057787E+02 -0.57273020619E+02  0.90471350154E+01  0.62499982583E+02  0.00000000000E+00 0.  1.
</event>
<event>
 4    1  0.1976955E-002  0.9118800E+02  0.7818608E-02  0.1130116E+00
         25   -1    0    0    0    0  0.00000000000E+00  0.00000000000E+00  0.99999998245E-14  0.12500000000E+03  0.12500000000E+03 0.  0.
        -11    1    1    0    0    0 -0.50555815262E+02  0.20319490190E+02  0.71777566158E+01  0.54957186324E+02  0.51100000000E-03 0. -1.
         11    1    1    0    0    0 -0.71061426646E+01  0.23987585869E+01  0.85411688583E+00  0.75485642505E+01  0.51100000000E-03 0.  1.
         22    1    1    0    0    0  0.57661957926E+02 -0.22718248777E+02 -0.80318735016E+01  0.62494249426E+02  0.00000000000E+00 0. -1.
</event>
<event>
 4    1  0.1976955E-002  0.9118800E+02  0.7818608E-02  0.1130116E+00
         25   -1    0    0    0    0  0.00000000000E+00  0.00000000000E+00  0.99999998245E-14  0.12500000000E+03  0.12500000000E+03 0.  0.
        -11    1    1    0    0    0  0.15619949041E+02  0.38532239311E+02  0.34046147205E+02  0.53738779425E+02  0.51100000000E-03 0.  1.
         11    1    1    0    0    0 -0.33082089244E+01 -0.19416150411E+02  0.97028700547E+01  0.21956248100E+02  0.51100000000E-03 0. -1.
         22    1    1    0    0    0 -0.12311740117E+02 -0.19116088900E+02 -0.43749017260E+02  0.49304972475E+02  0.00000000000E+00 0.  1.
</event>
<event>
 4    1  0.1976955E-002  0.9118800E+02  0.7818608E-02  0.1130116E+00
         25   -1    0    0    0    0  0.00000000000E+00  0.00000000000E+00  0.99999998245E-14  0.12500000000E+03  0.12500000000E+03 0.  0.
        -11    1    1    0    0    0 -0.92747465422E+01  0.23710228631E+00  0.11401762883E+02  0.14699569314E+02  0.51100000000E-03 0. -1.
         11    1    1    0    0    0 -0.30157845730E+02  0.76597886720E+00  0.37078279290E+02  0.47800430732E+02  0.51100000000E-03 0.  1.
         22    1    1    0    0    0  0.39432592273E+02 -0.10030811535E+01 -0.48480042174E+02  0.62499999954E+02  0.00000000000E+00 0.  1.
</event>
<event>
 4    1  0.1976955E-002  0.9118800E+02  0.7818608E-02  0.1130116E+00
         25   -1    0    0    0    0  0.00000000000E+00  0.00000000000E+00  0.99999998245E-14  0.12500000000E+03  0.12500000000E+03 0.  0.
        -11    1    1    0    0    0  0.28126438269E+01 -0.12762586854E+02  0.33822197501E+01  0.13499407364E+02  0.51100000000E-03 0. -1.
         11    1    1    0    0    0  0.10206967695E+02 -0.46326762780E+02  0.12276275515E+02  0.49000592649E+02  0.51100000000E-03 0.  1.
         22    1    1    0    0    0 -0.13019611522E+02  0.59089349634E+02 -0.15658495265E+02  0.62499999986E+02  0.00000000000E+00 0.  1.
</event>
<event>
 4    1  0.1976955E-002  0.9118800E+02  0.7818608E-02  0.1130116E+00
         25   -1    0    0    0    0  0.00000000000E+00  0.00000000000E+00  0.99999998245E-14  0.12500000000E+03  0.12500000000E+03 0.  0.
        -11    1    1    0    0    0 -0.19093127331E+00  0.24971644976E+00  0.13529288088E+01  0.13889671268E+01  0.51100000000E-03 0.  1.
         11    1    1    0    0    0 -0.84107935202E+01  0.10967796050E+02  0.59527509203E+02  0.61111032964E+02  0.51100000000E-03 0. -1.
         22    1    1    0    0    0  0.86017247935E+01 -0.11217512500E+02 -0.60880438012E+02  0.62499999909E+02  0.00000000000E+00 0. -1.
</event>
<event>
 4    1  0.1976955E-002  0.9118800E+02  0.7818608E-02  0.1130116E+00
         25   -1    0    0    0    0  0.00000000000E+00  0.00000000000E+00  0.99999998245E-14  0.12500000000E+03  0.12500000000E+03 0.  0.
        -11    1    1    0    0    0  0.32870274402E+01 -0.31931266838E+02  0.30489263230E+01  0.32244477097E+02  0.51100000000E-03 0.  1.
         11    1    1    0    0    0  0.36362941392E+01 -0.29890685117E+02  0.29671186838E+01  0.30256891535E+02  0.51100000000E-03 0. -1.
         22    1    1    0    0    0 -0.69233215794E+01  0.61821951955E+02 -0.60160450068E+01  0.62498631367E+02  0.00000000000E+00 0. -1.
</event>
<event>
 4    1  0.1976955E-002  0.9118800E+02  0.7818608E-02  0.1130116E+00
         25   -1    0    0    0    0  0.00000000000E+00  0.00000000000E+00  0.99999998245E-14  0.12500000000E+03  0.12500000000E+03 0.  0.
        -11    1    1    0    0    0  0.39437830875E+01  0.80573777818E+01 -0.19297014665E+02  0.21280261676E+02  0.51100000000E-03 0. -1.
         11    1    1    0    0    0  0.76483482439E+01  0.15599509229E+02 -0.37379472084E+02  0.41219738628E+02  0.51100000000E-03 0.  1.
         22    1    1    0    0    0 -0.11592131331E+02 -0.23656887011E+02  0.56676486748E+02  0.62499999696E+02  0.00000000000E+00 0.  1.
</event>
<event>
 4    1  0.1976955E-002  0.9118800E+02  0.7818608E-02  0.1130116E+00
         25   -1    0    0    0    0  0.00000000000E+00  0.00000000000E+00  0.99999998245E-14  0.12500000000E+03  0.12500000000E+03 0.  0.
        -11    1    1    0    0    0 -0.37252078251E+02 -0.19456795262E+02 -0.58432269412E+01  0.42431444911E+02  0.51100000000E-03 0.  1.
         11    1    1    0    0    0 -0.15836485449E+02 -0.99537651489E+01  0.10931273429E+02  0.21664820586E+02  0.51100000000E-03 0. -1.
         22    1    1    0    0    0  0.53088563699E+02  0.29410560411E+02 -0.50880464874E+01  0.60903734503E+02  0.00000000000E+00 0. -1.
</event>
<event>
 4    1  0.1976955E-002  0.9118800E+02  0.7818608E-02  0.1130116E+00
         25   -1    0    0    0    0  0.00000000000E+00  0.00000000000E+00  0.99999998245E-14  0.12500000000E+03  0.12500000000E+03 0.  0.
        -11    1    1    0    0    0 -0.35282741928E+01  0.19135497235E+02  0.22952855333E+02  0.30090688616E+02  0.51100000000E-03 0. -1.
         11    1    1    0    0    0 -0.37973613008E+01  0.20608515258E+02  0.24723119007E+02  0.32409311435E+02  0.51100000000E-03 0.  1.
         22    1    1    0    0    0  0.73256354936E+01 -0.39744012492E+02 -0.47675974340E+02  0.62499999949E+02  0.00000000000E+00 0.  1.
</event>
<event>
 4    1  0.1976955E-002  0.9118800E+02  0.7818608E-02  0.1130116E+00
         25   -1    0    0    0    0  0.00000000000E+00  0.00000000000E+00  0.99999998245E-14  0.12500000000E+03  0.12500000000E+03 0.  0.
        -11    1    1    0    0    0 -0.53677862452E+02  0.21033173556E+02 -0.14434465559E+02  0.59431145904E+02  0.51100000000E-03 0.  1.
         11    1    1    0    0    0 -0.33501610860E+01 -0.95111686790E+00  0.11344730221E+01  0.36626809713E+01  0.51100000000E-03 0. -1.
         22    1    1    0    0    0  0.57028023538E+02 -0.20082056688E+02  0.13299992537E+02  0.61906173125E+02  0.00000000000E+00 0.  1.
</event>
<event>
 4    1  0.1976955E-002  0.9118800E+02  0.7818608E-02  0.1130116E+00
         25   -1    0    0    0    0  0.00000000000E+00  0.00000000000E+00  0.99999998245E-14  0.12500000000E+03  0.12500000000E+03 0.  0.
        -11    1    1    0    0    0  0.19649105947E+02 -0.27244873881E+02 -0.31576124281E+02  0.46102300834E+02  0.51100000000E-03 0.  1.
         11    1    1    0    0    0  0.69900972212E+01 -0.96898863065E+01 -0.11230724947E+02  0.16397699195E+02  0.51100000000E-03 0. -1.
         22    1    1    0    0    0 -0.26639203168E+02  0.36934760187E+02  0.42806849228E+02  0.62499999971E+02  0.00000000000E+00 0.  1.
</event>
<event>
 4    1  0.1976955E-002  0.9118800E+02  0.7818608E-02  0.1130116E+00
         25   -1    0    0    0    0  0.00000000000E+00  0.00000000000E+00  0.99999998245E-14  0.12500000000E+03  0.12500000000E+03 0.  0.
        -11    1    1    0    0    0  0.30326517686E+01 -0.19647831846E+02 -0.55035263618E+02  0.58515933854E+02  0.51100000000E-03 0. -1.
         11    1    1    0    0    0  0.18322202352E+00 -0.12752851632E+01 -0.37703038536E+01  0.39843586644E+01  0.51100000000E-03 0.  1.
         22    1    1    0    0    0 -0.32158737921E+01  0.20923117009E+02  0.58805567472E+02  0.62499707482E+02  0.00000000000E+00 0. -1.
</event>
<event>
 4    1  0.1976955E-002  0.9118800E+02  0.7818608E-02  0.1130116E+00
         25   -1    0    0    0    0  0.00000000000E+00  0.00000000000E+00  0.99999998245E-14  0.12500000000E+03  0.12500000000E+03 0.  0.
        -11    1    1    0    0    0  0.26528325545E+02  0.55762926596E+02  0.39594730175E+01  0.61878376398E+02  0.51100000000E-03 0. -1.
         11    1    1    0    0    0  0.26103792695E+00  0.56238489593E+00  0.45045627192E-01  0.62164856641E+00  0.51100000000E-03 0.  1.
         22    1    1    0    0    0 -0.26789363472E+02 -0.56325311492E+02 -0.40045186447E+01  0.62499975036E+02  0.00000000000E+00 0. -1.
</event>
<event>
 4    1  0.1976955E-002  0.9118800E+02  0.7818608E-02  0.1130116E+00
         25   -1    0    0    0    0  0.00000000000E+00  0.00000000000E+00  0.99999998245E-14  0.12500000000E+03  0.12500000000E+03 0.  0.
        -11    1    1    0    0    0  0.85274787108E+01 -0.17754237008E+02 -0.95179452257E+01  0.21875148147E+02  0.51100000000E-03 0. -1.
         11    1    1    0    0    0  0.89570866032E+01 -0.40560304822E+02  0.21015569773E+00  0.41538077632E+02  0.51100000000E-03 0.  1.
         22    1    1    0    0    0 -0.17484565314E+02  0.58314541830E+02  0.93077895280E+01  0.61586774221E+02  0.00000000000E+00 0.  1.
</event>
<event>
 4    1  0.1976955E-002  0.9118800E+02  0.7818608E-02  0.1130116E+00
         25   -1    0    0    0    0  0.00000000000E+00  0.00000000000E+00  0.99999998245E-14  0.12500000000E+03  0.12500000000E+03 0.  0.
        -11    1    1    0    0    0  0.50136311670E+01  0.73828161224E+01  0.37616472240E+00  0.89321873881E+01  0.51100000000E-03 0.  1.
         11    1    1    0    0    0  0.30068469609E+02  0.44275786710E+02  0.22477544585E+01  0.53567812665E+02  0.51100000000E-03 0. -1.
         22    1    1    0    0    0 -0.35082100776E+02 -0.51658602832E+02 -0.26239191809E+01  0.62499999946E+02  0.00000000000E+00 0. -1.
</event>
<event>
 4    1  0.1976955E-002  0.9118800E+02  0.7818608E-02  0.1130116E+00
         25   -1    0    0    0    0  0.00000000000E+00  0.00000000000E+00  0.99999998245E-14  0.12500000000E+03  0.12500000000E+03 0.  0.
        -11    1    1    0    0    0 -0.13983931240E+02 -0.30394100996E+01  0.16043507532E+02  0.21498429731E+02  0.51100000000E-03 0.  1.
         11    1    1    0    0    0 -0.26532596685E+02 -0.59403273563E+01  0.30689914226E+02  0.41001670837E+02  0.51100000000E-03 0. -1.
         22    1    1    0    0    0  0.40516527925E+02  0.89797374559E+01 -0.46733421758E+02  0.62499899433E+02  0.00000000000E+00 0. -1.
</event>
<event>
 4    1  0.1976955E-002  0.9118800E+02  0.7818608E-02  0.1130116E+00
         25   -1    0    0    0    0  0.00000000000E+00  0.00000000000E+00  0.99999998245E-14  0.12500000000E+03  0.12500000000E+03 0.  0.
        -11    1    1    0    0    0 -0.77379572255E+00 -0.12788738015E+01 -0.57695099497E+00  0.16022330455E+01  0.51100000000E-03 0. -1.
         11    1    1    0    0    0 -0.26112841475E+02 -0.49847964594E+02 -0.23281334181E+02  0.60899265887E+02  0.51100000000E-03 0.  1.
         22    1    1    0    0    0  0.26886637198E+02  0.51126838396E+02  0.23858285176E+02  0.62498501067E+02  0.00000000000E+00 0.  1.
</event>
<event>
 4    1  0.1976955E-002  0.9118800E+02  0.7818608E-02  0.1130116E+00
         25   -1    0    0    0    0  0.00000000000E+00  0.00000000000E+00  0.99999998245E-14  0.12500000000E+03  0.12500000000E+03 0.  0.
        -11    1    1    0    0    0 -0.31768260319E+02 -0.17248246915E+01  0.44301363537E+01  0.32122009469E+02  0.51100000000E-03 0.  1.
         11    1    1    0    0    0 -0.27021332340E+02  0.11057637616E+02  0.11303432654E+02  0.31308007619E+02  0.51100000000E-03 0. -1.
         22    1    1    0    0    0  0.58789592659E+02 -0.93328129243E+01 -0.15733569008E+02  0.61569982912E+02  0.00000000000E+00 0.  1.
</event>
<event>
 4    1  0.1976955E-002  0.9118800E+02  0.7818608E-02  0.1130116E+00
         25   -1    0    0    0    0  0.00000000000E+00  0.00000000000E+00  0.99999998245E-14  0.12500000000E+03  0.12500000000E+03 0.  0.
        -11    1    1    0    0    0 -0.50727927889E+02  0.84781662712E+01  0.30123968672E+02  0.59604156399E+02  0.51100000000E-03 0. -1.
         11    1    1    0    0    0 -0.24484757867E+01  0.46517021010E+00  0.14751384997E+01  0.28961096072E+01  0.51100000000E-03 0.  1.
         22    1    1    0    0    0  0.53176403676E+02 -0.89433364813E+01 -0.31599107171E+02  0.62499733994E+02  0.00000000000E+00 0. -1.
</event>
<event>
 4    1  0.1976955E-002  0.9118800E+02  0.7818608E-02  0.1130116E+00
         25   -1    0    0    0    0  0.00000000000E+00  0.00000000000E+00  0.99999998245E-14  0.12500000000E+03  0.12500000000E+03 0.  0.
        -11    1    1    0    0    0 -0.59506321509E+00  0.75110998655E+01 -0.78776002730E+01  0.10900793904E+02  0.51100000000E-03 0. -1.
         11    1    1    0    0    0  0.10230860810E+02  0.32622954625E+02 -0.38850736827E+02  0.51752366454E+02  0.51100000000E-03 0.  1.
         22    1    1    0    0    0 -0.96357975948E+01 -0.40134054490E+02  0.46728337100E+02  0.62346839641E+02  0.00000000000E+00 0.  1.
</event>
<event>
 4    1  0.1976955E-002  0.9118800E+02  0.7818608E-02  0.1130116E+00
         25   -1    0    0    0    0  0.00000000000E+00  0.00000000000E+00  0.99999998245E-14  0.12500000000E+03  0.12500000000E+03 0.  0.
        -11    1    1    0    0    0 -0.23651078703E+02  0.76687637602E+01 -0.66576529312E+01  0.25739226955E+02  0.51100000000E-03 0. -1.
         11    1    1    0    0    0 -0.33771818242E+02  0.10946876290E+02 -0.95385968440E+01  0.36760775807E+02  0.51100000000E-03 0.  1.
         22    1    1    0    0    0  0.57422896945E+02 -0.18615640050E+02  0.16196249775E+02  0.62499997239E+02  0.00000000000E+00 0.  1.
</event>
<event>
 4    1  0.1976955E-002  0.9118800E+02  0.7818608E-02  0.1130116E+00
         25   -1    0    0    0    0  0.00000000000E+00  0.00000000000E+00  0.99999998245E-14  0.12500000000E+03  0.12500000000E+03 0.  0.
        -11    1    1    0    0    0  0.70418129485E+01  0.35506929347E+02  0.40430302072E+02  0.54267287450E+02  0.51100000000E-03 0. -1.
         11    1    1    0    0    0 -0.36167456081E+00  0.57212314030E+01  0.59884544445E+01  0.82900472948E+01  0.51100000000E-03 0.  1.
         22    1    1    0    0    0 -0.66801383877E+01 -0.41228160750E+02 -0.46418756516E+02  0.62442665256E+02  0.00000000000E+00 0. -1.
</event>
<event>
 4    1  0.1976955E-002  0.9118800E+02  0.7818608E-02  0.1130116E+00
         25   -1    0    0    0    0  0.00000000000E+00  0.00000000000E+00  0.99999998245E-14  0.12500000000E+03  0.12500000000E+03 0.  0.
        -11    1    1    0    0    0 -0.27689395241E+01 -0.78214686712E+01  0.54137816316E+01  0.99071403583E+01  0.51100000000E-03 0. -1.
         11    1    1    0    0    0 -0.14640771373E+02 -0.41564249804E+02  0.28706625407E+02  0.52592864447E+02  0.51100000000E-03 0.  1.
         22    1    1    0    0    0  0.17409710898E+02  0.49385718475E+02 -0.34120407039E+02  0.62499995195E+02  0.00000000000E+00 0.  1.
</event>
<event>
 4    1  0.1976955E-002  0.9118800E+02  0.7818608E-02  0.1130116E+00
         25   -1    0    0    0    0  0.00000000000E+00  0.00000000000E+00  0.99999998245E-14  0.12500000000E+03  0.12500000000E+03 0.  0.
        -11    1    1    0    0    0  0.19249850894E+00  0.58342192686E+00  0.27730999675E+00  0.67404593027E+00  0.51100000000E-03 0.  1.
         11    1    1    0    0    0  0.16584133663E+02  0.56976786518E+02  0.17363271906E+02  0.61829369258E+02  0.51100000000E-03 0. -1.
         22    1    1    0    0    0 -0.16776632172E+02 -0.57560208445E+02 -0.17640581902E+02  0.62496584812E+02  0.00000000000E+00 0. -1.
</event>
<event>
 4    1  0.1976955E-002  0.9118800E+02  0.7818608E-02  0.1130116E+00
         25   -1    0    0    0    0  0.00000000000E+00  0.00000000000E+00  0.99999998245E-14  0.12500000000E+03  0.12500000000E+03 0.  0.
        -11    1    1    0    0    0  0.13260107665E+02  0.19198025929E+02 -0.41216501365E+02  0.47362375784E+02  0.51100000000E-03 0. -1.
         11    1    1    0    0    0  0.43157984028E+01  0.58465433092E+01 -0.13280733188E+02  0.15138892258E+02  0.51100000000E-03 0.  1.
         22    1    1    0    0    0 -0.17575906068E+02 -0.25044569238E+02  0.54497234553E+02  0.62498731958E+02  0.00000000000E+00 0. -1.
</event>
<event>
 4    1  0.1976955E-002  0.9118800E+02  0.7818608E-02  0.1130116E+00
         25   -1    0    0    0    0  0.00000000000E+00  0.00000000000E+00  0.99999998245E-14  0.12500000000E+03  0.12500000000E+03 0.  0.
        -11    1    1    0    0    0  0.10696250831E+02 -0.30088490826E+02  0.22952507312E+02  0.39326131951E+02  0.51100000000E-03 0. -1.
         11    1    1    0    0    0  0.63047074162E+01 -0.17733699156E+02  0.13520160935E+02  0.23173868329E+02  0.51100000000E-03 0.  1.
         22    1    1    0    0    0 -0.17000958247E+02  0.47822189982E+02 -0.36472668247E+02  0.62499999720E+02  0.00000000000E+00 0. -1.
</event>
<event>
 4    1  0.1976955E-002  0.9118800E+02  0.7818608E-02  0.1130116E+00
         25   -1    0    0    0    0  0.00000000000E+00  0.00000000000E+00  0.99999998245E-14  0.12500000000E+03  0.12500000000E+03 0.  0.
        -11    1    1    0    0    0 -0.54661192419E+01 -0.44972280929E+02  0.85656628117E+01  0.46105911673E+02  0.51100000000E-03 0.  1.
         11    1    1    0    0    0  0.52482061332E+01 -0.15899477994E+02 -0.65792372574E+01  0.17989536716E+02  0.51100000000E-03 0. -1.
         22    1    1    0    0    0  0.21791310868E+00  0.60871758923E+02 -0.19864255543E+01  0.60904551611E+02  0.00000000000E+00 0.  1.
</event>
<event>
 4    1  0.1976955E-002  0.9118800E+02  0.7818608E-02  0.1130116E+00
         25   -1    0    0    0    0  0.00000000000E+00  0.00000000000E+00  0.99999998245E-14  0.12500000000E+03  0.12500000000E+03 0.  0.
        -11    1    1    0    0    0  0.10837714045E+02 -0.15962881908E+02 -0.77606643990E+01  0.20796575600E+02  0.51100000000E-03 0.  1.
         11    1    1    0    0    0  0.21693363215E+02 -0.32098347467E+02 -0.15436122961E+02  0.41703474795E+02  0.51100000000E-03 0. -1.
         22    1    1    0    0    0 -0.32531077259E+02  0.48061229375E+02  0.23196787360E+02  0.62499949604E+02  0.00000000000E+00 0. -1.
</event>
<event>
 4    1  0.1976955E-002  0.9118800E+02  0.7818608E-02  0.1130116E+00
         25   -1    0    0    0    0  0.00000000000E+00  0.00000000000E+00  0.99999998245E-14  0.12500000000E+03  0.12500000000E+03 0.  0.
        -11    1    1    0    0    0 -0.68367885564E+01 -0.92371912199E+01  0.49367790069E+01  0.12507564376E+02  0.51100000000E-03 0. -1.
         11    1    1    0    0    0 -0.26963668579E+02 -0.36432028323E+02  0.21098230074E+02  0.49994673951E+02  0.51100000000E-03 0.  1.
         22    1    1    0    0    0  0.33800457135E+02  0.45669219543E+02 -0.26035009081E+02  0.62497761673E+02  0.00000000000E+00 0.  1.
</event>
<event>
 4    1  0.1976955E-002  0.9118800E+02  0.7818608E-02  0.1130116E+00
         25   -1    0    0    0    0  0.00000000000E+00  0.00000000000E+00  0.99999998245E-14  0.12500000000E+03  0.12500000000E+03 0.  0.
        -11    1    1    0    0    0 -0.16619997315E+01 -0.28177961260E+02 -0.43649862902E+02  0.51981441645E+02  0.51100000000E-03 0. -1.
         11    1    1    0    0    0 -0.34109661099E+00 -0.56982576638E+01 -0.88347948112E+01  0.10518559165E+02  0.51100000000E-03 0.  1.
         22    1    1    0    0    0  0.20030963425E+01  0.33876218923E+02  0.52484657713E+02  0.62499999190E+02  0.00000000000E+00 0. -1.
</event>
<event>
 4    1  0.1976955E-002  0.9118800E+02  0.7818608E-02  0.1130116E+00
         25   -1    0    0    0    0  0.00000000000E+00  0.00000000000E+00  0.99999998245E-14  0.12500000000E+03  0.12500000000E+03 0.  0.
        -11    1    1    0    0    0 -0.35345748866E+02 -0.46263844503E+01  0.20319656769E+01  0.35705101606E+02  0.51100000000E-03 0.  1.
         11    1    1    0    0    0 -0.26400205977E+02 -0.41031416351E+01  0.20903516452E+01  0.26798809995E+02  0.51100000000E-03 0. -1.
         22    1    1    0    0    0  0.61745954842E+02  0.87295260854E+01 -0.41223173221E+01  0.62496088399E+02  0.00000000000E+00 0. -1.
</event>
<event>
 4    1  0.1976955E-002  0.9118800E+02  0.7818608E-02  0.1130116E+00
         25   -1    0    0    0    0  0.00000000000E+00  0.00000000000E+00  0.99999998245E-14  0.12500000000E+03  0.12500000000E+03 0.  0.
        -11    1    1    0    0    0 -0.23635380101E+02 -0.81820243347E+01  0.28657763310E+02  0.38037404129E+02  0.51100000000E-03 0.  1.
         11    1    1    0    0    0 -0.15196892153E+02 -0.52656695628E+01  0.18432194617E+02  0.24462596054E+02  0.51100000000E-03 0. -1.
         22    1    1    0    0    0  0.38832272253E+02  0.13447693898E+02 -0.47089957927E+02  0.62499999817E+02  0.00000000000E+00 0. -1.
</event>
<event>
 4    1  0.1976955E-002  0.9118800E+02  0.7818608E-02  0.1130116E+00
         25   -1    0    0    0    0  0.00000000000E+00  0.00000000000E+00  0.99999998245E-14  0.12500000000E+03  0.12500000000E+03 0.  0.
        -11    1    1    0    0    0  0.34798442575E+02  0.50461193868E+00 -0.85949880461E+01  0.35847734359E+02  0.51100000000E-03 0.  1.
         11    1    1    0    0    0 -0.30865086902E+02 -0.27381578998E+02 -0.23198876311E+02  0.47334895376E+02  0.51100000000E-03 0. -1.
         22    1    1    0    0    0 -0.39333556730E+01  0.26876967059E+02  0.31793864357E+02  0.41817370265E+02  0.00000000000E+00 0. -1.
</event>
<event>
 4    1  0.1976955E-002  0.9118800E+02  0.7818608E-02  0.1130116E+00
         25   -1    0    0    0    0  0.00000000000E+00  0.00000000000E+00  0.99999998245E-14  0.12500000000E+03  0.12500000000E+03 0.  0.
        -11    1    1    0    0    0  0.12192680867E+02  0.44903314749E+02 -0.20863476736E+02  0.50992683827E+02  0.51100000000E-03 0. -1.
         11    1    1    0    0    0  0.29515952823E+01  0.10289160496E+02 -0.42374815428E+01  0.11512384136E+02  0.51100000000E-03 0.  1.
         22    1    1    0    0    0 -0.15144276149E+02 -0.55192475244E+02  0.25100958279E+02  0.62494932036E+02  0.00000000000E+00 0. -1.
</event>
<event>
 4    1  0.1976955E-002  0.9118800E+02  0.7818608E-02  0.1130116E+00
         25   -1    0    0    0    0  0.00000000000E+00  0.00000000000E+00  0.99999998245E-14  0.12500000000E+03  0.12500000000E+03 0.  0.
        -11    1    1    0    0    0  0.38082810465E+02  0.16538802517E+02 -0.28536008348E+02  0.50379918760E+02  0.51100000000E-03 0. -1.
         11    1    1    0    0    0  0.91634070141E+01  0.39775539582E+01 -0.68634836841E+01  0.12120081359E+02  0.51100000000E-03 0.  1.
         22    1    1    0    0    0 -0.47246217479E+02 -0.20516356475E+02  0.35399492032E+02  0.62499999881E+02  0.00000000000E+00 0. -1.
</event>
<event>
 4    1  0.1976955E-002  0.9118800E+02  0.7818608E-02  0.1130116E+00
         25   -1    0    0    0    0  0.00000000000E+00  0.00000000000E+00  0.99999998245E-14  0.12500000000E+03  0.12500000000E+03 0.  0.
        -11    1    1    0    0    0 -0.25292404748E+02  0.15625598792E+02 -0.13406406967E+02  0.32612832192E+02  0.51100000000E-03 0.  1.
         11    1    1    0    0    0 -0.12763506965E+02  0.26945136938E+02 -0.88516507648E+01  0.31101434632E+02  0.51100000000E-03 0. -1.
         22    1    1    0    0    0  0.38055911713E+02 -0.42570735730E+02  0.22258057732E+02  0.61285733176E+02  0.00000000000E+00 0.  1.
</event>
<event>
 4    1  0.1976955E-002  0.9118800E+02  0.7818608E-02  0.1130116E+00
         25   -1    0    0    0    0  0.00000000000E+00  0.00000000000E+00  0.99999998245E-14  0.12500000000E+03  0.12500000000E+03 0.  0.
        -11    1    1    0    0    0  0.10771394529E+02 -0.50151154985E+02  0.34241903466E+02  0.61673894312E+02  0.51100000000E-03 0. -1.
         11    1    1    0    0    0  0.14048532183E+00 -0.66558140326E+00  0.46882045737E+00  0.82615229370E+00  0.51100000000E-03 0.  1.
         22    1    1    0    0    0 -0.10911879851E+02  0.50816736388E+02 -0.34710723923E+02  0.62499953394E+02  0.00000000000E+00 0. -1.
</event>
<event>
 4    1  0.1976955E-002  0.9118800E+02  0.7818608E-02  0.1130116E+00
         25   -1    0    0    0    0  0.00000000000E+00  0.00000000000E+00  0.99999998245E-14  0.12500000000E+03  0.12500000000E+03 0.  0.
        -11    1    1    0    0    0 -0.11411196320E+02  0.50057670790E+02 -0.28379170494E+02  0.58663132584E+02  0.51100000000E-03 0. -1.
         11    1    1    0    0    0 -0.72571736218E+00  0.32865235120E+01 -0.18422844990E+01  0.38369147660E+01  0.51100000000E-03 0.  1.
         22    1    1    0    0    0  0.12136913682E+02 -0.53344194302E+02  0.30221454993E+02  0.62499952650E+02  0.00000000000E+00 0. -1.
</event>
<event>
 4    1  0.1976955E-002  0.9118800E+02  0.7818608E-02  0.1130116E+00
         25   -1    0    0    0    0  0.00000000000E+00  0.00000000000E+00  0.99999998245E-14  0.12500000000E+03  0.12500000000E+03 0.  0.
        -11    1    1    0    0    0 -0.49660454133E+02  0.13747360540E+02 -0.22303245167E+02  0.56147888400E+02  0.51100000000E-03 0.  1.
         11    1    1    0    0    0 -0.56152883790E+01  0.15590592719E+01 -0.25272930170E+01  0.63521130066E+01  0.51100000000E-03 0. -1.
         22    1    1    0    0    0  0.55275742512E+02 -0.15306419812E+02  0.24830538184E+02  0.62499998594E+02  0.00000000000E+00 0.  1.
</event>
<event>
 4    1  0.1976955E-002  0.9118800E+02  0.7818608E-02  0.1130116E+00
         25   -1    0    0    0    0  0.00000000000E+00  0.00000000000E+00  0.99999998245E-14  0.12500000000E+03  0.12500000000E+03 0.  0.
        -11    1    1    0    0    0 -0.54440861937E+01 -0.22869557905E-01 -0.23135198276E+01  0.59153167079E+01  0.51100000000E-03 0.  1.
         11    1    1    0    0    0 -0.49770508858E+02 -0.23725074064E+02 -0.13840556441E+02  0.56846668277E+02  0.51100000000E-03 0. -1.
         22    1    1    0    0    0  0.55214595051E+02  0.23747943622E+02  0.16154076269E+02  0.62238015015E+02  0.00000000000E+00 0. -1.
</event>
<event>
 4    1  0.1976955E-002  0.9118800E+02  0.7818608E-02  0.1130116E+00
         25   -1    0    0    0    0  0.00000000000E+00  0.00000000000E+00  0.99999998245E-14  0.12500000000E+03  0.12500000000E+03 0.  0.
        -11    1    1    0    0    0  0.99653660093E+01 -0.46489034439E+02  0.21379004436E+02  0.52130611676E+02  0.51100000000E-03 0. -1.
         11    1    1    0    0    0  0.19810831262E+01 -0.92471660010E+01  0.42531688683E+01  0.10369388366E+02  0.51100000000E-03 0.  1.
         22    1    1    0    0    0 -0.11946449135E+02  0.55736200440E+02 -0.25632173304E+02  0.62499999958E+02  0.00000000000E+00 0. -1.
</event>
<event>
 4    1  0.1976955E-002  0.9118800E+02  0.7818608E-02  0.1130116E+00
         25   -1    0    0    0    0  0.00000000000E+00  0.00000000000E+00  0.99999998245E-14  0.12500000000E+03  0.12500000000E+03 0.  0.
        -11    1    1    0    0    0  0.33789904912E+02 -0.34673101924E+02 -0.30171934829E+02  0.57046711759E+02  0.51100000000E-03 0.  1.
         11    1    1    0    0    0  0.71748491925E+01  0.12163762263E+02  0.62046648394E+01  0.15425091226E+02  0.51100000000E-03 0. -1.
         22    1    1    0    0    0 -0.40964754105E+02  0.22509339661E+02  0.23967269989E+02  0.52528197014E+02  0.00000000000E+00 0.  1.
</event>
<event>
 4    1  0.1976955E-002  0.9118800E+02  0.7818608E-02  0.1130116E+00
         25   -1    0    0    0    0  0.00000000000E+00  0.00000000000E+00  0.99999998245E-14  0.12500000000E+03  0.12500000000E+03 0.  0.
        -11    1    1    0    0    0 -0.20560714722E+01  0.48380388622E+02 -0.13837120589E+02  0.50362241209E+02  0.51100000000E-03 0.  1.
         11    1    1    0    0    0  0.45591951122E-01  0.12023919278E+02 -0.19281986844E+01  0.12177629648E+02  0.51100000000E-03 0. -1.
         22    1    1    0    0    0  0.20104795211E+01 -0.60404307900E+02  0.15765319273E+02  0.62460129143E+02  0.00000000000E+00 0.  1.
</event>
<event>
 4    1  0.1976955E-002  0.9118800E+02  0.7818608E-02  0.1130116E+00
         25   -1    0    0    0    0  0.00000000000E+00  0.00000000000E+00  0.99999998245E-14  0.12500000000E+03  0.12500000000E+03 0.  0.
        -11    1    1    0    0    0 -0.21465953378E+02 -0.83504180138E+01 -0.30745502161E+02  0.38416175484E+02  0.51100000000E-03 0.  1.
         11    1    1    0    0    0 -0.47209311803E+01 -0.69458108282E+01 -0.23213680830E+02  0.24686159223E+02  0.51100000000E-03 0. -1.
         22    1    1    0    0    0  0.26186884558E+02  0.15296228842E+02  0.53959182991E+02  0.61897665293E+02  0.00000000000E+00 0.  1.
</event>
<event>
 4    1  0.1976955E-002  0.9118800E+02  0.7818608E-02  0.1130116E+00
         25   -1    0    0    0    0  0.00000000000E+00  0.00000000000E+00  0.99999998245E-14  0.12500000000E+03  0.12500000000E+03 0.  0.
        -11    1    1    0    0    0  0.36415763719E+02  0.24714280388E+02 -0.18323039185E+02  0.47672185471E+02  0.51100000000E-03 0.  1.
         11    1    1    0    0    0  0.10888884490E+02  0.73818808709E+01 -0.68885828380E+01  0.14849664791E+02  0.51100000000E-03 0. -1.
         22    1    1    0    0    0 -0.47304648208E+02 -0.32096161259E+02  0.25211622023E+02  0.62478149738E+02  0.00000000000E+00 0.  1.
</event>
<event>
 4    1  0.1976955E-002  0.9118800E+02  0.7818608E-02  0.1130116E+00
         25   -1    0    0    0    0  0.00000000000E+00  0.00000000000E+00  0.99999998245E-14  0.12500000000E+03  0.12500000000E+03 0.  0.
        -11    1    1    0    0    0 -0.23621626388E+02  0.14700245923E+02 -0.97583990061E+01  0.29483975560E+02  0.51100000000E-03 0. -1.
         11    1    1    0    0    0 -0.26544412058E+02  0.16444397232E+02 -0.10725928463E+02  0.33016201379E+02  0.51100000000E-03 0.  1.
         22    1    1    0    0    0  0.50166038447E+02 -0.31144643155E+02  0.20484327469E+02  0.62499823060E+02  0.00000000000E+00 0. -1.
</event>
<event>
 4    1  0.1976955E-002  0.9118800E+02  0.7818608E-02  0.1130116E+00
         25   -1    0    0    0    0  0.00000000000E+00  0.00000000000E+00  0.99999998245E-14  0.12500000000E+03  0.12500000000E+03 0.  0.
        -11    1    1    0    0    0 -0.28082694662E+02  0.29300702921E+02 -0.69948360290E+01  0.41183694133E+02  0.51100000000E-03 0.  1.
         11    1    1    0    0    0  0.80444525428E+01  0.14525042003E+02 -0.22010594041E+02  0.27570932378E+02  0.51100000000E-03 0. -1.
         22    1    1    0    0    0  0.20038242119E+02 -0.43825744923E+02  0.29005430070E+02  0.56245373489E+02  0.00000000000E+00 0.  1.
</event>
<event>
 4    1  0.1976955E-002  0.9118800E+02  0.7818608E-02  0.1130116E+00
         25   -1    0    0    0    0  0.00000000000E+00  0.00000000000E+00  0.99999998245E-14  0.12500000000E+03  0.12500000000E+03 0.  0.
        -11    1    1    0    0    0  0.26467988104E+01 -0.11340818088E+02  0.19624910745E+02  0.22820096864E+02  0.51100000000E-03 0. -1.
         11    1    1    0    0    0  0.49962675553E+01 -0.18112899200E+02  0.34958283752E+02  0.39687799259E+02  0.51100000000E-03 0.  1.
         22    1    1    0    0    0 -0.76430663657E+01  0.29453717288E+02 -0.54583194497E+02  0.62492103877E+02  0.00000000000E+00 0. -1.
</event>
<event>
 4    1  0.1976955E-002  0.9118800E+02  0.7818608E-02  0.1130116E+00
         25   -1    0    0    0    0  0.00000000000E+00  0.00000000000E+00  0.99999998245E-14  0.12500000000E+03  0.12500000000E+03 0.  0.
        -11    1    1    0    0    0  0.19324743898E+00  0.41946351166E+00 -0.45322118741E+00  0.64707334679E+00  0.51100000000E-03 0. -1.
         11    1    1    0    0    0  0.22137541978E+02  0.39337542950E+02 -0.42288882145E+02  0.61853557728E+02  0.51100000000E-03 0.  1.
         22    1    1    0    0    0 -0.22330789417E+02 -0.39757006462E+02  0.42742103332E+02  0.62499368926E+02  0.00000000000E+00 0.  1.
</event>
<event>
 4    1  0.1976955E-002  0.9118800E+02  0.7818608E-02  0.1130116E+00
         25   -1    0    0    0    0  0.00000000000E+00  0.00000000000E+00  0.99999998245E-14  0.12500000000E+03  0.12500000000E+03 0.  0.
        -11    1    1    0    0    0 -0.25445010991E+02  0.12898281196E+02  0.30547352525E+02  0.41796590634E+02  0.51100000000E-03 0. -1.
         11    1    1    0    0    0 -0.12766831581E+02  0.67477821216E+01  0.14838704373E+02  0.20705354377E+02  0.51100000000E-03 0.  1.
         22    1    1    0    0    0  0.38211842572E+02 -0.19646063317E+02 -0.45386056898E+02  0.62498054988E+02  0.00000000000E+00 0. -1.
</event>
<event>
 4    1  0.1976955E-002  0.9118800E+02  0.7818608E-02  0.1130116E+00
         25   -1    0    0    0    0  0.00000000000E+00  0.00000000000E+00  0.99999998245E-14  0.12500000000E+03  0.12500000000E+03 0.  0.
        -11    1    1    0    0    0 -0.19856821094E+01  0.17527686124E+02  0.40963739639E+01  0.18109196399E+02  0.51100000000E-03 0.  1.
         11    1    1    0    0    0  0.15552094473E+02  0.42221120556E+02  0.36075706133E+01  0.45138733140E+02  0.51100000000E-03 0. -1.
         22    1    1    0    0    0 -0.13566412363E+02 -0.59748806680E+02 -0.77039445772E+01  0.61752070461E+02  0.00000000000E+00 0. -1.
</event>
<event>
 4    1  0.1976955E-002  0.9118800E+02  0.7818608E-02  0.1130116E+00
         25   -1    0    0    0    0  0.00000000000E+00  0.00000000000E+00  0.99999998245E-14  0.12500000000E+03  0.12500000000E+03 0.  0.
        -11    1    1    0    0    0  0.64480944281E+01 -0.56003583330E+01  0.31377132785E+00  0.85463669427E+01  0.51100000000E-03 0. -1.
         11    1    1    0    0    0  0.40940261809E+02 -0.34834550704E+02  0.46868410699E+01  0.53958478845E+02  0.51100000000E-03 0.  1.
         22    1    1    0    0    0 -0.47388356237E+02  0.40434909037E+02 -0.50006123977E+01  0.62495154213E+02  0.00000000000E+00 0.  1.
</event>
<event>
 4    1  0.1976955E-002  0.9118800E+02  0.7818608E-02  0.1130116E+00
         25   -1    0    0    0    0  0.00000000000E+00  0.00000000000E+00  0.99999998245E-14  0.12500000000E+03  0.12500000000E+03 0.  0.
        -11    1    1    0    0    0 -0.16729053053E+02  0.73925480059E+01 -0.22379614072E+02  0.28902562314E+02  0.51100000000E-03 0.  1.
         11    1    1    0    0    0 -0.19484288308E+02  0.86113013247E+01 -0.25980694623E+02  0.33597447741E+02  0.51100000000E-03 0. -1.
         22    1    1    0    0    0  0.36213341362E+02 -0.16003849331E+02  0.48360308695E+02  0.62499989944E+02  0.00000000000E+00 0. -1.
</event>
<event>
 4    1  0.1976955E-002  0.9118800E+02  0.7818608E-02  0.1130116E+00
         25   -1    0    0    0    0  0.00000000000E+00  0.00000000000E+00  0.99999998245E-14  0.12500000000E+03  0.12500000000E+03 0.  0.
        -11    1    1    0    0    0 -0.52344532914E+01 -0.98925752387E+01 -0.46088813330E+01  0.12103897451E+02  0.51100000000E-03 0. -1.
         11    1    1    0    0    0 -0.21821648649E+02 -0.41176160922E+02 -0.19186106014E+02  0.50396103444E+02  0.51100000000E-03 0.  1.
         22    1    1    0    0    0  0.27056101940E+02  0.51068736161E+02  0.23794987347E+02  0.62499999105E+02  0.00000000000E+00 0.  1.
</event>
<event>
 4    1  0.1976955E-002  0.9118800E+02  0.7818608E-02  0.1130116E+00
         25   -1    0    0    0    0  0.00000000000E+00  0.00000000000E+00  0.99999998245E-14  0.12500000000E+03  0.12500000000E+03 0.  0.
        -11    1    1    0    0    0  0.27833675386E+02  0.99174187877E+01  0.13747858947E+01  0.29579701105E+02  0.51100000000E-03 0. -1.
         11    1    1    0    0    0  0.33264026188E+02 -0.18364718706E+01 -0.49815091448E+01  0.33685063467E+02  0.51100000000E-03 0.  1.
         22    1    1    0    0    0 -0.61097701574E+02 -0.80809469171E+01  0.36067232501E+01  0.61735235428E+02  0.00000000000E+00 0.  1.
</event>
<event>
 4    1  0.1976955E-002  0.9118800E+02  0.7818608E-02  0.1130116E+00
         25   -1    0    0    0    0  0.00000000000E+00  0.00000000000E+00  0.99999998245E-14  0.12500000000E+03  0.12500000000E+03 0.  0.
        -11    1    1    0    0    0 -0.23382797845E+01 -0.18160039961E+00 -0.27434071898E+01  0.36092678379E+01  0.51100000000E-03 0. -1.
         11    1    1    0    0    0 -0.38148680215E+02 -0.29260995147E+01 -0.44768677856E+02  0.58890732529E+02  0.51100000000E-03 0. -1.
         22    1    1    0    0    0  0.40486960000E+02  0.31076999143E+01  0.47512085046E+02  0.62499999633E+02  0.00000000000E+00 0. -1.
</event>
<event>
 4    1  0.1976955E-002  0.9118800E+02  0.7818608E-02  0.1130116E+00
         25   -1    0    0    0    0  0.00000000000E+00  0.00000000000E+00  0.99999998245E-14  0.12500000000E+03  0.12500000000E+03 0.  0.
        -11    1    1    0    0    0 -0.36675815898E+02  0.12128365051E+01 -0.48581768251E+02  0.60883287122E+02  0.51100000000E-03 0. -1.
         11    1    1    0    0    0 -0.86263704036E+00  0.12406277135E+00 -0.13664615959E+01  0.16207256982E+01  0.51100000000E-03 0.  1.
         22    1    1    0    0    0  0.37538452938E+02 -0.13368992765E+01  0.49948229847E+02  0.62495987179E+02  0.00000000000E+00 0. -1.
</event>
<event>
 4    1  0.1976955E-002  0.9118800E+02  0.7818608E-02  0.1130116E+00
         25   -1    0    0    0    0  0.00000000000E+00  0.00000000000E+00  0.99999998245E-14  0.12500000000E+03  0.12500000000E+03 0.  0.
        -11    1    1    0    0    0  0.38453727129E+00  0.26411693736E+01  0.12646545046E+01  0.29534718299E+01  0.51100000000E-03 0.  1.
         11    1    1    0    0    0  0.77604687652E+01  0.53238892570E+02  0.25518316494E+02  0.59546528316E+02  0.51100000000E-03 0. -1.
         22    1    1    0    0    0 -0.81450060365E+01 -0.55880061944E+02 -0.26782970999E+02  0.62499999854E+02  0.00000000000E+00 0. -1.
</event>
<event>
 4    1  0.1976955E-002  0.9118800E+02  0.7818608E-02  0.1130116E+00
         25   -1    0    0    0    0  0.00000000000E+00  0.00000000000E+00  0.99999998245E-14  0.12500000000E+03  0.12500000000E+03 0.  0.
        -11    1    1    0    0    0  0.87830689582E+01  0.16142155017E+02  0.17871204226E+02  0.25633794289E+02  0.51100000000E-03 0.  1.
         11    1    1    0    0    0  0.12723179384E+02  0.23333585309E+02  0.25549774281E+02  0.36866332379E+02  0.51100000000E-03 0. -1.
         22    1    1    0    0    0 -0.21506248342E+02 -0.39475740326E+02 -0.43420978506E+02  0.62499873332E+02  0.00000000000E+00 0. -1.
</event>
<event>
 4    1  0.1976955E-002  0.9118800E+02  0.7818608E-02  0.1130116E+00
         25   -1    0    0    0    0  0.00000000000E+00  0.00000000000E+00  0.99999998245E-14  0.12500000000E+03  0.12500000000E+03 0.  0.
        -11    1    1    0    0    0  0.31328480971E+00 -0.30653230076E+01  0.31416171542E+01  0.44004671477E+01  0.51100000000E-03 0. -1.
         11    1    1    0    0    0 -0.12436553883E+02 -0.20991340459E+02  0.52990561093E+02  0.58337842023E+02  0.51100000000E-03 0.  1.
         22    1    1    0    0    0  0.12123269073E+02  0.24056663466E+02 -0.56132178247E+02  0.62261690829E+02  0.00000000000E+00 0.  1.
</event>
<event>
 4    1  0.1976955E-002  0.9118800E+02  0.7818608E-02  0.1130116E+00
         25   -1    0    0    0    0  0.00000000000E+00  0.00000000000E+00  0.99999998245E-14  0.12500000000E+03  0.12500000000E+03 0.  0.
        -11    1    1    0    0    0  0.28654384048E+02 -0.29216884070E+02 -0.26063993809E+02  0.48518365734E+02  0.51100000000E-03 0. -1.
         11    1    1    0    0    0  0.82568039063E+01 -0.84196325621E+01 -0.75113962529E+01  0.13981634281E+02  0.51100000000E-03 0. -1.
         22    1    1    0    0    0 -0.36911187954E+02  0.37636516632E+02  0.33575390062E+02  0.62499999986E+02  0.00000000000E+00 0. -1.
</event>
<event>
 4    1  0.1976955E-002  0.9118800E+02  0.7818608E-02  0.1130116E+00
         25   -1    0    0    0    0  0.00000000000E+00  0.00000000000E+00  0.99999998245E-14  0.12500000000E+03  0.12500000000E+03 0.  0.
        -11    1    1    0    0    0 -0.25201976460E+02  0.29935974927E+01  0.38528789359E+02  0.46136415695E+02  0.51100000000E-03 0. -1.
         11    1    1    0    0    0 -0.11057379758E+02  0.23500208822E+01  0.11971371978E+02  0.16465175145E+02  0.51100000000E-03 0.  1.
         22    1    1    0    0    0  0.36259356218E+02 -0.53436183749E+01 -0.50500161337E+02  0.62398409160E+02  0.00000000000E+00 0. -1.
</event>
<event>
 4    1  0.1976955E-002  0.9118800E+02  0.7818608E-02  0.1130116E+00
         25   -1    0    0    0    0  0.00000000000E+00  0.00000000000E+00  0.99999998245E-14  0.12500000000E+03  0.12500000000E+03 0.  0.
        -11    1    1    0    0    0  0.46892366163E+02  0.11047400648E+02  0.26931336696E+02  0.55192716566E+02  0.51100000000E-03 0.  1.
         11    1    1    0    0    0  0.70126320340E+01  0.44989431585E+00  0.23310145361E+01  0.74035830494E+01  0.51100000000E-03 0. -1.
         22    1    1    0    0    0 -0.53904998197E+02 -0.11497294964E+02 -0.29262351232E+02  0.62403700385E+02  0.00000000000E+00 0.  1.
</event>
<event>
 4    1  0.1976955E-002  0.9118800E+02  0.7818608E-02  0.1130116E+00
         25   -1    0    0    0    0  0.00000000000E+00  0.00000000000E+00  0.99999998245E-14  0.12500000000E+03  0.12500000000E+03 0.  0.
        -11    1    1    0    0    0  0.14460063842E+02 -0.30204832726E+02  0.71686518513E+01  0.34246385736E+02  0.51100000000E-03 0.  1.
         11    1    1    0    0    0  0.11929621860E+02 -0.24919283372E+02  0.59144025484E+01  0.28253614269E+02  0.51100000000E-03 0.  1.
         22    1    1    0    0    0 -0.26389685702E+02  0.55124116098E+02 -0.13083054400E+02  0.62499999996E+02  0.00000000000E+00 0.  1.
</event>
<event>
 4    1  0.1976955E-002  0.9118800E+02  0.7818608E-02  0.1130116E+00
         25   -1    0    0    0    0  0.00000000000E+00  0.00000000000E+00  0.99999998245E-14  0.12500000000E+03  0.12500000000E+03 0.  0.
        -11    1    1    0    0    0 -0.17522124238E+02 -0.80085751922E+01  0.16995594283E+02  0.25690705318E+02  0.51100000000E-03 0. -1.
         11    1    1    0    0    0 -0.25087076685E+02 -0.11455809163E+02  0.24378832936E+02  0.36809298768E+02  0.51100000000E-03 0.  1.
         22    1    1    0    0    0  0.42609200923E+02  0.19464384355E+02 -0.41374427220E+02  0.62499995915E+02  0.00000000000E+00 0. -1.
</event>
<event>
 4    1  0.1976955E-002  0.9118800E+02  0.7818608E-02  0.1130116E+00
         25   -1    0    0    0    0  0.00000000000E+00  0.00000000000E+00  0.99999998245E-14  0.12500000000E+03  0.12500000000E+03 0.  0.
        -11    1    1    0    0    0 -0.18207809435E+02  0.93081459052E+01 -0.88186928714E+01  0.22269603698E+02  0.51100000000E-03 0. -1.
         11    1    1    0    0    0 -0.32923705671E+02  0.16790545362E+02 -0.15893159385E+02  0.40230402983E+02  0.51100000000E-03 0.  1.
         22    1    1    0    0    0  0.51131515107E+02 -0.26098691267E+02  0.24711852257E+02  0.62499993319E+02  0.00000000000E+00 0. -1.
</event>
<event>
 4    1  0.1976955E-002  0.9118800E+02  0.7818608E-02  0.1130116E+00
         25   -1    0    0    0    0  0.00000000000E+00  0.00000000000E+00  0.99999998245E-14  0.12500000000E+03  0.12500000000E+03 0.  0.
        -11    1    1    0    0    0  0.80058373531E+01  0.33401360685E+01 -0.26853718462E+01  0.90808128983E+01  0.51100000000E-03 0.  1.
         11    1    1    0    0    0  0.37950712352E+02  0.16049897608E+02 -0.34470063463E+02  0.53721886198E+02  0.51100000000E-03 0. -1.
         22    1    1    0    0    0 -0.45956549705E+02 -0.19390033677E+02  0.37155435309E+02  0.62197300904E+02  0.00000000000E+00 0. -1.
</event>
<event>
 4    1  0.1976955E-002  0.9118800E+02  0.7818608E-02  0.1130116E+00
         25   -1    0    0    0    0  0.00000000000E+00  0.00000000000E+00  0.99999998245E-14  0.12500000000E+03  0.12500000000E+03 0.  0.
        -11    1    1    0    0    0  0.25797796575E+02  0.65034995174E+01  0.54285012470E+01  0.27153092644E+02  0.51100000000E-03 0.  1.
         11    1    1    0    0    0  0.30926588592E+02  0.14967313788E+02  0.89694208387E+01  0.35509504001E+02  0.51100000000E-03 0. -1.
         22    1    1    0    0    0 -0.56724385167E+02 -0.21470813305E+02 -0.14397922086E+02  0.62337403354E+02  0.00000000000E+00 0.  1.
</event>
<event>
 4    1  0.1976955E-002  0.9118800E+02  0.7818608E-02  0.1130116E+00
         25   -1    0    0    0    0  0.00000000000E+00  0.00000000000E+00  0.99999998245E-14  0.12500000000E+03  0.12500000000E+03 0.  0.
        -11    1    1    0    0    0  0.21057827635E+02 -0.27424810773E+02  0.10719581812E+02  0.36200300898E+02  0.51100000000E-03 0. -1.
         11    1    1    0    0    0  0.86260196353E+01 -0.19984344179E+02  0.15799665192E+02  0.26896312896E+02  0.51100000000E-03 0.  1.
         22    1    1    0    0    0 -0.29683847270E+02  0.47409154952E+02 -0.26519247004E+02  0.61903386205E+02  0.00000000000E+00 0. -1.
</event>
<event>
 4    1  0.1976955E-002  0.9118800E+02  0.7818608E-02  0.1130116E+00
         25   -1    0    0    0    0  0.00000000000E+00  0.00000000000E+00  0.99999998245E-14  0.12500000000E+03  0.12500000000E+03 0.  0.
        -11    1    1    0    0    0 -0.50805912214E+02  0.99830043110E+01 -0.68731699850E+01  0.52231614534E+02  0.51100000000E-03 0. -1.
         11    1    1    0    0    0 -0.10242382172E+02  0.11023080205E+01 -0.31821652938E+00  0.10306441556E+02  0.51100000000E-03 0.  1.
         22    1    1    0    0    0  0.61048294386E+02 -0.11085312331E+02  0.71913865144E+01  0.62461943909E+02  0.00000000000E+00 0. -1.
</event>
<event>
 4    1  0.1976955E-002  0.9118800E+02  0.7818608E-02  0.1130116E+00
         25   -1    0    0    0    0  0.00000000000E+00  0.00000000000E+00  0.99999998245E-14  0.12500000000E+03  0.12500000000E+03 0.  0.
        -11    1    1    0    0    0  0.30764321093E+01 -0.29024063432E+00 -0.22921451988E+01  0.38474152391E+01  0.51100000000E-03 0.  1.
         11    1    1    0    0    0  0.46631638104E+02 -0.45505575317E+01 -0.35283348932E+02  0.58652638118E+02  0.51100000000E-03 0. -1.
         22    1    1    0    0    0 -0.49708070213E+02  0.48407981660E+01  0.37575494131E+02  0.62499946643E+02  0.00000000000E+00 0. -1.
</event>
<event>
 4    1  0.1976955E-002  0.9118800E+02  0.7818608E-02  0.1130116E+00
         25   -1    0    0    0    0  0.00000000000E+00  0.00000000000E+00  0.99999998245E-14  0.12500000000E+03  0.12500000000E+03 0.  0.
        -11    1    1    0    0    0  0.23146457334E+02 -0.48857173994E+02 -0.29139649493E+01  0.54141233176E+02  0.51100000000E-03 0.  1.
         11    1    1    0    0    0  0.35739840639E+01 -0.75427644732E+01 -0.44980532639E+00  0.83587668396E+01  0.51100000000E-03 0. -1.
         22    1    1    0    0    0 -0.26720441398E+02  0.56399938467E+02  0.33637702757E+01  0.62499999985E+02  0.00000000000E+00 0.  1.
</event>
<event>
 4    1  0.1976955E-002  0.9118800E+02  0.7818608E-02  0.1130116E+00
         25   -1    0    0    0    0  0.00000000000E+00  0.00000000000E+00  0.99999998245E-14  0.12500000000E+03  0.12500000000E+03 0.  0.
        -11    1    1    0    0    0 -0.89869872639E+01 -0.54723694211E+01  0.76820330285E+01  0.13027908461E+02  0.51100000000E-03 0.  1.
         11    1    1    0    0    0 -0.34123893294E+02 -0.20779429689E+02  0.29176412621E+02  0.49472091581E+02  0.51100000000E-03 0. -1.
         22    1    1    0    0    0  0.43110880558E+02  0.26251799110E+02 -0.36858445650E+02  0.62499999957E+02  0.00000000000E+00 0. -1.
</event>
<event>
 4    1  0.1976955E-002  0.9118800E+02  0.7818608E-02  0.1130116E+00
         25   -1    0    0    0    0  0.00000000000E+00  0.00000000000E+00  0.99999998245E-14  0.12500000000E+03  0.12500000000E+03 0.  0.
        -11    1    1    0    0    0  0.13772105794E+02  0.19699356378E+02 -0.40743822244E+02  0.47305333642E+02  0.51100000000E-03 0.  1.
         11    1    1    0    0    0  0.20148696829E+02  0.22997226189E+01 -0.22804590196E-01  0.20279527320E+02  0.51100000000E-03 0. -1.
         22    1    1    0    0    0 -0.33920802623E+02 -0.21999078997E+02  0.40766626834E+02  0.57415139038E+02  0.00000000000E+00 0.  1.
</event>
<event>
 4    1  0.1976955E-002  0.9118800E+02  0.7818608E-02  0.1130116E+00
         25   -1    0    0    0    0  0.00000000000E+00  0.00000000000E+00  0.99999998245E-14  0.12500000000E+03  0.12500000000E+03 0.  0.
        -11    1    1    0    0    0  0.11311093675E+02  0.10534060066E+02 -0.14740334045E-01  0.15456632205E+02  0.51100000000E-03 0.  1.
         11    1    1    0    0    0  0.36909100226E+02  0.28831569427E+02 -0.49574317507E+01  0.47096891670E+02  0.51100000000E-03 0. -1.
         22    1    1    0    0    0 -0.48220193900E+02 -0.39365629493E+02  0.49721720848E+01  0.62446476125E+02  0.00000000000E+00 0. -1.
</event>
<event>
 4    1  0.1976955E-002  0.9118800E+02  0.7818608E-02  0.1130116E+00
         25   -1    0    0    0    0  0.00000000000E+00  0.00000000000E+00  0.99999998245E-14  0.12500000000E+03  0.12500000000E+03 0.  0.
        -11    1    1    0    0    0 -0.66836563809E+01 -0.13296627726E+01 -0.10563757289E+02  0.12571087225E+02  0.51100000000E-03 0.  1.
         11    1    1    0    0    0 -0.26534652850E+02 -0.52783328031E+01 -0.41963647964E+02  0.49928912964E+02  0.51100000000E-03 0. -1.
         22    1    1    0    0    0  0.33218309231E+02  0.66079955757E+01  0.52527405253E+02  0.62499999811E+02  0.00000000000E+00 0. -1.
</event>
<event>
 4    1  0.1976955E-002  0.9118800E+02  0.7818608E-02  0.1130116E+00
         25   -1    0    0    0    0  0.00000000000E+00  0.00000000000E+00  0.99999998245E-14  0.12500000000E+03  0.12500000000E+03 0.  0.
        -11    1    1    0    0    0  0.44536276485E+02 -0.30932045477E+02 -0.26469913864E+02  0.60340100271E+02  0.51100000000E-03 0. -1.
         11    1    1    0    0    0  0.15948733197E+01 -0.11066165035E+01 -0.94707244176E+00  0.21598998734E+01  0.51100000000E-03 0.  1.
         22    1    1    0    0    0 -0.46131149805E+02  0.32038661980E+02  0.27416986306E+02  0.62499999855E+02  0.00000000000E+00 0. -1.
</event>
<event>
 4    1  0.1976955E-002  0.9118800E+02  0.7818608E-02  0.1130116E+00
         25   -1    0    0    0    0  0.00000000000E+00  0.00000000000E+00  0.99999998245E-14  0.12500000000E+03  0.12500000000E+03 0.  0.
        -11    1    1    0    0    0  0.16401448950E+02  0.11553613763E+02  0.47663229006E+02  0.51713411396E+02  0.51100000000E-03 0. -1.
         11    1    1    0    0    0  0.33941886612E+01  0.23187309298E+01  0.99728431549E+01  0.10786780365E+02  0.51100000000E-03 0.  1.
         22    1    1    0    0    0 -0.19795637611E+02 -0.13872344693E+02 -0.57636072161E+02  0.62499808239E+02  0.00000000000E+00 0. -1.
</event>
<event>
 4    1  0.1976955E-002  0.9118800E+02  0.7818608E-02  0.1130116E+00
         25   -1    0    0    0    0  0.00000000000E+00  0.00000000000E+00  0.99999998245E-14  0.12500000000E+03  0.12500000000E+03 0.  0.
        -11    1    1    0    0    0 -0.63037255133E+00 -0.61710327560E+00 -0.55769911987E+00  0.10436544331E+01  0.51100000000E-03 0.  1.
         11    1    1    0    0    0 -0.36231036861E+02 -0.37800662994E+02 -0.32176581376E+02  0.61456574458E+02  0.51100000000E-03 0. -1.
         22    1    1    0    0    0  0.36861409413E+02  0.38417766270E+02  0.32734280495E+02  0.62499771109E+02  0.00000000000E+00 0. -1.
</event>
<event>
 4    1  0.1976955E-002  0.9118800E+02  0.7818608E-02  0.1130116E+00
         25   -1    0    0    0    0  0.00000000000E+00  0.00000000000E+00  0.99999998245E-14  0.12500000000E+03  0.12500000000E+03 0.  0.
        -11    1    1    0    0    0 -0.30513211179E+02 -0.53870834037E+01 -0.31953605046E+02  0.44509657376E+02  0.51100000000E-03 0.  1.
         11    1    1    0    0    0 -0.12338187085E+02 -0.21769127887E+01 -0.12910562927E+02  0.17990343109E+02  0.51100000000E-03 0. -1.
         22    1    1    0    0    0  0.42851398263E+02  0.75639961924E+01  0.44864167973E+02  0.62499999515E+02  0.00000000000E+00 0. -1.
</event>
<event>
 4    1  0.1976955E-002  0.9118800E+02  0.7818608E-02  0.1130116E+00
         25   -1    0    0    0    0  0.00000000000E+00  0.00000000000E+00  0.99999998245E-14  0.12500000000E+03  0.12500000000E+03 0.  0.
        -11    1    1    0    0    0 -0.43531445059E+02 -0.10727246570E+02 -0.18335201529E+02  0.48438003090E+02  0.51100000000E-03 0.  1.
         11    1    1    0    0    0 -0.12638113720E+02 -0.31137894448E+01 -0.53218563006E+01  0.14061996937E+02  0.51100000000E-03 0. -1.
         22    1    1    0    0    0  0.56169558780E+02  0.13841036015E+02  0.23657057830E+02  0.62499999973E+02  0.00000000000E+00 0.  1.
</event>
<event>
 4    1  0.1976955E-002  0.9118800E+02  0.7818608E-02  0.1130116E+00
         25   -1    0    0    0    0  0.00000000000E+00  0.00000000000E+00  0.99999998245E-14  0.12500000000E+03  0.12500000000E+03 0.  0.
        -11    1    1    0    0    0  0.13445548899E+02  0.38913549996E+02  0.37608208327E+02  0.55762213840E+02  0.51100000000E-03 0. -1.
         11    1    1    0    0    0  0.14983448175E+01  0.41556477810E+01  0.51156093159E+01  0.67589869512E+01  0.51100000000E-03 0.  1.
         22    1    1    0    0    0 -0.14943893717E+02 -0.43069197777E+02 -0.42723817643E+02  0.62478799209E+02  0.00000000000E+00 0. -1.
</event>
<event>
 4    1  0.1976955E-002  0.9118800E+02  0.7818608E-02  0.1130116E+00
         25   -1    0    0    0    0  0.00000000000E+00  0.00000000000E+00  0.99999998245E-14  0.12500000000E+03  0.12500000000E+03 0.  0.
        -11    1    1    0    0    0  0.12627990147E+00  0.26088877549E+01  0.22960270731E+01  0.34776403657E+01  0.51100000000E-03 0. -1.
         11    1    1    0    0    0  0.18408247069E+01  0.43714781283E+02  0.39614280070E+02  0.59022554367E+02  0.51100000000E-03 0.  1.
         22    1    1    0    0    0 -0.19671046084E+01 -0.46323669038E+02 -0.41910307143E+02  0.62499805268E+02  0.00000000000E+00 0.  1.
</event>
<event>
 4    1  0.1976955E-002  0.9118800E+02  0.7818608E-02  0.1130116E+00
         25   -1    0    0    0    0  0.00000000000E+00  0.00000000000E+00  0.99999998245E-14  0.12500000000E+03  0.12500000000E+03 0.  0.
        -11    1    1    0    0    0  0.50566695512E+01  0.47377788537E+02 -0.46290469376E+01  0.47871210863E+02  0.51100000000E-03 0. -1.
         11    1    1    0    0    0  0.15463314708E+01  0.14477972869E+02 -0.14137301183E+01  0.14628789168E+02  0.51100000000E-03 0.  1.
         22    1    1    0    0    0 -0.66030010220E+01 -0.61855761406E+02  0.60427770559E+01  0.62499999970E+02  0.00000000000E+00 0. -1.
</event>
<event>
 4    1  0.1976955E-002  0.9118800E+02  0.7818608E-02  0.1130116E+00
         25   -1    0    0    0    0  0.00000000000E+00  0.00000000000E+00  0.99999998245E-14  0.12500000000E+03  0.12500000000E+03 0.  0.
        -11    1    1    0    0    0 -0.68382490799E+01 -0.24460683469E+02  0.17834578220E+02  0.31034800898E+02  0.51100000000E-03 0. -1.
         11    1    1    0    0    0 -0.68103375250E+01 -0.24864708043E+02  0.18039666780E+02  0.31465282154E+02  0.51100000000E-03 0.  1.
         22    1    1    0    0    0  0.13648586605E+02  0.49325391512E+02 -0.35874245000E+02  0.62499916947E+02  0.00000000000E+00 0.  1.
</event>
<event>
 4    1  0.1976955E-002  0.9118800E+02  0.7818608E-02  0.1130116E+00
         25   -1    0    0    0    0  0.00000000000E+00  0.00000000000E+00  0.99999998245E-14  0.12500000000E+03  0.12500000000E+03 0.  0.
        -11    1    1    0    0    0 -0.18803614440E+02  0.51264478123E+02  0.79701705741E+01  0.55182843823E+02  0.51100000000E-03 0.  1.
         11    1    1    0    0    0 -0.24846285925E+01  0.67982096947E+01  0.10732627255E+01  0.73171666262E+01  0.51100000000E-03 0. -1.
         22    1    1    0    0    0  0.21288243032E+02 -0.58062687817E+02 -0.90434332996E+01  0.62499989551E+02  0.00000000000E+00 0.  1.
</event>
<event>
 4    1  0.1976955E-002  0.9118800E+02  0.7818608E-02  0.1130116E+00
         25   -1    0    0    0    0  0.00000000000E+00  0.00000000000E+00  0.99999998245E-14  0.12500000000E+03  0.12500000000E+03 0.  0.
        -11    1    1    0    0    0  0.26426481825E+02  0.43102161755E+02  0.16791781309E+02  0.53274001252E+02  0.51100000000E-03 0.  1.
         11    1    1    0    0    0  0.45640547847E+01  0.74564828477E+01  0.29478961897E+01  0.92260405777E+01  0.51100000000E-03 0. -1.
         22    1    1    0    0    0 -0.30990536610E+02 -0.50558644603E+02 -0.19739677499E+02  0.62499958170E+02  0.00000000000E+00 0.  1.
</event>
<event>
 4    1  0.1976955E-002  0.9118800E+02  0.7818608E-02  0.1130116E+00
         25   -1    0    0    0    0  0.00000000000E+00  0.00000000000E+00  0.99999998245E-14  0.12500000000E+03  0.12500000000E+03 0.  0.
        -11    1    1    0    0    0 -0.39716331812E+01  0.38229105649E+01  0.71284670550E+01  0.90113016889E+01  0.51100000000E-03 0.  1.
         11    1    1    0    0    0 -0.33095355157E+02  0.23528197478E+02  0.34966367409E+02  0.53586616422E+02  0.51100000000E-03 0. -1.
         22    1    1    0    0    0  0.37066988338E+02 -0.27351108043E+02 -0.42094834464E+02  0.62402081889E+02  0.00000000000E+00 0. -1.
</event>
<event>
 4    1  0.1976955E-002  0.9118800E+02  0.7818608E-02  0.1130116E+00
         25   -1    0    0    0    0  0.00000000000E+00  0.00000000000E+00  0.99999998245E-14  0.12500000000E+03  0.12500000000E+03 0.  0.
        -11    1    1    0    0    0 -0.14765684556E+02  0.14181406394E+02  0.52939880717E+01  0.21146253514E+02  0.51100000000E-03 0. -1.
         11    1    1    0    0    0 -0.28873684698E+02  0.27739336519E+02  0.10342722792E+02  0.41353746790E+02  0.51100000000E-03 0.  1.
         22    1    1    0    0    0  0.43639369254E+02 -0.41920742913E+02 -0.15636710864E+02  0.62499999696E+02  0.00000000000E+00 0.  1.
</event>
<event>
 4    1  0.1976955E-002  0.9118800E+02  0.7818608E-02  0.1130116E+00
         25   -1    0    0    0    0  0.00000000000E+00  0.00000000000E+00  0.99999998245E-14  0.12500000000E+03  0.12500000000E+03 0.  0.
        -11    1    1    0    0    0  0.18934654971E+02 -0.30973079190E+02  0.14905589589E+01  0.36332830328E+02  0.51100000000E-03 0. -1.
         11    1    1    0    0    0  0.36639234352E+01 -0.26243117205E+02  0.44304712960E+01  0.26865491094E+02  0.51100000000E-03 0.  1.
         22    1    1    0    0    0 -0.22598578406E+02  0.57216196394E+02 -0.59210302549E+01  0.61801678578E+02  0.00000000000E+00 0. -1.
</event>
<event>
 4    1  0.1976955E-002  0.9118800E+02  0.7818608E-02  0.1130116E+00
         25   -1    0    0    0    0  0.00000000000E+00  0.00000000000E+00  0.99999998245E-14  0.12500000000E+03  0.12500000000E+03 0.  0.
        -11    1    1    0    0    0  0.92240510656E+01  0.34755059932E+01 -0.42723782411E+01  0.10743159501E+02  0.51100000000E-03 0. -1.
         11    1    1    0    0    0  0.46883447592E+02  0.86969776135E+01 -0.20277217611E+02  0.51815640805E+02  0.51100000000E-03 0.  1.
         22    1    1    0    0    0 -0.56107498657E+02 -0.12172483607E+02  0.24549595852E+02  0.62441199694E+02  0.00000000000E+00 0.  1.
</event>
<event>
 4    1  0.1976955E-002  0.9118800E+02  0.7818608E-02  0.1130116E+00
         25   -1    0    0    0    0  0.00000000000E+00  0.00000000000E+00  0.99999998245E-14  0.12500000000E+03  0.12500000000E+03 0.  0.
        -11    1    1    0    0    0 -0.40907276265E+02 -0.20081548909E+02 -0.35553621440E+02  0.57799081790E+02  0.51100000000E-03 0.  1.
         11    1    1    0    0    0 -0.33288442922E+01 -0.16330727009E+01 -0.28897239169E+01  0.47009185640E+01  0.51100000000E-03 0. -1.
         22    1    1    0    0    0  0.44236120557E+02  0.21714621610E+02  0.38443345357E+02  0.62499999646E+02  0.00000000000E+00 0.  1.
</event>
<event>
 4    1  0.1976955E-002  0.9118800E+02  0.7818608E-02  0.1130116E+00
         25   -1    0    0    0    0  0.00000000000E+00  0.00000000000E+00  0.99999998245E-14  0.12500000000E+03  0.12500000000E+03 0.  0.
        -11    1    1    0    0    0 -0.27167312570E+02 -0.28400866618E+02  0.55500279903E+01  0.39692252492E+02  0.51100000000E-03 0.  1.
         11    1    1    0    0    0 -0.15661638854E+02 -0.16270779385E+02  0.31890015927E+01  0.22807782110E+02  0.51100000000E-03 0. -1.
         22    1    1    0    0    0  0.42828951423E+02  0.44671646003E+02 -0.87390295830E+01  0.62499965398E+02  0.00000000000E+00 0.  1.
</event>
<event>
 4    1  0.1976955E-002  0.9118800E+02  0.7818608E-02  0.1130116E+00
         25   -1    0    0    0    0  0.00000000000E+00  0.00000000000E+00  0.99999998245E-14  0.12500000000E+03  0.12500000000E+03 0.  0.
        -11    1    1    0    0    0  0.61698630482E+01  0.97071846749E+01  0.19206813930E+02  0.22387459569E+02  0.51100000000E-03 0. -1.
         11    1    1    0    0    0  0.11103405015E+02  0.17315815875E+02  0.34436817469E+02  0.40112560128E+02  0.51100000000E-03 0.  1.
         22    1    1    0    0    0 -0.17273268063E+02 -0.27023000550E+02 -0.53643631399E+02  0.62499980304E+02  0.00000000000E+00 0.  1.
</event>
<event>
 4    1  0.1976955E-002  0.9118800E+02  0.7818608E-02  0.1130116E+00
         25   -1    0    0    0    0  0.00000000000E+00  0.00000000000E+00  0.99999998245E-14  0.12500000000E+03  0.12500000000E+03 0.  0.
        -11    1    1    0    0    0 -0.29017303761E+02  0.16841194558E+02  0.55639393788E+01  0.34008633807E+02  0.51100000000E-03 0. -1.
         11    1    1    0    0    0 -0.24309603637E+02  0.14107486644E+02  0.46668992218E+01  0.28491366359E+02  0.51100000000E-03 0.  1.
         22    1    1    0    0    0  0.53326907398E+02 -0.30948681202E+02 -0.10230838601E+02  0.62499999834E+02  0.00000000000E+00 0.  1.
</event>
<event>
 4    1  0.1976955E-002  0.9118800E+02  0.7818608E-02  0.1130116E+00
         25   -1    0    0    0    0  0.00000000000E+00  0.00000000000E+00  0.99999998245E-14  0.12500000000E+03  0.12500000000E+03 0.  0.
        -11    1    1    0    0    0 -0.85000725061E+01  0.36013784976E+02  0.23602324137E+01  0.37078492933E+02  0.51100000000E-03 0.  1.
         11    1    1    0    0    0 -0.62062961600E+01  0.24592793610E+02  0.17257574049E+01  0.25422467395E+02  0.51100000000E-03 0. -1.
         22    1    1    0    0    0  0.14706368666E+02 -0.60606578585E+02 -0.40859898186E+01  0.62499039672E+02  0.00000000000E+00 0. -1.
</event>
<event>
 4    1  0.1976955E-002  0.9118800E+02  0.7818608E-02  0.1130116E+00
         25   -1    0    0    0    0  0.00000000000E+00  0.00000000000E+00  0.99999998245E-14  0.12500000000E+03  0.12500000000E+03 0.  0.
        -11    1    1    0    0    0  0.55200182437E+00  0.55710252779E+02 -0.19393096639E+02  0.58991772038E+02  0.51100000000E-03 0.  1.
         11    1    1    0    0    0  0.31393335303E-01  0.33125450268E+01 -0.11548703298E+01  0.35082283044E+01  0.51100000000E-03 0. -1.
         22    1    1    0    0    0 -0.58339515967E+00 -0.59022797805E+02  0.20547966968E+02  0.62499999658E+02  0.00000000000E+00 0.  1.
</event>
<event>
 4    1  0.1976955E-002  0.9118800E+02  0.7818608E-02  0.1130116E+00
         25   -1    0    0    0    0  0.00000000000E+00  0.00000000000E+00  0.99999998245E-14  0.12500000000E+03  0.12500000000E+03 0.  0.
        -11    1    1    0    0    0 -0.26826874853E+01 -0.46005848465E+02  0.16275037769E+02  0.48873425906E+02  0.51100000000E-03 0. -1.
         11    1    1    0    0    0  0.18259021846E+02 -0.21381532827E+01  0.79457361994E+01  0.20027438734E+02  0.51100000000E-03 0.  1.
         22    1    1    0    0    0 -0.15576334361E+02  0.48144001748E+02 -0.24220773968E+02  0.56099135359E+02  0.00000000000E+00 0. -1.
</event>
<event>
 4    1  0.1976955E-002  0.9118800E+02  0.7818608E-02  0.1130116E+00
         25   -1    0    0    0    0  0.00000000000E+00  0.00000000000E+00  0.99999998245E-14  0.12500000000E+03  0.12500000000E+03 0.  0.
        -11    1    1    0    0    0 -0.11215025948E+02  0.11679448273E+02  0.12383463496E+01  0.16239452605E+02  0.51100000000E-03 0.  1.
         11    1    1    0    0    0 -0.15555917430E+02  0.43979919163E+02 -0.47926770592E+01  0.46895518020E+02  0.51100000000E-03 0. -1.
         22    1    1    0    0    0  0.26770943378E+02 -0.55659367436E+02  0.35543307095E+01  0.61865029375E+02  0.00000000000E+00 0. -1.
</event>
<event>
 4    1  0.1976955E-002  0.9118800E+02  0.7818608E-02  0.1130116E+00
         25   -1    0    0    0    0  0.00000000000E+00  0.00000000000E+00  0.99999998245E-14  0.12500000000E+03  0.12500000000E+03 0.  0.
        -11    1    1    0    0    0  0.37481353148E+02 -0.15332339435E+02 -0.36868818057E+02  0.54765337683E+02  0.51100000000E-03 0. -1.
         11    1    1    0    0    0  0.53250146026E+01 -0.21731335157E+01 -0.51718192794E+01  0.77347271907E+01  0.51100000000E-03 0.  1.
         22    1    1    0    0    0 -0.42806367751E+02  0.17505472950E+02  0.42040637336E+02  0.62499935127E+02  0.00000000000E+00 0. -1.
</event>
<event>
 4    1  0.1976955E-002  0.9118800E+02  0.7818608E-02  0.1130116E+00
         25   -1    0    0    0    0  0.00000000000E+00  0.00000000000E+00  0.99999998245E-14  0.12500000000E+03  0.12500000000E+03 0.  0.
        -11    1    1    0    0    0  0.41505765139E+01 -0.10092951035E+01  0.31643137069E+01  0.53159047678E+01  0.51100000000E-03 0.  1.
         11    1    1    0    0    0  0.16058620612E+02 -0.36059886888E+02  0.42150951505E+02  0.57748570990E+02  0.51100000000E-03 0. -1.
         22    1    1    0    0    0 -0.20209197126E+02  0.37069181991E+02 -0.45315265212E+02  0.61935524243E+02  0.00000000000E+00 0. -1.
</event>
<event>
 4    1  0.1976955E-002  0.9118800E+02  0.7818608E-02  0.1130116E+00
         25   -1    0    0    0    0  0.00000000000E+00  0.00000000000E+00  0.99999998245E-14  0.12500000000E+03  0.12500000000E+03 0.  0.
        -11    1    1    0    0    0  0.35491784149E+02 -0.87047834732E+01  0.18670858685E+02  0.41037068142E+02  0.51100000000E-03 0.  1.
         11    1    1    0    0    0  0.18502443044E+02 -0.45295950651E+01  0.98897056130E+01  0.21463082431E+02  0.51100000000E-03 0. -1.
         22    1    1    0    0    0 -0.53994227193E+02  0.13234378538E+02 -0.28560564298E+02  0.62499849428E+02  0.00000000000E+00 0.  1.
</event>
<event>
 4    1  0.1976955E-002  0.9118800E+02  0.7818608E-02  0.1130116E+00
         25   -1    0    0    0    0  0.00000000000E+00  0.00000000000E+00  0.99999998245E-14  0.12500000000E+03  0.12500000000E+03 0.  0.
        -11    1    1    0    0    0  0.50835249897E+01 -0.43673861897E+02  0.11029661632E+02  0.45331025526E+02  0.51100000000E-03 0. -1.
         11    1    1    0    0    0  0.19335163601E+01 -0.16543118677E+02  0.41665922872E+01  0.17168976458E+02  0.51100000000E-03 0.  1.
         22    1    1    0    0    0 -0.70170413498E+01  0.60216980574E+02 -0.15196253919E+02  0.62499998015E+02  0.00000000000E+00 0. -1.
</event>
<event>
 4    1  0.1976955E-002  0.9118800E+02  0.7818608E-02  0.1130116E+00
         25   -1    0    0    0    0  0.00000000000E+00  0.00000000000E+00  0.99999998245E-14  0.12500000000E+03  0.12500000000E+03 0.  0.
        -11    1    1    0    0    0  0.93783963121E+01  0.45878395649E+02  0.40361242911E+02  0.61820800984E+02  0.51100000000E-03 0.  1.
         11    1    1    0    0    0  0.28608924484E+00  0.30155963055E+00  0.57879269623E+00  0.71259140685E+00  0.51100000000E-03 0. -1.
         22    1    1    0    0    0 -0.96644855569E+01 -0.46179955279E+02 -0.40940035608E+02  0.62466607609E+02  0.00000000000E+00 0.  1.
</event>
<event>
 4    1  0.1976955E-002  0.9118800E+02  0.7818608E-02  0.1130116E+00
         25   -1    0    0    0    0  0.00000000000E+00  0.00000000000E+00  0.99999998245E-14  0.12500000000E+03  0.12500000000E+03 0.  0.
        -11    1    1    0    0    0 -0.45761874862E+02  0.61990776907E+01  0.32005895853E+01  0.46290620314E+02  0.51100000000E-03 0.  1.
         11    1    1    0    0    0 -0.16027605394E+02  0.21572673144E+01  0.10983214143E+01  0.16209387623E+02  0.51100000000E-03 0. -1.
         22    1    1    0    0    0  0.61789480256E+02 -0.83563450051E+01 -0.42989109996E+01  0.62499992063E+02  0.00000000000E+00 0.  1.
</event>
<event>
 4    1  0.1976955E-002  0.9118800E+02  0.7818608E-02  0.1130116E+00
         25   -1    0    0    0    0  0.00000000000E+00  0.00000000000E+00  0.99999998245E-14  0.12500000000E+03  0.12500000000E+03 0.  0.
        -11    1    1    0    0    0 -0.26624089295E+02  0.34216929379E+02 -0.11010145319E+01  0.43368797772E+02  0.51100000000E-03 0.  1.
         11    1    1    0    0    0 -0.10809635704E+02  0.15778281976E+02  0.13598310177E+01  0.19174241754E+02  0.51100000000E-03 0. -1.
         22    1    1    0    0    0  0.37433725000E+02 -0.49995211354E+02 -0.25881648580E+00  0.62456960474E+02  0.00000000000E+00 0.  1.
</event>
<event>
 4    1  0.1976955E-002  0.9118800E+02  0.7818608E-02  0.1130116E+00
         25   -1    0    0    0    0  0.00000000000E+00  0.00000000000E+00  0.99999998245E-14  0.12500000000E+03  0.12500000000E+03 0.  0.
        -11    1    1    0    0    0 -0.31896512308E+02 -0.21024706354E+02  0.25052175578E+02  0.45684103101E+02  0.51100000000E-03 0. -1.
         11    1    1    0    0    0 -0.11740611309E+02 -0.77392022114E+01  0.92215608061E+01  0.16815896905E+02  0.51100000000E-03 0. -1.
         22    1    1    0    0    0  0.43637123617E+02  0.28763908566E+02 -0.34273736384E+02  0.62499999994E+02  0.00000000000E+00 0. -1.
</event>
<event>
 4    1  0.1976955E-002  0.9118800E+02  0.7818608E-02  0.1130116E+00
         25   -1    0    0    0    0  0.00000000000E+00  0.00000000000E+00  0.99999998245E-14  0.12500000000E+03  0.12500000000E+03 0.  0.
        -11    1    1    0    0    0  0.16061962804E+02 -0.35425623483E+02 -0.59564709999E+01  0.39350235010E+02  0.51100000000E-03 0.  1.
         11    1    1    0    0    0  0.88492196015E+01 -0.21246110519E+02 -0.25770894633E+01  0.23159172915E+02  0.51100000000E-03 0. -1.
         22    1    1    0    0    0 -0.24911182406E+02  0.56671734002E+02  0.85335604632E+01  0.62490592075E+02  0.00000000000E+00 0.  1.
</event>
<event>
 4    1  0.1976955E-002  0.9118800E+02  0.7818608E-02  0.1130116E+00
         25   -1    0    0    0    0  0.00000000000E+00  0.00000000000E+00  0.99999998245E-14  0.12500000000E+03  0.12500000000E+03 0.  0.
        -11    1    1    0    0    0  0.78951175866E+01 -0.13539904543E+02  0.15130957715E+01  0.15746471218E+02  0.51100000000E-03 0. -1.
         11    1    1    0    0    0  0.23444636942E+02 -0.40200741151E+02  0.44879691775E+01  0.46753528830E+02  0.51100000000E-03 0.  1.
         22    1    1    0    0    0 -0.31339754528E+02  0.53740645694E+02 -0.60010649489E+01  0.62499999952E+02  0.00000000000E+00 0.  1.
</event>
<event>
 4    1  0.1976955E-002  0.9118800E+02  0.7818608E-02  0.1130116E+00
         25   -1    0    0    0    0  0.00000000000E+00  0.00000000000E+00  0.99999998245E-14  0.12500000000E+03  0.12500000000E+03 0.  0.
        -11    1    1    0    0    0  0.18873386394E+02  0.48047944222E+01 -0.89331043708E+01  0.21426411677E+02  0.51100000000E-03 0.  1.
         11    1    1    0    0    0  0.36179344649E+02  0.92129419422E+01 -0.17123562142E+02  0.41073588340E+02  0.51100000000E-03 0. -1.
         22    1    1    0    0    0 -0.55052731043E+02 -0.14017736364E+02  0.26056666513E+02  0.62499999982E+02  0.00000000000E+00 0. -1.
</event>
<event>
 4    1  0.1976955E-002  0.9118800E+02  0.7818608E-02  0.1130116E+00
         25   -1    0    0    0    0  0.00000000000E+00  0.00000000000E+00  0.99999998245E-14  0.12500000000E+03  0.12500000000E+03 0.  0.
        -11    1    1    0    0    0 -0.16076749657E+02 -0.19999185182E+02 -0.12222484734E+02  0.28422146661E+02  0.51100000000E-03 0.  1.
         11    1    1    0    0    0 -0.23311227366E+02 -0.23642721629E+02 -0.84506916852E+01  0.34260849341E+02  0.51100000000E-03 0. -1.
         22    1    1    0    0    0  0.39387977023E+02  0.43641906811E+02  0.20673176420E+02  0.62317003998E+02  0.00000000000E+00 0.  1.
</event>
<event>
 4    1  0.1976955E-002  0.9118800E+02  0.7818608E-02  0.1130116E+00
         25   -1    0    0    0    0  0.00000000000E+00  0.00000000000E+00  0.99999998245E-14  0.12500000000E+03  0.12500000000E+03 0.  0.
        -11    1    1    0    0    0  0.19813678486E+02 -0.38311362793E+02  0.88153440727E+01  0.44023319565E+02  0.51100000000E-03 0. -1.
         11    1    1    0    0    0  0.82183489094E+01 -0.16149445796E+02  0.36124269929E+01  0.18476890630E+02  0.51100000000E-03 0.  1.
         22    1    1    0    0    0 -0.28032027395E+02  0.54460808588E+02 -0.12427771066E+02  0.62499789805E+02  0.00000000000E+00 0.  1.
</event>
<event>
 4    1  0.1976955E-002  0.9118800E+02  0.7818608E-02  0.1130116E+00
         25   -1    0    0    0    0  0.00000000000E+00  0.00000000000E+00  0.99999998245E-14  0.12500000000E+03  0.12500000000E+03 0.  0.
        -11    1    1    0    0    0 -0.34654943173E+01  0.14682567178E+02  0.10897111052E+02  0.18610063389E+02  0.51100000000E-03 0. -1.
         11    1    1    0    0    0 -0.81431952813E+01  0.34549151980E+02  0.25814220852E+02  0.43889970727E+02  0.51100000000E-03 0.  1.
         22    1    1    0    0    0  0.11608689599E+02 -0.49231719158E+02 -0.36711331904E+02  0.62499965885E+02  0.00000000000E+00 0.  1.
</event>
<event>
 4    1  0.1976955E-002  0.9118800E+02  0.7818608E-02  0.1130116E+00
         25   -1    0    0    0    0  0.00000000000E+00  0.00000000000E+00  0.99999998245E-14  0.12500000000E+03  0.12500000000E+03 0.  0.
        -11    1    1    0    0    0 -0.27617442650E+02  0.52334115113E+01  0.36292043178E+02  0.45904511030E+02  0.51100000000E-03 0. -1.
         11    1    1    0    0    0 -0.99660548321E+01  0.18769758310E+01  0.13136409959E+02  0.16595498006E+02  0.51100000000E-03 0.  1.
         22    1    1    0    0    0  0.37583497482E+02 -0.71103873423E+01 -0.49428453136E+02  0.62499990965E+02  0.00000000000E+00 0. -1.
</event>
<event>
 4    1  0.1976955E-002  0.9118800E+02  0.7818608E-02  0.1130116E+00
         25   -1    0    0    0    0  0.00000000000E+00  0.00000000000E+00  0.99999998245E-14  0.12500000000E+03  0.12500000000E+03 0.  0.
        -11    1    1    0    0    0 -0.34993816631E+02  0.42009188641E+01 -0.36029564718E+02  0.50401829885E+02  0.51100000000E-03 0.  1.
         11    1    1    0    0    0  0.75903460502E+01 -0.76206179727E+00 -0.14856316101E+02  0.16700425734E+02  0.51100000000E-03 0. -1.
         22    1    1    0    0    0  0.27403470581E+02 -0.34388570668E+01  0.50885880818E+02  0.57897744382E+02  0.00000000000E+00 0. -1.
</event>
<event>
 4    1  0.1976955E-002  0.9118800E+02  0.7818608E-02  0.1130116E+00
         25   -1    0    0    0    0  0.00000000000E+00  0.00000000000E+00  0.99999998245E-14  0.12500000000E+03  0.12500000000E+03 0.  0.
        -11    1    1    0    0    0 -0.89391586188E+01 -0.74589109172E+00 -0.79892606382E+01  0.12012210294E+02  0.51100000000E-03 0. -1.
         11    1    1    0    0    0 -0.37700794608E+02 -0.33754915877E+01 -0.33410820653E+02  0.50487887602E+02  0.51100000000E-03 0.  1.
         22    1    1    0    0    0  0.46639953227E+02  0.41213826794E+01  0.41400081291E+02  0.62499902105E+02  0.00000000000E+00 0.  1.
</event>
<event>
 4    1  0.1976955E-002  0.9118800E+02  0.7818608E-02  0.1130116E+00
         25   -1    0    0    0    0  0.00000000000E+00  0.00000000000E+00  0.99999998245E-14  0.12500000000E+03  0.12500000000E+03 0.  0.
        -11    1    1    0    0    0 -0.58320229049E+00 -0.24085046815E+01 -0.43221752752E+00  0.25155182299E+01  0.51100000000E-03 0.  1.
         11    1    1    0    0    0 -0.14040193053E+02 -0.57409154301E+02 -0.10256727369E+02  0.59984485286E+02  0.51100000000E-03 0. -1.
         22    1    1    0    0    0  0.14623395343E+02  0.59817658982E+02  0.10688944896E+02  0.62499996484E+02  0.00000000000E+00 0. -1.
</event>
<event>
 4    1  0.1976955E-002  0.9118800E+02  0.7818608E-02  0.1130116E+00
         25   -1    0    0    0    0  0.00000000000E+00  0.00000000000E+00  0.99999998245E-14  0.12500000000E+03  0.12500000000E+03 0.  0.
        -11    1    1    0    0    0 -0.23871341154E+02  0.19294712261E+02  0.44201102498E+02  0.53813235472E+02  0.51100000000E-03 0.  1.
         11    1    1    0    0    0 -0.13197782476E+02  0.10004771786E+01 -0.74951938052E+01  0.15210534090E+02  0.51100000000E-03 0. -1.
         22    1    1    0    0    0  0.37069123630E+02 -0.20295189440E+02 -0.36705908692E+02  0.55976230438E+02  0.00000000000E+00 0.  1.
</event>
<event>
 4    1  0.1976955E-002  0.9118800E+02  0.7818608E-02  0.1130116E+00
         25   -1    0    0    0    0  0.00000000000E+00  0.00000000000E+00  0.99999998245E-14  0.12500000000E+03  0.12500000000E+03 0.  0.
        -11    1    1    0    0    0  0.27669630388E+01  0.56922669325E+02  0.11698062702E+02  0.58178097587E+02  0.51100000000E-03 0.  1.
         11    1    1    0    0    0  0.13379887349E+01  0.42338897946E+01 -0.10806138893E+00  0.44415891494E+01  0.51100000000E-03 0. -1.
         22    1    1    0    0    0 -0.41049517737E+01 -0.61156559120E+02 -0.11590001313E+02  0.62380313264E+02  0.00000000000E+00 0.  1.
</event>
<event>
 4    1  0.1976955E-002  0.9118800E+02  0.7818608E-02  0.1130116E+00
         25   -1    0    0    0    0  0.00000000000E+00  0.00000000000E+00  0.99999998245E-14  0.12500000000E+03  0.12500000000E+03 0.  0.
        -11    1    1    0    0    0 -0.34061636132E+02 -0.10433581659E+02  0.11539014399E+02  0.37446008275E+02  0.51100000000E-03 0. -1.
         11    1    1    0    0    0 -0.22790596323E+02 -0.69785202414E+01  0.77195516601E+01  0.25053991770E+02  0.51100000000E-03 0.  1.
         22    1    1    0    0    0  0.56852232455E+02  0.17412101900E+02 -0.19258566059E+02  0.62499999955E+02  0.00000000000E+00 0. -1.
</event>
<event>
 4    1  0.1976955E-002  0.9118800E+02  0.7818608E-02  0.1130116E+00
         25   -1    0    0    0    0  0.00000000000E+00  0.00000000000E+00  0.99999998245E-14  0.12500000000E+03  0.12500000000E+03 0.  0.
        -11    1    1    0    0    0  0.14686237503E+02 -0.39435839151E+01  0.23349192225E+02  0.27864353642E+02  0.51100000000E-03 0. -1.
         11    1    1    0    0    0  0.18254498912E+02 -0.49020985052E+01  0.29023623111E+02  0.34635646364E+02  0.51100000000E-03 0. -1.
         22    1    1    0    0    0 -0.32940736414E+02  0.88456824203E+01 -0.52372815336E+02  0.62499999994E+02  0.00000000000E+00 0. -1.
</event>
<event>
 4    1  0.1976955E-002  0.9118800E+02  0.7818608E-02  0.1130116E+00
         25   -1    0    0    0    0  0.00000000000E+00  0.00000000000E+00  0.99999998245E-14  0.12500000000E+03  0.12500000000E+03 0.  0.
        -11    1    1    0    0    0  0.75072220947E+00  0.24702798604E+01 -0.68105699550E+00  0.26701508041E+01  0.51100000000E-03 0. -1.
         11    1    1    0    0    0  0.17060631660E+02  0.55290933666E+02 -0.15213799870E+02  0.59829860480E+02  0.51100000000E-03 0.  1.
         22    1    1    0    0    0 -0.17811353870E+02 -0.57761213527E+02  0.15894856865E+02  0.62499988716E+02  0.00000000000E+00 0.  1.
</event>
<event>
 4    1  0.1976955E-002  0.9118800E+02  0.7818608E-02  0.1130116E+00
         25   -1    0    0    0    0  0.00000000000E+00  0.00000000000E+00  0.99999998245E-14  0.12500000000E+03  0.12500000000E+03 0.  0.
        -11    1    1    0    0    0  0.54327326095E+01 -0.44030876543E+02 -0.34380223891E+02  0.56126931751E+02  0.51100000000E-03 0. -1.
         11    1    1    0    0    0 -0.16613803480E+01 -0.69428272957E+00  0.22326275163E+02  0.22398767289E+02  0.51100000000E-03 0.  1.
         22    1    1    0    0    0 -0.37713522615E+01  0.44725159272E+02  0.12053948728E+02  0.46474300960E+02  0.00000000000E+00 0. -1.
</event>
<event>
 4    1  0.1976955E-002  0.9118800E+02  0.7818608E-02  0.1130116E+00
         25   -1    0    0    0    0  0.00000000000E+00  0.00000000000E+00  0.99999998245E-14  0.12500000000E+03  0.12500000000E+03 0.  0.
        -11    1    1    0    0    0  0.28773917183E+02 -0.13692176346E+02 -0.43349498586E+02  0.53801422203E+02  0.51100000000E-03 0. -1.
         11    1    1    0    0    0  0.26281321314E+01 -0.98382912531E+00 -0.84318709687E+01  0.88865880147E+01  0.51100000000E-03 0.  1.
         22    1    1    0    0    0 -0.31402049314E+02  0.14676005471E+02  0.51781369554E+02  0.62311989783E+02  0.00000000000E+00 0. -1.
</event>
<event>
 4    1  0.1976955E-002  0.9118800E+02  0.7818608E-02  0.1130116E+00
         25   -1    0    0    0    0  0.00000000000E+00  0.00000000000E+00  0.99999998245E-14  0.12500000000E+03  0.12500000000E+03 0.  0.
        -11    1    1    0    0    0 -0.48801443452E+02  0.35967905963E+01 -0.20530265958E+02  0.53066087157E+02  0.51100000000E-03 0.  1.
         11    1    1    0    0    0 -0.86781150802E+01  0.63289793562E+00 -0.36453393784E+01  0.94339143831E+01  0.51100000000E-03 0. -1.
         22    1    1    0    0    0  0.57479558532E+02 -0.42296885320E+01  0.24175605337E+02  0.62499998460E+02  0.00000000000E+00 0.  1.
</event>
<event>
 4    1  0.1976955E-002  0.9118800E+02  0.7818608E-02  0.1130116E+00
         25   -1    0    0    0    0  0.00000000000E+00  0.00000000000E+00  0.99999998245E-14  0.12500000000E+03  0.12500000000E+03 0.  0.
        -11    1    1    0    0    0 -0.60893400112E+01 -0.22579352505E+02 -0.18859978975E+02  0.30043402413E+02  0.51100000000E-03 0.  1.
         11    1    1    0    0    0 -0.65790285225E+01 -0.24392454480E+02 -0.20375359513E+02  0.32456597595E+02  0.51100000000E-03 0. -1.
         22    1    1    0    0    0  0.12668368534E+02  0.46971806986E+02  0.39235338488E+02  0.62499999993E+02  0.00000000000E+00 0.  1.
</event>
<event>
 4    1  0.1976955E-002  0.9118800E+02  0.7818608E-02  0.1130116E+00
         25   -1    0    0    0    0  0.00000000000E+00  0.00000000000E+00  0.99999998245E-14  0.12500000000E+03  0.12500000000E+03 0.  0.
        -11    1    1    0    0    0  0.65171854640E+01  0.36207082358E+00 -0.69861645928E+01  0.95609255636E+01  0.51100000000E-03 0. -1.
         11    1    1    0    0    0  0.36267774941E+02  0.19217692163E+01 -0.38516309280E+02  0.52939123311E+02  0.51100000000E-03 0.  1.
         22    1    1    0    0    0 -0.42784960405E+02 -0.22838400399E+01  0.45502473872E+02  0.62499951126E+02  0.00000000000E+00 0.  1.
</event>
<event>
 4    1  0.1976955E-002  0.9118800E+02  0.7818608E-02  0.1130116E+00
         25   -1    0    0    0    0  0.00000000000E+00  0.00000000000E+00  0.99999998245E-14  0.12500000000E+03  0.12500000000E+03 0.  0.
        -11    1    1    0    0    0  0.17857272960E+02  0.34739399043E+02 -0.20494012220E+02  0.44110232153E+02  0.51100000000E-03 0. -1.
         11    1    1    0    0    0  0.72302699414E+01  0.14548593708E+02 -0.86177055526E+01  0.18390302650E+02  0.51100000000E-03 0.  1.
         22    1    1    0    0    0 -0.25087542901E+02 -0.49287992751E+02  0.29111717773E+02  0.62499465197E+02  0.00000000000E+00 0. -1.
</event>
<event>
 4    1  0.1976955E-002  0.9118800E+02  0.7818608E-02  0.1130116E+00
         25   -1    0    0    0    0  0.00000000000E+00  0.00000000000E+00  0.99999998245E-14  0.12500000000E+03  0.12500000000E+03 0.  0.
        -11    1    1    0    0    0 -0.29344424651E+02  0.20250227915E+01  0.35671695242E+02  0.46234898260E+02  0.51100000000E-03 0. -1.
         11    1    1    0    0    0 -0.10316085483E+02  0.71040714939E+00  0.12554969910E+02  0.16265102758E+02  0.51100000000E-03 0.  1.
         22    1    1    0    0    0  0.39660510134E+02 -0.27354299409E+01 -0.48226665152E+02  0.62499998982E+02  0.00000000000E+00 0. -1.
</event>
<event>
 4    1  0.1976955E-002  0.9118800E+02  0.7818608E-02  0.1130116E+00
         25   -1    0    0    0    0  0.00000000000E+00  0.00000000000E+00  0.99999998245E-14  0.12500000000E+03  0.12500000000E+03 0.  0.
        -11    1    1    0    0    0  0.49191539187E+01 -0.11438961764E+01 -0.37467893541E+01  0.62884818886E+01  0.51100000000E-03 0. -1.
         11    1    1    0    0    0  0.44219090383E+02 -0.10318688153E+02 -0.33135199055E+02  0.56211606419E+02  0.51100000000E-03 0.  1.
         22    1    1    0    0    0 -0.49138244302E+02  0.11462584329E+02  0.36881988409E+02  0.62499911693E+02  0.00000000000E+00 0.  1.
</event>
<event>
 4    1  0.1976955E-002  0.9118800E+02  0.7818608E-02  0.1130116E+00
         25   -1    0    0    0    0  0.00000000000E+00  0.00000000000E+00  0.99999998245E-14  0.12500000000E+03  0.12500000000E+03 0.  0.
        -11    1    1    0    0    0  0.76581416993E+01  0.52644914997E+01 -0.12263742487E+02  0.15387052515E+02  0.51100000000E-03 0.  1.
         11    1    1    0    0    0  0.23447642278E+02  0.16119257142E+02 -0.37550065804E+02  0.47112947491E+02  0.51100000000E-03 0.  1.
         22    1    1    0    0    0 -0.31105783977E+02 -0.21383748642E+02  0.49813808291E+02  0.62499999994E+02  0.00000000000E+00 0.  1.
</event>
<event>
 4    1  0.1976955E-002  0.9118800E+02  0.7818608E-02  0.1130116E+00
         25   -1    0    0    0    0  0.00000000000E+00  0.00000000000E+00  0.99999998245E-14  0.12500000000E+03  0.12500000000E+03 0.  0.
        -11    1    1    0    0    0 -0.97986066139E-01  0.20305792049E+01  0.40529995079E+00  0.20729499482E+01  0.51100000000E-03 0.  1.
         11    1    1    0    0    0 -0.59717118760E+02  0.13138946470E+02 -0.23087038456E+01  0.61189021083E+02  0.51100000000E-03 0. -1.
         22    1    1    0    0    0  0.59815104826E+02 -0.15169525675E+02  0.19034038948E+01  0.61738028969E+02  0.00000000000E+00 0. -1.
</event>
<event>
 4    1  0.1976955E-002  0.9118800E+02  0.7818608E-02  0.1130116E+00
         25   -1    0    0    0    0  0.00000000000E+00  0.00000000000E+00  0.99999998245E-14  0.12500000000E+03  0.12500000000E+03 0.  0.
        -11    1    1    0    0    0  0.11687433703E+02  0.15165756988E+02  0.37445943691E+02  0.42057044484E+02  0.51100000000E-03 0.  1.
         11    1    1    0    0    0  0.51837432933E+01  0.63227366416E+01  0.18751574432E+02  0.20456532872E+02  0.51100000000E-03 0. -1.
         22    1    1    0    0    0 -0.16871176997E+02 -0.21488493629E+02 -0.56197518123E+02  0.62486422644E+02  0.00000000000E+00 0.  1.
</event>
<event>
 4    1  0.1976955E-002  0.9118800E+02  0.7818608E-02  0.1130116E+00
         25   -1    0    0    0    0  0.00000000000E+00  0.00000000000E+00  0.99999998245E-14  0.12500000000E+03  0.12500000000E+03 0.  0.
        -11    1    1    0    0    0  0.61905232893E+00  0.12905901579E+02 -0.51114977809E+02  0.52722732081E+02  0.51100000000E-03 0.  1.
         11    1    1    0    0    0  0.11530978648E+00  0.23955207070E+01 -0.94785628797E+01  0.97772680402E+01  0.51100000000E-03 0. -1.
         22    1    1    0    0    0 -0.73436211541E+00 -0.15301422285E+02  0.60593540689E+02  0.62499999879E+02  0.00000000000E+00 0.  1.
</event>
<event>
 4    1  0.1976955E-002  0.9118800E+02  0.7818608E-02  0.1130116E+00
         25   -1    0    0    0    0  0.00000000000E+00  0.00000000000E+00  0.99999998245E-14  0.12500000000E+03  0.12500000000E+03 0.  0.
        -11    1    1    0    0    0  0.26930595913E+01 -0.52168041981E+01 -0.26431441372E+01  0.64384646613E+01  0.51100000000E-03 0.  1.
         11    1    1    0    0    0  0.23450884022E+02 -0.45426153467E+02 -0.23009049682E+02  0.56061535367E+02  0.51100000000E-03 0.  1.
         22    1    1    0    0    0 -0.26143943613E+02  0.50642957665E+02  0.25652193819E+02  0.62499999972E+02  0.00000000000E+00 0.  1.
</event>
<event>
 4    1  0.1976955E-002  0.9118800E+02  0.7818608E-02  0.1130116E+00
         25   -1    0    0    0    0  0.00000000000E+00  0.00000000000E+00  0.99999998245E-14  0.12500000000E+03  0.12500000000E+03 0.  0.
        -11    1    1    0    0    0  0.27637236115E+02 -0.15249991821E+02 -0.52379207318E+02  0.61155215886E+02  0.51100000000E-03 0. -1.
         11    1    1    0    0    0  0.56333878117E+00 -0.34823704495E+00 -0.11709180409E+01  0.13452393621E+01  0.51100000000E-03 0.  1.
         22    1    1    0    0    0 -0.28200574897E+02  0.15598228866E+02  0.53550125358E+02  0.62499544752E+02  0.00000000000E+00 0. -1.
</event>
<event>
 4    1  0.1976955E-002  0.9118800E+02  0.7818608E-02  0.1130116E+00
         25   -1    0    0    0    0  0.00000000000E+00  0.00000000000E+00  0.99999998245E-14  0.12500000000E+03  0.12500000000E+03 0.  0.
        -11    1    1    0    0    0  0.79122343128E+01  0.34236846527E+02 -0.13202590703E+02  0.37537627968E+02  0.51100000000E-03 0. -1.
         11    1    1    0    0    0  0.52629130765E+01  0.22766751609E+02 -0.87804775131E+01  0.24962372053E+02  0.51100000000E-03 0.  1.
         22    1    1    0    0    0 -0.13175147389E+02 -0.57003598136E+02  0.21983068217E+02  0.62499999979E+02  0.00000000000E+00 0.  1.
</event>
<event>
 4    1  0.1976955E-002  0.9118800E+02  0.7818608E-02  0.1130116E+00
         25   -1    0    0    0    0  0.00000000000E+00  0.00000000000E+00  0.99999998245E-14  0.12500000000E+03  0.12500000000E+03 0.  0.
        -11    1    1    0    0    0 -0.50440237157E+01  0.60214842539E+01 -0.35588004201E+00  0.78630209672E+01  0.51100000000E-03 0. -1.
         11    1    1    0    0    0 -0.35140872759E+02  0.41763891049E+02 -0.24691801556E+01  0.54636987332E+02  0.51100000000E-03 0.  1.
         22    1    1    0    0    0  0.40184896475E+02 -0.47785375303E+02  0.28250601976E+01  0.62499991701E+02  0.00000000000E+00 0.  1.
</event>
<event>
 4    1  0.1976955E-002  0.9118800E+02  0.7818608E-02  0.1130116E+00
         25   -1    0    0    0    0  0.00000000000E+00  0.00000000000E+00  0.99999998245E-14  0.12500000000E+03  0.12500000000E+03 0.  0.
        -11    1    1    0    0    0  0.15356068384E+02  0.22533614342E+02  0.50346309520E+02  0.57256645851E+02  0.51100000000E-03 0.  1.
         11    1    1    0    0    0  0.14277913438E+01  0.20743353523E+01  0.45990904659E+01  0.52433852281E+01  0.51100000000E-03 0. -1.
         22    1    1    0    0    0 -0.16783859727E+02 -0.24607949695E+02 -0.54945399986E+02  0.62499968921E+02  0.00000000000E+00 0.  1.
</event>
<event>
 4    1  0.1976955E-002  0.9118800E+02  0.7818608E-02  0.1130116E+00
         25   -1    0    0    0    0  0.00000000000E+00  0.00000000000E+00  0.99999998245E-14  0.12500000000E+03  0.12500000000E+03 0.  0.
        -11    1    1    0    0    0  0.13486923828E+01 -0.16418687096E+01  0.10470796983E+01  0.23687718672E+01  0.51100000000E-03 0.  1.
         11    1    1    0    0    0  0.14258549435E+02  0.59560717212E+02  0.87037897498E+01  0.61859043179E+02  0.51100000000E-03 0. -1.
         22    1    1    0    0    0 -0.15607241817E+02 -0.57918848503E+02 -0.97508694481E+01  0.60772184953E+02  0.00000000000E+00 0. -1.
</event>
<event>
 4    1  0.1976955E-002  0.9118800E+02  0.7818608E-02  0.1130116E+00
         25   -1    0    0    0    0  0.00000000000E+00  0.00000000000E+00  0.99999998245E-14  0.12500000000E+03  0.12500000000E+03 0.  0.
        -11    1    1    0    0    0 -0.47853437885E+01 -0.28726817609E+01  0.60674650940E+01  0.82441463234E+01  0.51100000000E-03 0. -1.
         11    1    1    0    0    0 -0.31492323469E+02 -0.18909115227E+02  0.39929645425E+02  0.54255853695E+02  0.51100000000E-03 0.  1.
         22    1    1    0    0    0  0.36277667258E+02  0.21781796987E+02 -0.45997110519E+02  0.62499999982E+02  0.00000000000E+00 0.  1.
</event>
<event>
 4    1  0.1976955E-002  0.9118800E+02  0.7818608E-02  0.1130116E+00
         25   -1    0    0    0    0  0.00000000000E+00  0.00000000000E+00  0.99999998245E-14  0.12500000000E+03  0.12500000000E+03 0.  0.
        -11    1    1    0    0    0  0.35547667386E+02  0.11064276717E+02  0.30480038124E+02  0.48115357217E+02  0.51100000000E-03 0. -1.
         11    1    1    0    0    0  0.10555291996E+02  0.32892196889E+01  0.92027207402E+01  0.14384826192E+02  0.51100000000E-03 0.  1.
         22    1    1    0    0    0 -0.46102959381E+02 -0.14353496406E+02 -0.39682758865E+02  0.62499816591E+02  0.00000000000E+00 0. -1.
</event>
<event>
 4    1  0.1976955E-002  0.9118800E+02  0.7818608E-02  0.1130116E+00
         25   -1    0    0    0    0  0.00000000000E+00  0.00000000000E+00  0.99999998245E-14  0.12500000000E+03  0.12500000000E+03 0.  0.
        -11    1    1    0    0    0 -0.78624039449E+01 -0.97696242781E+01  0.10990623270E+02  0.16675033866E+02  0.51100000000E-03 0. -1.
         11    1    1    0    0    0 -0.21598726151E+02 -0.26827621304E+02  0.30227494544E+02  0.45824967679E+02  0.51100000000E-03 0.  1.
         22    1    1    0    0    0  0.29461130096E+02  0.36597245582E+02 -0.41218117813E+02  0.62499998454E+02  0.00000000000E+00 0.  1.
</event>
<event>
 4    1  0.1976955E-002  0.9118800E+02  0.7818608E-02  0.1130116E+00
         25   -1    0    0    0    0  0.00000000000E+00  0.00000000000E+00  0.99999998245E-14  0.12500000000E+03  0.12500000000E+03 0.  0.
        -11    1    1    0    0    0 -0.44697804380E+02  0.26542708474E+02 -0.16361340104E+02  0.54498647137E+02  0.51100000000E-03 0.  1.
         11    1    1    0    0    0 -0.65548916142E+01  0.38969586516E+01 -0.24225944763E+01  0.80013658248E+01  0.51100000000E-03 0. -1.
         22    1    1    0    0    0  0.51252695994E+02 -0.30439667126E+02  0.18783934581E+02  0.62499987038E+02  0.00000000000E+00 0.  1.
</event>
<event>
 4    1  0.1976955E-002  0.9118800E+02  0.7818608E-02  0.1130116E+00
         25   -1    0    0    0    0  0.00000000000E+00  0.00000000000E+00  0.99999998245E-14  0.12500000000E+03  0.12500000000E+03 0.  0.
        -11    1    1    0    0    0 -0.15747706973E+02  0.20885745786E+02  0.45172985480E+02  0.52199648173E+02  0.51100000000E-03 0. -1.
         11    1    1    0    0    0 -0.30436106137E+01  0.41074653428E+01  0.89422888716E+01  0.10300454729E+02  0.51100000000E-03 0.  1.
         22    1    1    0    0    0  0.18791317586E+02 -0.24993211129E+02 -0.54115274351E+02  0.62499897098E+02  0.00000000000E+00 0. -1.
</event>
<event>
 4    1  0.1976955E-002  0.9118800E+02  0.7818608E-02  0.1130116E+00
         25   -1    0    0    0    0  0.00000000000E+00  0.00000000000E+00  0.99999998245E-14  0.12500000000E+03  0.12500000000E+03 0.  0.
        -11    1    1    0    0    0 -0.24337722858E+02 -0.15643396592E+02 -0.42975648396E+02  0.51806823548E+02  0.51100000000E-03 0. -1.
         11    1    1    0    0    0 -0.50248834388E+01 -0.32295902289E+01 -0.88692906988E+01  0.10693176534E+02  0.51100000000E-03 0.  1.
         22    1    1    0    0    0  0.29362606296E+02  0.18872986821E+02  0.51844939095E+02  0.62499999918E+02  0.00000000000E+00 0. -1.
</event>
<event>
 4    1  0.1976955E-002  0.9118800E+02  0.7818608E-02  0.1130116E+00
         25   -1    0    0    0    0  0.00000000000E+00  0.00000000000E+00  0.99999998245E-14  0.12500000000E+03  0.12500000000E+03 0.  0.
        -11    1    1    0    0    0 -0.35391968748E+02  0.45560334865E+02  0.91948640532E+01  0.58419868967E+02  0.51100000000E-03 0.  1.
         11    1    1    0    0    0 -0.25141959063E+01  0.30935714038E+01  0.88819588489E+00  0.40841470685E+01  0.51100000000E-03 0. -1.
         22    1    1    0    0    0  0.37906164654E+02 -0.48653906269E+02 -0.10083059938E+02  0.62495983965E+02  0.00000000000E+00 0.  1.
</event>
<event>
 4    1  0.1976955E-002  0.9118800E+02  0.7818608E-02  0.1130116E+00
         25   -1    0    0    0    0  0.00000000000E+00  0.00000000000E+00  0.99999998245E-14  0.12500000000E+03  0.12500000000E+03 0.  0.
        -11    1    1    0    0    0 -0.35936137487E+01 -0.96519154695E+01 -0.77935207052E+01  0.12915591247E+02  0.51100000000E-03 0.  1.
         11    1    1    0    0    0 -0.13976231697E+02 -0.37148279932E+02 -0.29720232468E+02  0.49584493267E+02  0.51100000000E-03 0. -1.
         22    1    1    0    0    0  0.17569845446E+02  0.46800195402E+02  0.37513753173E+02  0.62499915486E+02  0.00000000000E+00 0. -1.
</event>
<event>
 4    1  0.1976955E-002  0.9118800E+02  0.7818608E-02  0.1130116E+00
         25   -1    0    0    0    0  0.00000000000E+00  0.00000000000E+00  0.99999998245E-14  0.12500000000E+03  0.12500000000E+03 0.  0.
        -11    1    1    0    0    0  0.23262591112E+01  0.91951583346E+01 -0.10953477410E+01  0.95478900908E+01  0.51100000000E-03 0.  1.
         11    1    1    0    0    0  0.11680605231E+02  0.51515657352E+02 -0.37641381789E+01  0.52957230172E+02  0.51100000000E-03 0. -1.
         22    1    1    0    0    0 -0.14006864342E+02 -0.60710815686E+02  0.48594859198E+01  0.62494879738E+02  0.00000000000E+00 0. -1.
</event>
<event>
 4    1  0.1976955E-002  0.9118800E+02  0.7818608E-02  0.1130116E+00
         25   -1    0    0    0    0  0.00000000000E+00  0.00000000000E+00  0.99999998245E-14  0.12500000000E+03  0.12500000000E+03 0.  0.
        -11    1    1    0    0    0 -0.23758204375E+02 -0.38521441661E+02 -0.28606517112E+02  0.53541447163E+02  0.51100000000E-03 0.  1.
         11    1    1    0    0    0 -0.46975539351E+00 -0.88024875216E+01 -0.33477821702E+01  0.94293214187E+01  0.51100000000E-03 0. -1.
         22    1    1    0    0    0  0.24227959769E+02  0.47323929182E+02  0.31954299282E+02  0.62029231419E+02  0.00000000000E+00 0.  1.
</event>
<event>
 4    1  0.1976955E-002  0.9118800E+02  0.7818608E-02  0.1130116E+00
         25   -1    0    0    0    0  0.00000000000E+00  0.00000000000E+00  0.99999998245E-14  0.12500000000E+03  0.12500000000E+03 0.  0.
        -11    1    1    0    0    0  0.15838425268E+01  0.18849534641E+01 -0.14231582864E+01  0.28437627329E+01  0.51100000000E-03 0. -1.
         11    1    1    0    0    0 -0.18839699745E+02  0.19942666313E+02 -0.53759751601E+02  0.60355241020E+02  0.51100000000E-03 0.  1.
         22    1    1    0    0    0  0.17255857219E+02 -0.21827619777E+02  0.55182909887E+02  0.61800996247E+02  0.00000000000E+00 0.  1.
</event>
<event>
 4    1  0.1976955E-002  0.9118800E+02  0.7818608E-02  0.1130116E+00
         25   -1    0    0    0    0  0.00000000000E+00  0.00000000000E+00  0.99999998245E-14  0.12500000000E+03  0.12500000000E+03 0.  0.
        -11    1    1    0    0    0  0.19833083837E+02 -0.95981175537E+01  0.40630375587E+02  0.46220152484E+02  0.51100000000E-03 0. -1.
         11    1    1    0    0    0  0.69507930377E+01 -0.34081865446E+01  0.14321485477E+02  0.16279871188E+02  0.51100000000E-03 0.  1.
         22    1    1    0    0    0 -0.26783876874E+02  0.13006304098E+02 -0.54951861063E+02  0.62499976328E+02  0.00000000000E+00 0. -1.
</event>
<event>
 4    1  0.1976955E-002  0.9118800E+02  0.7818608E-02  0.1130116E+00
         25   -1    0    0    0    0  0.00000000000E+00  0.00000000000E+00  0.99999998245E-14  0.12500000000E+03  0.12500000000E+03 0.  0.
        -11    1    1    0    0    0  0.36479453583E+02 -0.87138510149E+01 -0.22768181027E+02  0.43875640174E+02  0.51100000000E-03 0.  1.
         11    1    1    0    0    0  0.15033655857E+02 -0.39795449634E+01 -0.10258762578E+02  0.18630346117E+02  0.51100000000E-03 0. -1.
         22    1    1    0    0    0 -0.51513109439E+02  0.12693395978E+02  0.33026943605E+02  0.62494013709E+02  0.00000000000E+00 0. -1.
</event>
<event>
 4    1  0.1976955E-002  0.9118800E+02  0.7818608E-02  0.1130116E+00
         25   -1    0    0    0    0  0.00000000000E+00  0.00000000000E+00  0.99999998245E-14  0.12500000000E+03  0.12500000000E+03 0.  0.
        -11    1    1    0    0    0  0.10506577108E+02  0.10611412219E+02 -0.25125886174E+02  0.29228417475E+02  0.51100000000E-03 0. -1.
         11    1    1    0    0    0  0.10198208747E+02  0.10899497021E+02 -0.29758362612E+02  0.33292080779E+02  0.51100000000E-03 0.  1.
         22    1    1    0    0    0 -0.20704785855E+02 -0.21510909240E+02  0.54884248786E+02  0.62479501746E+02  0.00000000000E+00 0.  1.
</event>
<event>
 4    1  0.1976955E-002  0.9118800E+02  0.7818608E-02  0.1130116E+00
         25   -1    0    0    0    0  0.00000000000E+00  0.00000000000E+00  0.99999998245E-14  0.12500000000E+03  0.12500000000E+03 0.  0.
        -11    1    1    0    0    0  0.32755994940E+01 -0.31626984640E+02 -0.21366095609E+02  0.38308037685E+02  0.51100000000E-03 0. -1.
         11    1    1    0    0    0 -0.24090077488E+01 -0.10012910424E+02 -0.23388804073E+02  0.25555779184E+02  0.51100000000E-03 0.  1.
         22    1    1    0    0    0 -0.86659174527E+00  0.41639895064E+02  0.44754899682E+02  0.61136183130E+02  0.00000000000E+00 0. -1.
</event>
<event>
 4    1  0.1976955E-002  0.9118800E+02  0.7818608E-02  0.1130116E+00
         25   -1    0    0    0    0  0.00000000000E+00  0.00000000000E+00  0.99999998245E-14  0.12500000000E+03  0.12500000000E+03 0.  0.
        -11    1    1    0    0    0 -0.10754609386E+01  0.12099535831E+02  0.12039822477E+01  0.12206758664E+02  0.51100000000E-03 0. -1.
         11    1    1    0    0    0 -0.58503341022E+01  0.49739013590E+02  0.46284951494E+01  0.50295316379E+02  0.51100000000E-03 0.  1.
         22    1    1    0    0    0  0.69257950409E+01 -0.61838549421E+02 -0.58324773971E+01  0.62497924958E+02  0.00000000000E+00 0.  1.
</event>
<event>
 4    1  0.1976955E-002  0.9118800E+02  0.7818608E-02  0.1130116E+00
         25   -1    0    0    0    0  0.00000000000E+00  0.00000000000E+00  0.99999998245E-14  0.12500000000E+03  0.12500000000E+03 0.  0.
        -11    1    1    0    0    0 -0.39143793350E+02 -0.10283644633E+02  0.17082896392E+02  0.43929662578E+02  0.51100000000E-03 0. -1.
         11    1    1    0    0    0  0.26887272349E+01 -0.24304189934E+02  0.68731164794E+01  0.25400051828E+02  0.51100000000E-03 0.  1.
         22    1    1    0    0    0  0.36455066115E+02  0.34587834566E+02 -0.23956012871E+02  0.55670285594E+02  0.00000000000E+00 0.  1.
</event>
<event>
 4    1  0.1976955E-002  0.9118800E+02  0.7818608E-02  0.1130116E+00
         25   -1    0    0    0    0  0.00000000000E+00  0.00000000000E+00  0.99999998245E-14  0.12500000000E+03  0.12500000000E+03 0.  0.
        -11    1    1    0    0    0 -0.22269854333E+01  0.23366700947E+01 -0.42004373115E+01  0.52974678027E+01  0.51100000000E-03 0. -1.
         11    1    1    0    0    0 -0.33433985608E+02  0.36862356560E+02 -0.28581318393E+02  0.57389515472E+02  0.51100000000E-03 0.  1.
         22    1    1    0    0    0  0.35660971041E+02 -0.39199026655E+02  0.32781755704E+02  0.62313016725E+02  0.00000000000E+00 0.  1.
</event>
<event>
 4    1  0.1976955E-002  0.9118800E+02  0.7818608E-02  0.1130116E+00
         25   -1    0    0    0    0  0.00000000000E+00  0.00000000000E+00  0.99999998245E-14  0.12500000000E+03  0.12500000000E+03 0.  0.
        -11    1    1    0    0    0  0.35788111219E+02  0.25847696542E+02 -0.37046558223E+01  0.44301431085E+02  0.51100000000E-03 0.  1.
         11    1    1    0    0    0  0.14701632454E+02  0.10617642200E+02 -0.15217055714E+01  0.18198568922E+02  0.51100000000E-03 0. -1.
         22    1    1    0    0    0 -0.50489743673E+02 -0.36465338742E+02  0.52263613937E+01  0.62499999993E+02  0.00000000000E+00 0.  1.
</event>
<event>
 4    1  0.1976955E-002  0.9118800E+02  0.7818608E-02  0.1130116E+00
         25   -1    0    0    0    0  0.00000000000E+00  0.00000000000E+00  0.99999998245E-14  0.12500000000E+03  0.12500000000E+03 0.  0.
        -11    1    1    0    0    0 -0.48859802720E+01 -0.10498707439E+02 -0.92171582415E+01  0.14800394164E+02  0.51100000000E-03 0.  1.
         11    1    1    0    0    0 -0.15744744101E+02 -0.33835976212E+02 -0.29706601030E+02  0.47699605848E+02  0.51100000000E-03 0. -1.
         22    1    1    0    0    0  0.20630724373E+02  0.44334683651E+02  0.38923759272E+02  0.62499999988E+02  0.00000000000E+00 0. -1.
</event>
<event>
 4    1  0.1976955E-002  0.9118800E+02  0.7818608E-02  0.1130116E+00
         25   -1    0    0    0    0  0.00000000000E+00  0.00000000000E+00  0.99999998245E-14  0.12500000000E+03  0.12500000000E+03 0.  0.
        -11    1    1    0    0    0 -0.40989574316E+01  0.31486887430E+01  0.21369876789E+02  0.21986071205E+02  0.51100000000E-03 0. -1.
         11    1    1    0    0    0 -0.75581095813E+01  0.58085683024E+01  0.39376566033E+02  0.40513928950E+02  0.51100000000E-03 0.  1.
         22    1    1    0    0    0  0.11657067013E+02 -0.89572570454E+01 -0.60746442821E+02  0.62499999845E+02  0.00000000000E+00 0.  1.
</event>
<event>
 4    1  0.1976955E-002  0.9118800E+02  0.7818608E-02  0.1130116E+00
         25   -1    0    0    0    0  0.00000000000E+00  0.00000000000E+00  0.99999998245E-14  0.12500000000E+03  0.12500000000E+03 0.  0.
        -11    1    1    0    0    0 -0.30637068779E+01  0.14957021360E+02 -0.12718725604E+02  0.19871204519E+02  0.51100000000E-03 0. -1.
         11    1    1    0    0    0 -0.65731424885E+01  0.32086500083E+02 -0.27284877032E+02  0.42628795487E+02  0.51100000000E-03 0. -1.
         22    1    1    0    0    0  0.96368493664E+01 -0.47043521442E+02  0.40003602636E+02  0.62499999994E+02  0.00000000000E+00 0. -1.
</event>
<event>
 4    1  0.1976955E-002  0.9118800E+02  0.7818608E-02  0.1130116E+00
         25   -1    0    0    0    0  0.00000000000E+00  0.00000000000E+00  0.99999998245E-14  0.12500000000E+03  0.12500000000E+03 0.  0.
        -11    1    1    0    0    0 -0.60499547239E+01 -0.57838705560E+01 -0.94838062449E+01  0.12649019406E+02  0.51100000000E-03 0.  1.
         11    1    1    0    0    0 -0.24875010565E+02 -0.29995597965E+02 -0.31237701547E+02  0.49942927888E+02  0.51100000000E-03 0. -1.
         22    1    1    0    0    0  0.30924965288E+02  0.35779468521E+02  0.40721507791E+02  0.62408052706E+02  0.00000000000E+00 0. -1.
</event>
<event>
 4    1  0.1976955E-002  0.9118800E+02  0.7818608E-02  0.1130116E+00
         25   -1    0    0    0    0  0.00000000000E+00  0.00000000000E+00  0.99999998245E-14  0.12500000000E+03  0.12500000000E+03 0.  0.
        -11    1    1    0    0    0 -0.15558927693E+02  0.28995296627E+01  0.38604890093E+01  0.16290821921E+02  0.51100000000E-03 0. -1.
         11    1    1    0    0    0 -0.44132947380E+02  0.82225970231E+01  0.10952624979E+02  0.46209178097E+02  0.51100000000E-03 0.  1.
         22    1    1    0    0    0  0.59691875072E+02 -0.11122126686E+02 -0.14813113989E+02  0.62499999982E+02  0.00000000000E+00 0.  1.
</event>
<event>
 4    1  0.1976955E-002  0.9118800E+02  0.7818608E-02  0.1130116E+00
         25   -1    0    0    0    0  0.00000000000E+00  0.00000000000E+00  0.99999998245E-14  0.12500000000E+03  0.12500000000E+03 0.  0.
        -11    1    1    0    0    0  0.13626245601E+02 -0.26519021206E+02  0.42678006161E+02  0.52060976413E+02  0.51100000000E-03 0. -1.
         11    1    1    0    0    0  0.28183131681E+01 -0.54784008158E+01  0.84284202934E+01  0.10440020762E+02  0.51100000000E-03 0.  1.
         22    1    1    0    0    0 -0.16444558769E+02  0.31997422022E+02 -0.51106426455E+02  0.62499002825E+02  0.00000000000E+00 0. -1.
</event>
<event>
 4    1  0.1976955E-002  0.9118800E+02  0.7818608E-02  0.1130116E+00
         25   -1    0    0    0    0  0.00000000000E+00  0.00000000000E+00  0.99999998245E-14  0.12500000000E+03  0.12500000000E+03 0.  0.
        -11    1    1    0    0    0 -0.19457438128E+02  0.48411651565E+02  0.95579953165E+01  0.53043710093E+02  0.51100000000E-03 0. -1.
         11    1    1    0    0    0 -0.34704048858E+01  0.86299593302E+01  0.17033825190E+01  0.94562899903E+01  0.51100000000E-03 0.  1.
         22    1    1    0    0    0  0.22927843013E+02 -0.57041610895E+02 -0.11261377835E+02  0.62499999916E+02  0.00000000000E+00 0. -1.
</event>
<event>
 4    1  0.1976955E-002  0.9118800E+02  0.7818608E-02  0.1130116E+00
         25   -1    0    0    0    0  0.00000000000E+00  0.00000000000E+00  0.99999998245E-14  0.12500000000E+03  0.12500000000E+03 0.  0.
        -11    1    1    0    0    0  0.14419533362E+02  0.40792887476E+02 -0.69621422324E+01  0.43822985244E+02  0.51100000000E-03 0. -1.
         11    1    1    0    0    0  0.61463864043E+01  0.17385532741E+02 -0.29658163371E+01  0.18677014787E+02  0.51100000000E-03 0.  1.
         22    1    1    0    0    0 -0.20565919766E+02 -0.58178420217E+02  0.99279585695E+01  0.62499999969E+02  0.00000000000E+00 0. -1.
</event>
<event>
 4    1  0.1976955E-002  0.9118800E+02  0.7818608E-02  0.1130116E+00
         25   -1    0    0    0    0  0.00000000000E+00  0.00000000000E+00  0.99999998245E-14  0.12500000000E+03  0.12500000000E+03 0.  0.
        -11    1    1    0    0    0  0.69567836300E+01 -0.98116057025E+01 -0.38676057659E-01  0.12027715537E+02  0.51100000000E-03 0.  1.
         11    1    1    0    0    0  0.17623863672E+02 -0.41329021542E+02 -0.24473343914E+02  0.51162810272E+02  0.51100000000E-03 0. -1.
         22    1    1    0    0    0 -0.24580647302E+02  0.51140627244E+02  0.24512019971E+02  0.61809474191E+02  0.00000000000E+00 0. -1.
</event>
<event>
 4    1  0.1976955E-002  0.9118800E+02  0.7818608E-02  0.1130116E+00
         25   -1    0    0    0    0  0.00000000000E+00  0.00000000000E+00  0.99999998245E-14  0.12500000000E+03  0.12500000000E+03 0.  0.
        -11    1    1    0    0    0  0.17223139614E+02 -0.57201453840E+01  0.12909119462E+01  0.18194039005E+02  0.51100000000E-03 0.  1.
         11    1    1    0    0    0  0.42680216668E+02 -0.11986973730E+02 -0.31251230616E+00  0.44332675288E+02  0.51100000000E-03 0. -1.
         22    1    1    0    0    0 -0.59903356282E+02  0.17707119114E+02 -0.97839964002E+00  0.62473285707E+02  0.00000000000E+00 0. -1.
</event>
<event>
 4    1  0.1976955E-002  0.9118800E+02  0.7818608E-02  0.1130116E+00
         25   -1    0    0    0    0  0.00000000000E+00  0.00000000000E+00  0.99999998245E-14  0.12500000000E+03  0.12500000000E+03 0.  0.
        -11    1    1    0    0    0  0.47972634036E+01  0.12509576659E+02  0.61091651665E+01  0.14724983655E+02  0.51100000000E-03 0.  1.
         11    1    1    0    0    0  0.15579383314E+02  0.40587036466E+02  0.19809783295E+02  0.47775016776E+02  0.51100000000E-03 0. -1.
         22    1    1    0    0    0 -0.20376646717E+02 -0.53096613125E+02 -0.25918948461E+02  0.62499999569E+02  0.00000000000E+00 0. -1.
</event>
<event>
 4    1  0.1976955E-002  0.9118800E+02  0.7818608E-02  0.1130116E+00
         25   -1    0    0    0    0  0.00000000000E+00  0.00000000000E+00  0.99999998245E-14  0.12500000000E+03  0.12500000000E+03 0.  0.
        -11    1    1    0    0    0 -0.23979468834E+02  0.66831599096E+01  0.15823725459E+02  0.29496946276E+02  0.51100000000E-03 0. -1.
         11    1    1    0    0    0 -0.29491454082E+02  0.14501929279E+02  0.70412135322E+01  0.33609976272E+02  0.51100000000E-03 0.  1.
         22    1    1    0    0    0  0.53470922916E+02 -0.21185089189E+02 -0.22864938992E+02  0.61893077452E+02  0.00000000000E+00 0. -1.
</event>
<event>
 4    1  0.1976955E-002  0.9118800E+02  0.7818608E-02  0.1130116E+00
         25   -1    0    0    0    0  0.00000000000E+00  0.00000000000E+00  0.99999998245E-14  0.12500000000E+03  0.12500000000E+03 0.  0.
        -11    1    1    0    0    0 -0.19485886438E+02 -0.31008966146E+01 -0.40668670406E+02  0.45202390235E+02  0.51100000000E-03 0. -1.
         11    1    1    0    0    0 -0.74558600711E+01 -0.11954339432E+01 -0.15562404061E+02  0.17297610590E+02  0.51100000000E-03 0.  1.
         22    1    1    0    0    0  0.26941746509E+02  0.42963305578E+01  0.56231074467E+02  0.62499999175E+02  0.00000000000E+00 0. -1.
</event>
<event>
 4    1  0.1976955E-002  0.9118800E+02  0.7818608E-02  0.1130116E+00
         25   -1    0    0    0    0  0.00000000000E+00  0.00000000000E+00  0.99999998245E-14  0.12500000000E+03  0.12500000000E+03 0.  0.
        -11    1    1    0    0    0  0.38089746519E+00 -0.44806581403E+01  0.11957310826E+01  0.46530799835E+01  0.51100000000E-03 0.  1.
         11    1    1    0    0    0  0.47718454104E+01 -0.55688136198E+02  0.14910642843E+02  0.57846921198E+02  0.51100000000E-03 0. -1.
         22    1    1    0    0    0 -0.51527428756E+01  0.60168794339E+02 -0.16106373925E+02  0.62499998819E+02  0.00000000000E+00 0. -1.
</event>
<event>
 4    1  0.1976955E-002  0.9118800E+02  0.7818608E-02  0.1130116E+00
         25   -1    0    0    0    0  0.00000000000E+00  0.00000000000E+00  0.99999998245E-14  0.12500000000E+03  0.12500000000E+03 0.  0.
        -11    1    1    0    0    0  0.17695106983E+02 -0.61500730640E+01 -0.82137634282E+01  0.20454977872E+02  0.51100000000E-03 0.  1.
         11    1    1    0    0    0 -0.43641235915E+01 -0.48113576173E+02  0.51323363905E+01  0.48582946225E+02  0.51100000000E-03 0. -1.
         22    1    1    0    0    0 -0.13330983392E+02  0.54263649237E+02  0.30814270377E+01  0.55962075902E+02  0.00000000000E+00 0. -1.
</event>
<event>
 4    1  0.1976955E-002  0.9118800E+02  0.7818608E-02  0.1130116E+00
         25   -1    0    0    0    0  0.00000000000E+00  0.00000000000E+00  0.99999998245E-14  0.12500000000E+03  0.12500000000E+03 0.  0.
        -11    1    1    0    0    0 -0.26119347372E+02  0.23311386565E+02 -0.33864341285E+02  0.48707644797E+02  0.51100000000E-03 0. -1.
         11    1    1    0    0    0 -0.73966739452E+01  0.66013935816E+01 -0.95885285454E+01  0.13792355223E+02  0.51100000000E-03 0.  1.
         22    1    1    0    0    0  0.33516021317E+02 -0.29912780147E+02  0.43452869830E+02  0.62499999980E+02  0.00000000000E+00 0. -1.
</event>
<event>
 4    1  0.1976955E-002  0.9118800E+02  0.7818608E-02  0.1130116E+00
         25   -1    0    0    0    0  0.00000000000E+00  0.00000000000E+00  0.99999998245E-14  0.12500000000E+03  0.12500000000E+03 0.  0.
        -11    1    1    0    0    0  0.20788104005E+02 -0.48083831833E+02  0.33699357834E+02  0.62288416825E+02  0.51100000000E-03 0. -1.
         11    1    1    0    0    0  0.73598687209E-01 -0.16410178906E+00  0.11149127999E+00  0.21160512888E+00  0.51100000000E-03 0.  1.
         22    1    1    0    0    0 -0.20861702692E+02  0.48247933622E+02 -0.33810849114E+02  0.62499978046E+02  0.00000000000E+00 0. -1.
</event>
<event>
 4    1  0.1976955E-002  0.9118800E+02  0.7818608E-02  0.1130116E+00
         25   -1    0    0    0    0  0.00000000000E+00  0.00000000000E+00  0.99999998245E-14  0.12500000000E+03  0.12500000000E+03 0.  0.
        -11    1    1    0    0    0  0.83173764751E+01 -0.54620932400E+01  0.10433910266E+02  0.14418033766E+02  0.51100000000E-03 0.  1.
         11    1    1    0    0    0  0.29954707104E+02 -0.18411309345E+02  0.32812194759E+02  0.48092628485E+02  0.51100000000E-03 0. -1.
         22    1    1    0    0    0 -0.38272083579E+02  0.23873402585E+02 -0.43246105025E+02  0.62489337748E+02  0.00000000000E+00 0. -1.
</event>
<event>
 4    1  0.1976955E-002  0.9118800E+02  0.7818608E-02  0.1130116E+00
         25   -1    0    0    0    0  0.00000000000E+00  0.00000000000E+00  0.99999998245E-14  0.12500000000E+03  0.12500000000E+03 0.  0.
        -11    1    1    0    0    0  0.12019970242E+02 -0.10400437610E+02  0.25081953624E+02  0.29694329172E+02  0.51100000000E-03 0.  1.
         11    1    1    0    0    0  0.13283311062E+02 -0.11485593985E+02  0.27710049172E+02  0.32805670964E+02  0.51100000000E-03 0. -1.
         22    1    1    0    0    0 -0.25303281304E+02  0.21886031596E+02 -0.52792002797E+02  0.62499999864E+02  0.00000000000E+00 0. -1.
</event>
<event>
 4    1  0.1976955E-002  0.9118800E+02  0.7818608E-02  0.1130116E+00
         25   -1    0    0    0    0  0.00000000000E+00  0.00000000000E+00  0.99999998245E-14  0.12500000000E+03  0.12500000000E+03 0.  0.
        -11    1    1    0    0    0  0.36345424844E+02 -0.19308235957E+02 -0.34978558933E+00  0.41157262216E+02  0.51100000000E-03 0. -1.
         11    1    1    0    0    0  0.19338198954E+02 -0.90312198449E+01 -0.67952985668E+00  0.21353937149E+02  0.51100000000E-03 0.  1.
         22    1    1    0    0    0 -0.55683623799E+02  0.28339455802E+02  0.10293154460E+01  0.62488800635E+02  0.00000000000E+00 0. -1.
</event>
<event>
 4    1  0.1976955E-002  0.9118800E+02  0.7818608E-02  0.1130116E+00
         25   -1    0    0    0    0  0.00000000000E+00  0.00000000000E+00  0.99999998245E-14  0.12500000000E+03  0.12500000000E+03 0.  0.
        -11    1    1    0    0    0 -0.73966741746E+01  0.20096596766E+02 -0.22053728622E+01  0.21527834544E+02  0.51100000000E-03 0. -1.
         11    1    1    0    0    0 -0.13792419924E+02  0.38340820180E+02 -0.42995669787E+01  0.40972376254E+02  0.51100000000E-03 0.  1.
         22    1    1    0    0    0  0.21189094099E+02 -0.58437416946E+02  0.65049398409E+01  0.62499789202E+02  0.00000000000E+00 0.  1.
</event>
<event>
 4    1  0.1976955E-002  0.9118800E+02  0.7818608E-02  0.1130116E+00
         25   -1    0    0    0    0  0.00000000000E+00  0.00000000000E+00  0.99999998245E-14  0.12500000000E+03  0.12500000000E+03 0.  0.
        -11    1    1    0    0    0 -0.13561833590E+02 -0.28438522795E+02 -0.37431484522E+02  0.48926362453E+02  0.51100000000E-03 0.  1.
         11    1    1    0    0    0 -0.37628376713E+01 -0.78885139224E+01 -0.10385376149E+02  0.13573637584E+02  0.51100000000E-03 0. -1.
         22    1    1    0    0    0  0.17324671261E+02  0.36327036718E+02  0.47816860671E+02  0.62499999963E+02  0.00000000000E+00 0.  1.
</event>
<event>
 4    1  0.1976955E-002  0.9118800E+02  0.7818608E-02  0.1130116E+00
         25   -1    0    0    0    0  0.00000000000E+00  0.00000000000E+00  0.99999998245E-14  0.12500000000E+03  0.12500000000E+03 0.  0.
        -11    1    1    0    0    0 -0.14308381492E+02 -0.71931998663E+01 -0.82437698401E+01  0.18011986194E+02  0.51100000000E-03 0.  1.
         11    1    1    0    0    0 -0.35347889486E+02 -0.17763061825E+02 -0.20351504609E+02  0.44488014079E+02  0.51100000000E-03 0. -1.
         22    1    1    0    0    0  0.49656270978E+02  0.24956261692E+02  0.28595274449E+02  0.62499999727E+02  0.00000000000E+00 0. -1.
</event>
<event>
 4    1  0.1976955E-002  0.9118800E+02  0.7818608E-02  0.1130116E+00
         25   -1    0    0    0    0  0.00000000000E+00  0.00000000000E+00  0.99999998245E-14  0.12500000000E+03  0.12500000000E+03 0.  0.
        -11    1    1    0    0    0 -0.28256682068E+02  0.50316797483E+02 -0.19025044341E+02  0.60763249608E+02  0.51100000000E-03 0.  1.
         11    1    1    0    0    0 -0.83256571438E+00  0.14070380741E+01 -0.58743479356E+00  0.17372396808E+01  0.51100000000E-03 0. -1.
         22    1    1    0    0    0  0.29089247783E+02 -0.51723835557E+02  0.19612479135E+02  0.62499510711E+02  0.00000000000E+00 0.  1.
</event>
<event>
 4    1  0.1976955E-002  0.9118800E+02  0.7818608E-02  0.1130116E+00
         25   -1    0    0    0    0  0.00000000000E+00  0.00000000000E+00  0.99999998245E-14  0.12500000000E+03  0.12500000000E+03 0.  0.
        -11    1    1    0    0    0 -0.68575883267E+01 -0.24828407576E+01 -0.97578312103E+00  0.73582041863E+01  0.51100000000E-03 0.  1.
         11    1    1    0    0    0 -0.51383290765E+02 -0.18626380214E+02 -0.73097923299E+01  0.55141796070E+02  0.51100000000E-03 0. -1.
         22    1    1    0    0    0  0.58240879091E+02  0.21109220972E+02  0.82855754510E+01  0.62499999743E+02  0.00000000000E+00 0. -1.
</event>
<event>
 4    1  0.1976955E-002  0.9118800E+02  0.7818608E-02  0.1130116E+00
         25   -1    0    0    0    0  0.00000000000E+00  0.00000000000E+00  0.99999998245E-14  0.12500000000E+03  0.12500000000E+03 0.  0.
        -11    1    1    0    0    0 -0.83573203771E+01  0.14173958154E+02 -0.86403701213E+01  0.18584990980E+02  0.51100000000E-03 0. -1.
         11    1    1    0    0    0 -0.20137982698E+02  0.33715194044E+02 -0.19656836611E+02  0.43916328198E+02  0.51100000000E-03 0.  1.
         22    1    1    0    0    0  0.28495303075E+02 -0.47889152198E+02  0.28297206732E+02  0.62498680822E+02  0.00000000000E+00 0.  1.
</event>
<event>
 4    1  0.1976955E-002  0.9118800E+02  0.7818608E-02  0.1130116E+00
         25   -1    0    0    0    0  0.00000000000E+00  0.00000000000E+00  0.99999998245E-14  0.12500000000E+03  0.12500000000E+03 0.  0.
        -11    1    1    0    0    0  0.61520458922E+01 -0.54051395745E+02 -0.68977299606E+01  0.54835934655E+02  0.51100000000E-03 0. -1.
         11    1    1    0    0    0  0.86302873459E+00 -0.75537566177E+01 -0.96635752561E+00  0.76640658116E+01  0.51100000000E-03 0.  1.
         22    1    1    0    0    0 -0.70150746267E+01  0.61605152363E+02  0.78640874862E+01  0.62499999533E+02  0.00000000000E+00 0. -1.
</event>
<event>
 4    1  0.1976955E-002  0.9118800E+02  0.7818608E-02  0.1130116E+00
         25   -1    0    0    0    0  0.00000000000E+00  0.00000000000E+00  0.99999998245E-14  0.12500000000E+03  0.12500000000E+03 0.  0.
        -11    1    1    0    0    0 -0.24245477920E+02 -0.10978121557E+02 -0.69361408729E+00  0.26624114131E+02  0.51100000000E-03 0.  1.
         11    1    1    0    0    0 -0.32808028005E+02 -0.14476726417E+02 -0.10801419367E+01  0.35876301596E+02  0.51100000000E-03 0. -1.
         22    1    1    0    0    0  0.57053505926E+02  0.25454847975E+02  0.17737560240E+01  0.62499584273E+02  0.00000000000E+00 0.  1.
</event>
<event>
 4    1  0.1976955E-002  0.9118800E+02  0.7818608E-02  0.1130116E+00
         25   -1    0    0    0    0  0.00000000000E+00  0.00000000000E+00  0.99999998245E-14  0.12500000000E+03  0.12500000000E+03 0.  0.
        -11    1    1    0    0    0  0.90112866345E+01  0.22344109102E+02  0.13335244552E+02  0.27537088551E+02  0.51100000000E-03 0.  1.
         11    1    1    0    0    0  0.11458147640E+02  0.28306246652E+02  0.17025725811E+02  0.34962953058E+02  0.51100000000E-03 0. -1.
         22    1    1    0    0    0 -0.20469434274E+02 -0.50650355753E+02 -0.30360970364E+02  0.62499958391E+02  0.00000000000E+00 0.  1.
</event>
<event>
 4    1  0.1976955E-002  0.9118800E+02  0.7818608E-02  0.1130116E+00
         25   -1    0    0    0    0  0.00000000000E+00  0.00000000000E+00  0.99999998245E-14  0.12500000000E+03  0.12500000000E+03 0.  0.
        -11    1    1    0    0    0 -0.36859950345E+02  0.30681057525E+02 -0.15902096872E+02  0.50525834140E+02  0.51100000000E-03 0.  1.
         11    1    1    0    0    0 -0.87353352598E+01  0.72712343242E+01 -0.37687819348E+01  0.11974165868E+02  0.51100000000E-03 0.  1.
         22    1    1    0    0    0  0.45595285605E+02 -0.37952291849E+02  0.19670878807E+02  0.62499999992E+02  0.00000000000E+00 0.  1.
</event>
<event>
 4    1  0.1976955E-002  0.9118800E+02  0.7818608E-02  0.1130116E+00
         25   -1    0    0    0    0  0.00000000000E+00  0.00000000000E+00  0.99999998245E-14  0.12500000000E+03  0.12500000000E+03 0.  0.
        -11    1    1    0    0    0 -0.17922314505E+02 -0.10315159613E+02  0.96902679467E+01  0.22836662807E+02  0.51100000000E-03 0.  1.
         11    1    1    0    0    0 -0.31161917977E+02 -0.17899453915E+02  0.16784676765E+02  0.39663345255E+02  0.51100000000E-03 0. -1.
         22    1    1    0    0    0  0.49084232481E+02  0.28214613528E+02 -0.26474944711E+02  0.62499991938E+02  0.00000000000E+00 0.  1.
</event>
<event>
 4    1  0.1976955E-002  0.9118800E+02  0.7818608E-02  0.1130116E+00
         25   -1    0    0    0    0  0.00000000000E+00  0.00000000000E+00  0.99999998245E-14  0.12500000000E+03  0.12500000000E+03 0.  0.
        -11    1    1    0    0    0 -0.17638719364E+02 -0.39024127268E+02  0.45475791488E+02  0.62466427316E+02  0.51100000000E-03 0. -1.
         11    1    1    0    0    0 -0.12495666934E-01 -0.19278597159E-01  0.24600528849E-01  0.33663825410E-01  0.51100000000E-03 0.  1.
         22    1    1    0    0    0  0.17651215031E+02  0.39043405866E+02 -0.45500392017E+02  0.62499908859E+02  0.00000000000E+00 0. -1.
</event>
<event>
 4    1  0.1976955E-002  0.9118800E+02  0.7818608E-02  0.1130116E+00
         25   -1    0    0    0    0  0.00000000000E+00  0.00000000000E+00  0.99999998245E-14  0.12500000000E+03  0.12500000000E+03 0.  0.
        -11    1    1    0    0    0 -0.35860677906E+02 -0.32271345400E+02 -0.20318861106E+02  0.52347722689E+02  0.51100000000E-03 0.  1.
         11    1    1    0    0    0 -0.69549086403E+01 -0.62593144639E+01 -0.39394115706E+01  0.10152277357E+02  0.51100000000E-03 0. -1.
         22    1    1    0    0    0  0.42815586547E+02  0.38530659864E+02  0.24258272677E+02  0.62499999953E+02  0.00000000000E+00 0.  1.
</event>
<event>
 4    1  0.1976955E-002  0.9118800E+02  0.7818608E-02  0.1130116E+00
         25   -1    0    0    0    0  0.00000000000E+00  0.00000000000E+00  0.99999998245E-14  0.12500000000E+03  0.12500000000E+03 0.  0.
        -11    1    1    0    0    0 -0.45133639029E+01 -0.10849529402E+02 -0.41325462966E+02  0.42963666412E+02  0.51100000000E-03 0.  1.
         11    1    1    0    0    0 -0.20142210929E+01 -0.49279986269E+01 -0.18796983598E+02  0.19536346888E+02  0.51100000000E-03 0. -1.
         22    1    1    0    0    0  0.65275849958E+01  0.15777528028E+02  0.60122446564E+02  0.62499986700E+02  0.00000000000E+00 0.  1.
</event>
<event>
 4    1  0.1976955E-002  0.9118800E+02  0.7818608E-02  0.1130116E+00
         25   -1    0    0    0    0  0.00000000000E+00  0.00000000000E+00  0.99999998245E-14  0.12500000000E+03  0.12500000000E+03 0.  0.
        -11    1    1    0    0    0  0.79302929227E+01  0.25642427675E+02  0.52199360723E+02  0.58695799706E+02  0.51100000000E-03 0. -1.
         11    1    1    0    0    0 -0.82614777751E+00  0.32192595972E+01  0.24266837915E+01  0.41152092280E+01  0.51100000000E-03 0.  1.
         22    1    1    0    0    0 -0.71041451452E+01 -0.28861687273E+02 -0.54626044515E+02  0.62188991066E+02  0.00000000000E+00 0. -1.
</event>
<event>
 4    1  0.1976955E-002  0.9118800E+02  0.7818608E-02  0.1130116E+00
         25   -1    0    0    0    0  0.00000000000E+00  0.00000000000E+00  0.99999998245E-14  0.12500000000E+03  0.12500000000E+03 0.  0.
        -11    1    1    0    0    0  0.40890371823E+02  0.84907428245E+01  0.21131162864E+02  0.46804286831E+02  0.51100000000E-03 0. -1.
         11    1    1    0    0    0  0.13522635411E+02  0.28657330149E+01  0.74391918862E+01  0.15697632636E+02  0.51100000000E-03 0.  1.
         22    1    1    0    0    0 -0.54413007234E+02 -0.11356475839E+02 -0.28570354750E+02  0.62498080533E+02  0.00000000000E+00 0. -1.
</event>
<event>
 4    1  0.1976955E-002  0.9118800E+02  0.7818608E-02  0.1130116E+00
         25   -1    0    0    0    0  0.00000000000E+00  0.00000000000E+00  0.99999998245E-14  0.12500000000E+03  0.12500000000E+03 0.  0.
        -11    1    1    0    0    0 -0.27816765930E+01 -0.14639649357E+01 -0.34648530737E+01  0.46782609038E+01  0.51100000000E-03 0. -1.
         11    1    1    0    0    0 -0.34387616256E+02 -0.18094994715E+02 -0.42818413461E+02  0.57821739139E+02  0.51100000000E-03 0.  1.
         22    1    1    0    0    0  0.37169292849E+02  0.19558959650E+02  0.46283266535E+02  0.62499999957E+02  0.00000000000E+00 0.  1.
</event>
<event>
 4    1  0.1976955E-002  0.9118800E+02  0.7818608E-02  0.1130116E+00
         25   -1    0    0    0    0  0.00000000000E+00  0.00000000000E+00  0.99999998245E-14  0.12500000000E+03  0.12500000000E+03 0.  0.
        -11    1    1    0    0    0  0.32487679541E+01 -0.13437170805E+02 -0.17291795187E+02  0.22138614083E+02  0.51100000000E-03 0.  1.
         11    1    1    0    0    0  0.59215336854E+01 -0.24490553591E+02 -0.31530774044E+02  0.40361386106E+02  0.51100000000E-03 0. -1.
         22    1    1    0    0    0 -0.91703016395E+01  0.37927724396E+02  0.48822569231E+02  0.62499999811E+02  0.00000000000E+00 0. -1.
</event>
<event>
 4    1  0.1976955E-002  0.9118800E+02  0.7818608E-02  0.1130116E+00
         25   -1    0    0    0    0  0.00000000000E+00  0.00000000000E+00  0.99999998245E-14  0.12500000000E+03  0.12500000000E+03 0.  0.
        -11    1    1    0    0    0 -0.11805474109E+02 -0.12458149291E+02  0.14314805830E+02  0.22349236428E+02  0.51100000000E-03 0. -1.
         11    1    1    0    0    0 -0.19898566685E+02 -0.34582383308E+02  0.96826492270E+01  0.41056642431E+02  0.51100000000E-03 0.  1.
         22    1    1    0    0    0  0.31704040794E+02  0.47040532599E+02 -0.23997455057E+02  0.61594121141E+02  0.00000000000E+00 0.  1.
</event>
<event>
 4    1  0.1976955E-002  0.9118800E+02  0.7818608E-02  0.1130116E+00
         25   -1    0    0    0    0  0.00000000000E+00  0.00000000000E+00  0.99999998245E-14  0.12500000000E+03  0.12500000000E+03 0.  0.
        -11    1    1    0    0    0 -0.18057903127E+02 -0.60670657318E+01  0.20480668744E+02  0.27970608581E+02  0.51100000000E-03 0.  1.
         11    1    1    0    0    0 -0.22292111566E+02 -0.74900569794E+01  0.25283189676E+02  0.34529391423E+02  0.51100000000E-03 0.  1.
         22    1    1    0    0    0  0.40350014693E+02  0.13557122711E+02 -0.45763858420E+02  0.62499999995E+02  0.00000000000E+00 0.  1.
</event>
<event>
 4    1  0.1976955E-002  0.9118800E+02  0.7818608E-02  0.1130116E+00
         25   -1    0    0    0    0  0.00000000000E+00  0.00000000000E+00  0.99999998245E-14  0.12500000000E+03  0.12500000000E+03 0.  0.
        -11    1    1    0    0    0  0.35460525507E+02  0.29850551265E+00  0.50779223017E+01  0.35823501642E+02  0.51100000000E-03 0.  1.
         11    1    1    0    0    0  0.26123764083E+02  0.79793748236E+00  0.54259544250E+01  0.26693233895E+02  0.51100000000E-03 0. -1.
         22    1    1    0    0    0 -0.61584289590E+02 -0.10964429950E+01 -0.10503876727E+02  0.62483264462E+02  0.00000000000E+00 0. -1.
</event>
<event>
 4    1  0.1976955E-002  0.9118800E+02  0.7818608E-02  0.1130116E+00
         25   -1    0    0    0    0  0.00000000000E+00  0.00000000000E+00  0.99999998245E-14  0.12500000000E+03  0.12500000000E+03 0.  0.
        -11    1    1    0    0    0  0.61508369880E+01 -0.36343226170E+01 -0.48979301881E+02  0.49497607109E+02  0.51100000000E-03 0.  1.
         11    1    1    0    0    0  0.16228868907E+01 -0.96290897350E+00 -0.12864731364E+02  0.13002394737E+02  0.51100000000E-03 0. -1.
         22    1    1    0    0    0 -0.77737238787E+01  0.45972315905E+01  0.61844033245E+02  0.62499998154E+02  0.00000000000E+00 0.  1.
</event>
<event>
 4    1  0.1976955E-002  0.9118800E+02  0.7818608E-02  0.1130116E+00
         25   -1    0    0    0    0  0.00000000000E+00  0.00000000000E+00  0.99999998245E-14  0.12500000000E+03  0.12500000000E+03 0.  0.
        -11    1    1    0    0    0 -0.18542035799E+02  0.12192998540E+01  0.33162442403E+02  0.38013699769E+02  0.51100000000E-03 0. -1.
         11    1    1    0    0    0 -0.11940749031E+02  0.78398314008E+00  0.21363117427E+02  0.24486300322E+02  0.51100000000E-03 0.  1.
         22    1    1    0    0    0  0.30482784830E+02 -0.20032829941E+01 -0.54525559831E+02  0.62499999909E+02  0.00000000000E+00 0. -1.
</event>
<event>
 4    1  0.1976955E-002  0.9118800E+02  0.7818608E-02  0.1130116E+00
         25   -1    0    0    0    0  0.00000000000E+00  0.00000000000E+00  0.99999998245E-14  0.12500000000E+03  0.12500000000E+03 0.  0.
        -11    1    1    0    0    0 -0.27624276279E+02 -0.17241357391E+02 -0.22867412977E+02  0.39790496618E+02  0.51100000000E-03 0. -1.
         11    1    1    0    0    0 -0.15766504399E+02 -0.98363997146E+01 -0.13053127186E+02  0.22709503515E+02  0.51100000000E-03 0.  1.
         22    1    1    0    0    0  0.43390780678E+02  0.27077757106E+02  0.35920540163E+02  0.62499999866E+02  0.00000000000E+00 0. -1.
</event>
<event>
 4    1  0.1976955E-002  0.9118800E+02  0.7818608E-02  0.1130116E+00
         25   -1    0    0    0    0  0.00000000000E+00  0.00000000000E+00  0.99999998245E-14  0.12500000000E+03  0.12500000000E+03 0.  0.
        -11    1    1    0    0    0  0.43277738750E+01 -0.34476749090E+01 -0.22522831355E+01  0.59740161177E+01  0.51100000000E-03 0. -1.
         11    1    1    0    0    0  0.34764960341E+02 -0.40558485489E+02  0.20777099481E+02  0.57317371501E+02  0.51100000000E-03 0.  1.
         22    1    1    0    0    0 -0.39092734216E+02  0.44006160398E+02 -0.18524816345E+02  0.61708612382E+02  0.00000000000E+00 0.  1.
</event>
<event>
 4    1  0.1976955E-002  0.9118800E+02  0.7818608E-02  0.1130116E+00
         25   -1    0    0    0    0  0.00000000000E+00  0.00000000000E+00  0.99999998245E-14  0.12500000000E+03  0.12500000000E+03 0.  0.
        -11    1    1    0    0    0  0.24064422179E+02  0.20892124266E+02  0.33467325307E+02  0.46212975825E+02  0.51100000000E-03 0. -1.
         11    1    1    0    0    0  0.12634424082E+01  0.55919862535E+01  0.16130936459E+02  0.17119395675E+02  0.51100000000E-03 0.  1.
         22    1    1    0    0    0 -0.25327864587E+02 -0.26484110519E+02 -0.49598261766E+02  0.61667628500E+02  0.00000000000E+00 0. -1.
</event>
<event>
 4    1  0.1976955E-002  0.9118800E+02  0.7818608E-02  0.1130116E+00
         25   -1    0    0    0    0  0.00000000000E+00  0.00000000000E+00  0.99999998245E-14  0.12500000000E+03  0.12500000000E+03 0.  0.
        -11    1    1    0    0    0  0.32285116464E+00 -0.67217453875E+00 -0.47706928725E+00  0.88523830182E+00  0.51100000000E-03 0.  1.
         11    1    1    0    0    0  0.24806528688E+02 -0.46186118987E+02 -0.32371337656E+02  0.61615135758E+02  0.51100000000E-03 0. -1.
         22    1    1    0    0    0 -0.25129379853E+02  0.46858293526E+02  0.32848406943E+02  0.62499625940E+02  0.00000000000E+00 0. -1.
</event>
<event>
 4    1  0.1976955E-002  0.9118800E+02  0.7818608E-02  0.1130116E+00
         25   -1    0    0    0    0  0.00000000000E+00  0.00000000000E+00  0.99999998245E-14  0.12500000000E+03  0.12500000000E+03 0.  0.
        -11    1    1    0    0    0 -0.55146934125E+02  0.17496076027E+02  0.17885086611E+02  0.60557190680E+02  0.51100000000E-03 0. -1.
         11    1    1    0    0    0 -0.17429341838E+01  0.65758700753E+00  0.55609859370E+00  0.19440900567E+01  0.51100000000E-03 0.  1.
         22    1    1    0    0    0  0.56889868309E+02 -0.18153663034E+02 -0.18441185205E+02  0.62498719263E+02  0.00000000000E+00 0. -1.
</event>
<event>
 4    1  0.1976955E-002  0.9118800E+02  0.7818608E-02  0.1130116E+00
         25   -1    0    0    0    0  0.00000000000E+00  0.00000000000E+00  0.99999998245E-14  0.12500000000E+03  0.12500000000E+03 0.  0.
        -11    1    1    0    0    0  0.27671266989E+02 -0.11161576749E+02  0.54772789368E+02  0.62372576247E+02  0.51100000000E-03 0.  1.
         11    1    1    0    0    0 -0.44359926399E+01 -0.16742386836E+00 -0.65406552643E+01  0.79048234010E+01  0.51100000000E-03 0. -1.
         22    1    1    0    0    0 -0.23235274349E+02  0.11329000617E+02 -0.48232134104E+02  0.54722600352E+02  0.00000000000E+00 0.  1.
</event>
<event>
 4    1  0.1976955E-002  0.9118800E+02  0.7818608E-02  0.1130116E+00
         25   -1    0    0    0    0  0.00000000000E+00  0.00000000000E+00  0.99999998245E-14  0.12500000000E+03  0.12500000000E+03 0.  0.
        -11    1    1    0    0    0  0.48482964629E+02 -0.28852552665E+02  0.27385073436E+01  0.56485104914E+02  0.51100000000E-03 0. -1.
         11    1    1    0    0    0  0.51621013520E+01 -0.30735862366E+01  0.29110308581E+00  0.60148951769E+01  0.51100000000E-03 0.  1.
         22    1    1    0    0    0 -0.53645065980E+02  0.31926138902E+02 -0.30296104294E+01  0.62499999909E+02  0.00000000000E+00 0. -1.
</event>
<event>
 4    1  0.1976955E-002  0.9118800E+02  0.7818608E-02  0.1130116E+00
         25   -1    0    0    0    0  0.00000000000E+00  0.00000000000E+00  0.99999998245E-14  0.12500000000E+03  0.12500000000E+03 0.  0.
        -11    1    1    0    0    0  0.20253192705E+02 -0.48335986878E+02 -0.32266690786E+02  0.61544283055E+02  0.51100000000E-03 0.  1.
         11    1    1    0    0    0  0.32435813537E+00 -0.70752818915E+00 -0.55685268086E+00  0.95702116368E+00  0.51100000000E-03 0. -1.
         22    1    1    0    0    0 -0.20577550840E+02  0.49043515067E+02  0.32823543467E+02  0.62498695782E+02  0.00000000000E+00 0.  1.
</event>
<event>
 4    1  0.1976955E-002  0.9118800E+02  0.7818608E-02  0.1130116E+00
         25   -1    0    0    0    0  0.00000000000E+00  0.00000000000E+00  0.99999998245E-14  0.12500000000E+03  0.12500000000E+03 0.  0.
        -11    1    1    0    0    0  0.30647062600E+02  0.34111807648E+02 -0.21767787389E+02  0.50761150844E+02  0.51100000000E-03 0. -1.
         11    1    1    0    0    0  0.92767253836E+01 -0.36357946488E+01  0.21847555130E+02  0.24012336454E+02  0.51100000000E-03 0.  1.
         22    1    1    0    0    0 -0.39923787983E+02 -0.30476012999E+02 -0.79767741382E-01  0.50226512701E+02  0.00000000000E+00 0. -1.
</event>
<event>
 4    1  0.1976955E-002  0.9118800E+02  0.7818608E-02  0.1130116E+00
         25   -1    0    0    0    0  0.00000000000E+00  0.00000000000E+00  0.99999998245E-14  0.12500000000E+03  0.12500000000E+03 0.  0.
        -11    1    1    0    0    0  0.17556331755E+02 -0.27212018980E+01  0.41333782211E+02  0.44990124212E+02  0.51100000000E-03 0.  1.
         11    1    1    0    0    0  0.67003175082E+01  0.12307670696E+01  0.16189066204E+02  0.17564023090E+02  0.51100000000E-03 0. -1.
         22    1    1    0    0    0 -0.24256649264E+02  0.14904348284E+01 -0.57522848415E+02  0.62445852698E+02  0.00000000000E+00 0. -1.
</event>
<event>
 4    1  0.1976955E-002  0.9118800E+02  0.7818608E-02  0.1130116E+00
         25   -1    0    0    0    0  0.00000000000E+00  0.00000000000E+00  0.99999998245E-14  0.12500000000E+03  0.12500000000E+03 0.  0.
        -11    1    1    0    0    0 -0.12894423065E+02  0.31627078926E+01  0.70528469092E+01  0.15033679429E+02  0.51100000000E-03 0. -1.
         11    1    1    0    0    0 -0.40710819664E+02  0.99869921665E+01  0.22269726969E+02  0.47466320584E+02  0.51100000000E-03 0. -1.
         22    1    1    0    0    0  0.53605242728E+02 -0.13149700059E+02 -0.29322573878E+02  0.62499999988E+02  0.00000000000E+00 0. -1.
</event>
<event>
 4    1  0.1976955E-002  0.9118800E+02  0.7818608E-02  0.1130116E+00
         25   -1    0    0    0    0  0.00000000000E+00  0.00000000000E+00  0.99999998245E-14  0.12500000000E+03  0.12500000000E+03 0.  0.
        -11    1    1    0    0    0 -0.86337495930E+01 -0.97050326582E+00 -0.52180434432E+00  0.87037801362E+01  0.51100000000E-03 0.  1.
         11    1    1    0    0    0 -0.53362201191E+02 -0.59448936825E+01 -0.33418773167E+01  0.53796230547E+02  0.51100000000E-03 0. -1.
         22    1    1    0    0    0  0.61995950784E+02  0.69153969484E+01  0.38636816611E+01  0.62499989316E+02  0.00000000000E+00 0. -1.
</event>
<event>
 4    1  0.1976955E-002  0.9118800E+02  0.7818608E-02  0.1130116E+00
         25   -1    0    0    0    0  0.00000000000E+00  0.00000000000E+00  0.99999998245E-14  0.12500000000E+03  0.12500000000E+03 0.  0.
        -11    1    1    0    0    0 -0.22015316896E+02  0.44326166795E+02  0.24149402380E+01  0.49551136994E+02  0.51100000000E-03 0. -1.
         11    1    1    0    0    0 -0.57578914269E+01  0.11581335233E+02  0.62644468062E+00  0.12948863759E+02  0.51100000000E-03 0.  1.
         22    1    1    0    0    0  0.27773208323E+02 -0.55907502028E+02 -0.30413849186E+01  0.62499999246E+02  0.00000000000E+00 0. -1.
</event>
<event>
 4    1  0.1976955E-002  0.9118800E+02  0.7818608E-02  0.1130116E+00
         25   -1    0    0    0    0  0.00000000000E+00  0.00000000000E+00  0.99999998245E-14  0.12500000000E+03  0.12500000000E+03 0.  0.
        -11    1    1    0    0    0  0.14204864586E+01 -0.19711123609E+01 -0.18913216082E+01  0.30789873993E+01  0.51100000000E-03 0.  1.
         11    1    1    0    0    0  0.28014417330E+02 -0.37877058402E+02 -0.36213107905E+02  0.59421110019E+02  0.51100000000E-03 0. -1.
         22    1    1    0    0    0 -0.29434903789E+02  0.39848170763E+02  0.38104429513E+02  0.62499902582E+02  0.00000000000E+00 0. -1.
</event>
<event>
 4    1  0.1976955E-002  0.9118800E+02  0.7818608E-02  0.1130116E+00
         25   -1    0    0    0    0  0.00000000000E+00  0.00000000000E+00  0.99999998245E-14  0.12500000000E+03  0.12500000000E+03 0.  0.
        -11    1    1    0    0    0 -0.25399632658E+01 -0.48025054545E+02 -0.87258441037E+01  0.48877373426E+02  0.51100000000E-03 0.  1.
         11    1    1    0    0    0 -0.70858745935E+00 -0.13384812934E+02 -0.24332369440E+01  0.13622626610E+02  0.51100000000E-03 0. -1.
         22    1    1    0    0    0  0.32485507251E+01  0.61409867479E+02  0.11159081048E+02  0.62499999964E+02  0.00000000000E+00 0.  1.
</event>
<event>
 4    1  0.1976955E-002  0.9118800E+02  0.7818608E-02  0.1130116E+00
         25   -1    0    0    0    0  0.00000000000E+00  0.00000000000E+00  0.99999998245E-14  0.12500000000E+03  0.12500000000E+03 0.  0.
        -11    1    1    0    0    0  0.91527235816E+01  0.36478878480E+01 -0.86910962709E+01  0.13138287155E+02  0.51100000000E-03 0.  1.
         11    1    1    0    0    0  0.34646783207E+02  0.13760385328E+02 -0.32355024784E+02  0.49361882257E+02  0.51100000000E-03 0. -1.
         22    1    1    0    0    0 -0.43799506788E+02 -0.17408273176E+02  0.41046121055E+02  0.62499830588E+02  0.00000000000E+00 0.  1.
</event>
<event>
 4    1  0.1976955E-002  0.9118800E+02  0.7818608E-02  0.1130116E+00
         25   -1    0    0    0    0  0.00000000000E+00  0.00000000000E+00  0.99999998245E-14  0.12500000000E+03  0.12500000000E+03 0.  0.
        -11    1    1    0    0    0  0.13582014512E+02 -0.26846212507E+02  0.24018879141E+02  0.38498010333E+02  0.51100000000E-03 0.  1.
         11    1    1    0    0    0  0.11361456897E+02 -0.54539325989E+01  0.21777015018E+02  0.25160812129E+02  0.51100000000E-03 0. -1.
         22    1    1    0    0    0 -0.24943471409E+02  0.32300145106E+02 -0.45795894160E+02  0.61341177537E+02  0.00000000000E+00 0. -1.
</event>
<event>
 4    1  0.1976955E-002  0.9118800E+02  0.7818608E-02  0.1130116E+00
         25   -1    0    0    0    0  0.00000000000E+00  0.00000000000E+00  0.99999998245E-14  0.12500000000E+03  0.12500000000E+03 0.  0.
        -11    1    1    0    0    0 -0.17726122273E+02 -0.48770625895E+02  0.72218456516E+01  0.52392217131E+02  0.51100000000E-03 0. -1.
         11    1    1    0    0    0 -0.33778072897E+01 -0.94180468453E+01  0.14351283764E+01  0.10107857448E+02  0.51100000000E-03 0.  1.
         22    1    1    0    0    0  0.21103929563E+02  0.58188672740E+02 -0.86569740280E+01  0.62499925421E+02  0.00000000000E+00 0. -1.
</event>
<event>
 4    1  0.1976955E-002  0.9118800E+02  0.7818608E-02  0.1130116E+00
         25   -1    0    0    0    0  0.00000000000E+00  0.00000000000E+00  0.99999998245E-14  0.12500000000E+03  0.12500000000E+03 0.  0.
        -11    1    1    0    0    0  0.15745354190E+02  0.26367722209E+02  0.45658628996E+02  0.55026206076E+02  0.51100000000E-03 0. -1.
         11    1    1    0    0    0  0.21417674899E+01  0.35745611455E+01  0.62042701631E+01  0.74737958149E+01  0.51100000000E-03 0.  1.
         22    1    1    0    0    0 -0.17887121680E+02 -0.29942283355E+02 -0.51862899159E+02  0.62499998109E+02  0.00000000000E+00 0. -1.
</event>
<event>
 4    1  0.1976955E-002  0.9118800E+02  0.7818608E-02  0.1130116E+00
         25   -1    0    0    0    0  0.00000000000E+00  0.00000000000E+00  0.99999998245E-14  0.12500000000E+03  0.12500000000E+03 0.  0.
        -11    1    1    0    0    0 -0.17913499280E+01  0.24267036027E+01  0.74798742650E+00  0.31076213398E+01  0.51100000000E-03 0.  1.
         11    1    1    0    0    0 -0.34811206358E+02  0.46168758411E+02  0.13568447402E+02  0.59392567771E+02  0.51100000000E-03 0. -1.
         22    1    1    0    0    0  0.36602556286E+02 -0.48595462014E+02 -0.14316434828E+02  0.62499810889E+02  0.00000000000E+00 0. -1.
</event>
<event>
 4    1  0.1976955E-002  0.9118800E+02  0.7818608E-02  0.1130116E+00
         25   -1    0    0    0    0  0.00000000000E+00  0.00000000000E+00  0.99999998245E-14  0.12500000000E+03  0.12500000000E+03 0.  0.
        -11    1    1    0    0    0  0.23993995460E+02 -0.33384542810E+02 -0.26011625927E+02  0.48650223025E+02  0.51100000000E-03 0. -1.
         11    1    1    0    0    0  0.95601531448E+01 -0.83400317820E+01 -0.59289951114E+01  0.14003772405E+02  0.51100000000E-03 0.  1.
         22    1    1    0    0    0 -0.33554148605E+02  0.41724574592E+02  0.31940621038E+02  0.62346004570E+02  0.00000000000E+00 0. -1.
</event>
<event>
 4    1  0.1976955E-002  0.9118800E+02  0.7818608E-02  0.1130116E+00
         25   -1    0    0    0    0  0.00000000000E+00  0.00000000000E+00  0.99999998245E-14  0.12500000000E+03  0.12500000000E+03 0.  0.
        -11    1    1    0    0    0 -0.21563351706E+02  0.49293702588E+02 -0.91591528180E+01  0.54577809889E+02  0.51100000000E-03 0.  1.
         11    1    1    0    0    0 -0.31310235551E+01  0.71552151605E+01 -0.13269087791E+01  0.79221903326E+01  0.51100000000E-03 0. -1.
         22    1    1    0    0    0  0.24694375261E+02 -0.56448917748E+02  0.10486061597E+02  0.62499999779E+02  0.00000000000E+00 0.  1.
</event>
<event>
 4    1  0.1976955E-002  0.9118800E+02  0.7818608E-02  0.1130116E+00
         25   -1    0    0    0    0  0.00000000000E+00  0.00000000000E+00  0.99999998245E-14  0.12500000000E+03  0.12500000000E+03 0.  0.
        -11    1    1    0    0    0  0.50839044461E+02 -0.40749258322E+01 -0.11930715309E+02  0.52378959805E+02  0.51100000000E-03 0. -1.
         11    1    1    0    0    0  0.90956658132E-01 -0.16555246832E+02  0.46134945770E+01  0.17186296961E+02  0.51100000000E-03 0.  1.
         22    1    1    0    0    0 -0.50930001119E+02  0.20630172664E+02  0.73172207323E+01  0.55434743233E+02  0.00000000000E+00 0. -1.
</event>
<event>
 4    1  0.1976955E-002  0.9118800E+02  0.7818608E-02  0.1130116E+00
         25   -1    0    0    0    0  0.00000000000E+00  0.00000000000E+00  0.99999998245E-14  0.12500000000E+03  0.12500000000E+03 0.  0.
        -11    1    1    0    0    0 -0.14901212512E+02 -0.33233092618E+01  0.48628866865E+02  0.50969179036E+02  0.51100000000E-03 0. -1.
         11    1    1    0    0    0 -0.33686355143E+01 -0.75624413953E+00  0.11001828580E+02  0.11530821427E+02  0.51100000000E-03 0.  1.
         22    1    1    0    0    0  0.18269848026E+02  0.40795534013E+01 -0.59630695445E+02  0.62499999537E+02  0.00000000000E+00 0. -1.
</event>
<event>
 4    1  0.1976955E-002  0.9118800E+02  0.7818608E-02  0.1130116E+00
         25   -1    0    0    0    0  0.00000000000E+00  0.00000000000E+00  0.99999998245E-14  0.12500000000E+03  0.12500000000E+03 0.  0.
        -11    1    1    0    0    0 -0.43866629091E+01 -0.17700524739E+01  0.81311043543E+01  0.94069525098E+01  0.51100000000E-03 0. -1.
         11    1    1    0    0    0 -0.24738268200E+02 -0.98658305514E+01  0.45929908215E+02  0.53093059763E+02  0.51100000000E-03 0.  1.
         22    1    1    0    0    0  0.29124931109E+02  0.11635883025E+02 -0.54061012570E+02  0.62499987728E+02  0.00000000000E+00 0.  1.
</event>
<event>
 4    1  0.1976955E-002  0.9118800E+02  0.7818608E-02  0.1130116E+00
         25   -1    0    0    0    0  0.00000000000E+00  0.00000000000E+00  0.99999998245E-14  0.12500000000E+03  0.12500000000E+03 0.  0.
        -11    1    1    0    0    0 -0.96949099148E+01  0.45861474188E+02  0.51415341342E+01  0.47156139223E+02  0.51100000000E-03 0.  1.
         11    1    1    0    0    0 -0.22264554805E+01  0.15193161710E+02  0.63547434810E+00  0.15368574907E+02  0.51100000000E-03 0. -1.
         22    1    1    0    0    0  0.11921365395E+02 -0.61054635898E+02 -0.57770084823E+01  0.62475285870E+02  0.00000000000E+00 0.  1.
</event>
<event>
 4    1  0.1976955E-002  0.9118800E+02  0.7818608E-02  0.1130116E+00
         25   -1    0    0    0    0  0.00000000000E+00  0.00000000000E+00  0.99999998245E-14  0.12500000000E+03  0.12500000000E+03 0.  0.
        -11    1    1    0    0    0 -0.72794445603E+01 -0.47793060468E+01  0.32813684257E+01  0.93058829995E+01  0.51100000000E-03 0.  1.
         11    1    1    0    0    0 -0.41622598068E+02 -0.27292474785E+02  0.18769504806E+02  0.53194117727E+02  0.51100000000E-03 0. -1.
         22    1    1    0    0    0  0.48902042628E+02  0.32071780832E+02 -0.22050873232E+02  0.62499999274E+02  0.00000000000E+00 0. -1.
</event>
<event>
 4    1  0.1976955E-002  0.9118800E+02  0.7818608E-02  0.1130116E+00
         25   -1    0    0    0    0  0.00000000000E+00  0.00000000000E+00  0.99999998245E-14  0.12500000000E+03  0.12500000000E+03 0.  0.
        -11    1    1    0    0    0 -0.28245110663E+02 -0.14217437804E+02  0.29763140116E+01  0.31761301287E+02  0.51100000000E-03 0. -1.
         11    1    1    0    0    0 -0.27599962344E+02 -0.13261303228E+02  0.27084842725E+01  0.30740136174E+02  0.51100000000E-03 0.  1.
         22    1    1    0    0    0  0.55845073007E+02  0.27478741032E+02 -0.56847982841E+01  0.62498562539E+02  0.00000000000E+00 0.  1.
</event>
<event>
 4    1  0.1976955E-002  0.9118800E+02  0.7818608E-02  0.1130116E+00
         25   -1    0    0    0    0  0.00000000000E+00  0.00000000000E+00  0.99999998245E-14  0.12500000000E+03  0.12500000000E+03 0.  0.
        -11    1    1    0    0    0  0.46428065349E+01  0.24092651527E+02  0.36029396068E+02  0.43590467896E+02  0.51100000000E-03 0.  1.
         11    1    1    0    0    0  0.18989641218E+01  0.10001974571E+02  0.15938418046E+02  0.18912396202E+02  0.51100000000E-03 0. -1.
         22    1    1    0    0    0 -0.65417706567E+01 -0.34094626098E+02 -0.51967814114E+02  0.62497135901E+02  0.00000000000E+00 0.  1.
</event>
<event>
 4    1  0.1976955E-002  0.9118800E+02  0.7818608E-02  0.1130116E+00
         25   -1    0    0    0    0  0.00000000000E+00  0.00000000000E+00  0.99999998245E-14  0.12500000000E+03  0.12500000000E+03 0.  0.
        -11    1    1    0    0    0  0.59738315246E+02 -0.11947474813E+01 -0.11616994353E+02  0.60869107830E+02  0.51100000000E-03 0.  1.
         11    1    1    0    0    0  0.15945830553E+01 -0.19535872399E+00 -0.30331267283E+00  0.16348880665E+01  0.51100000000E-03 0. -1.
         22    1    1    0    0    0 -0.61332898301E+02  0.13901062053E+01  0.11920307025E+02  0.62496004103E+02  0.00000000000E+00 0.  1.
</event>
<event>
 4    1  0.1976955E-002  0.9118800E+02  0.7818608E-02  0.1130116E+00
         25   -1    0    0    0    0  0.00000000000E+00  0.00000000000E+00  0.99999998245E-14  0.12500000000E+03  0.12500000000E+03 0.  0.
        -11    1    1    0    0    0  0.30617367890E+02 -0.26866657290E+02 -0.45342163910E+02  0.60952049340E+02  0.51100000000E-03 0.  1.
         11    1    1    0    0    0 -0.54486070122E+00 -0.12869635054E+01 -0.12367098677E+01  0.18661725016E+01  0.51100000000E-03 0. -1.
         22    1    1    0    0    0 -0.30072507189E+02  0.28153620796E+02  0.46578873777E+02  0.62181778158E+02  0.00000000000E+00 0.  1.
</event>
<event>
 4    1  0.1976955E-002  0.9118800E+02  0.7818608E-02  0.1130116E+00
         25   -1    0    0    0    0  0.00000000000E+00  0.00000000000E+00  0.99999998245E-14  0.12500000000E+03  0.12500000000E+03 0.  0.
        -11    1    1    0    0    0  0.18907686022E+01 -0.31425932490E+01 -0.24960729831E+01  0.44363587359E+01  0.51100000000E-03 0.  1.
         11    1    1    0    0    0 -0.29904292489E+02 -0.46681141305E+02 -0.20283855436E+02  0.59032452553E+02  0.51100000000E-03 0. -1.
         22    1    1    0    0    0  0.28013523886E+02  0.49823734554E+02  0.22779928419E+02  0.61531188711E+02  0.00000000000E+00 0. -1.
</event>
<event>
 4    1  0.1976955E-002  0.9118800E+02  0.7818608E-02  0.1130116E+00
         25   -1    0    0    0    0  0.00000000000E+00  0.00000000000E+00  0.99999998245E-14  0.12500000000E+03  0.12500000000E+03 0.  0.
        -11    1    1    0    0    0  0.22760408449E+02 -0.27269013393E+02 -0.38797496715E+02  0.52601150517E+02  0.51100000000E-03 0.  1.
         11    1    1    0    0    0  0.47167549764E+01 -0.48956254784E+01 -0.72027032691E+01  0.99042344972E+01  0.51100000000E-03 0. -1.
         22    1    1    0    0    0 -0.27477163425E+02  0.32164638871E+02  0.46000199984E+02  0.62494614985E+02  0.00000000000E+00 0.  1.
</event>
<event>
 4    1  0.1976955E-002  0.9118800E+02  0.7818608E-02  0.1130116E+00
         25   -1    0    0    0    0  0.00000000000E+00  0.00000000000E+00  0.99999998245E-14  0.12500000000E+03  0.12500000000E+03 0.  0.
        -11    1    1    0    0    0 -0.40908650346E+02 -0.69072659896E+01  0.70271477912E+01  0.42078602673E+02  0.51100000000E-03 0. -1.
         11    1    1    0    0    0 -0.17276037369E+02  0.22892853035E+01  0.12419192176E+02  0.21399500670E+02  0.51100000000E-03 0.  1.
         22    1    1    0    0    0  0.58184687715E+02  0.46179806861E+01 -0.19446339967E+02  0.61521896657E+02  0.00000000000E+00 0. -1.
</event>
<event>
 4    1  0.1976955E-002  0.9118800E+02  0.7818608E-02  0.1130116E+00
         25   -1    0    0    0    0  0.00000000000E+00  0.00000000000E+00  0.99999998245E-14  0.12500000000E+03  0.12500000000E+03 0.  0.
        -11    1    1    0    0    0  0.27671039306E+02 -0.36713408424E+02  0.37770523317E+02  0.59499354671E+02  0.51100000000E-03 0. -1.
         11    1    1    0    0    0  0.13949964333E+01 -0.18511843701E+01  0.19055114895E+01  0.30006454171E+01  0.51100000000E-03 0. -1.
         22    1    1    0    0    0 -0.29066035739E+02  0.38564592794E+02 -0.39676034806E+02  0.62499999912E+02  0.00000000000E+00 0. -1.
</event>
<event>
 4    1  0.1976955E-002  0.9118800E+02  0.7818608E-02  0.1130116E+00
         25   -1    0    0    0    0  0.00000000000E+00  0.00000000000E+00  0.99999998245E-14  0.12500000000E+03  0.12500000000E+03 0.  0.
        -11    1    1    0    0    0  0.25313954898E+02 -0.93935709154E+01  0.11876026971E+02  0.29497042292E+02  0.51100000000E-03 0.  1.
         11    1    1    0    0    0 -0.30181834656E+02  0.28738203640E+01  0.35928311452E+02  0.47011121564E+02  0.51100000000E-03 0. -1.
         22    1    1    0    0    0  0.48678797576E+01  0.65197505514E+01 -0.47804338422E+02  0.48491836144E+02  0.00000000000E+00 0. -1.
</event>
<event>
 4    1  0.1976955E-002  0.9118800E+02  0.7818608E-02  0.1130116E+00
         25   -1    0    0    0    0  0.00000000000E+00  0.00000000000E+00  0.99999998245E-14  0.12500000000E+03  0.12500000000E+03 0.  0.
        -11    1    1    0    0    0  0.89564847424E+01 -0.18116396074E+01 -0.20047232303E+02  0.22031617741E+02  0.51100000000E-03 0.  1.
         11    1    1    0    0    0  0.14937698356E+02 -0.35330295646E+01 -0.37450681949E+02  0.40474321598E+02  0.51100000000E-03 0. -1.
         22    1    1    0    0    0 -0.23894183098E+02  0.53446691720E+01  0.57497914253E+02  0.62494060661E+02  0.00000000000E+00 0. -1.
</event>
<event>
 4    1  0.1976955E-002  0.9118800E+02  0.7818608E-02  0.1130116E+00
         25   -1    0    0    0    0  0.00000000000E+00  0.00000000000E+00  0.99999998245E-14  0.12500000000E+03  0.12500000000E+03 0.  0.
        -11    1    1    0    0    0 -0.26511222874E+02  0.14497467587E+02  0.44885063434E+02  0.54108136398E+02  0.51100000000E-03 0.  1.
         11    1    1    0    0    0 -0.42347895974E+01  0.20675780179E+01  0.69452060073E+01  0.83931048212E+01  0.51100000000E-03 0. -1.
         22    1    1    0    0    0  0.30746012471E+02 -0.16565045605E+02 -0.51830269441E+02  0.62498758781E+02  0.00000000000E+00 0.  1.
</event>
<event>
 4    1  0.1976955E-002  0.9118800E+02  0.7818608E-02  0.1130116E+00
         25   -1    0    0    0    0  0.00000000000E+00  0.00000000000E+00  0.99999998245E-14  0.12500000000E+03  0.12500000000E+03 0.  0.
        -11    1    1    0    0    0 -0.36598894595E+02  0.23589922393E+02  0.21706618566E+02  0.48653271359E+02  0.51100000000E-03 0.  1.
         11    1    1    0    0    0 -0.10416196383E+02  0.67127433703E+01  0.61784968983E+01  0.13846728669E+02  0.51100000000E-03 0. -1.
         22    1    1    0    0    0  0.47015090979E+02 -0.30302665763E+02 -0.27885115464E+02  0.62499999972E+02  0.00000000000E+00 0. -1.
</event>
<event>
 4    1  0.1976955E-002  0.9118800E+02  0.7818608E-02  0.1130116E+00
         25   -1    0    0    0    0  0.00000000000E+00  0.00000000000E+00  0.99999998245E-14  0.12500000000E+03  0.12500000000E+03 0.  0.
        -11    1    1    0    0    0  0.28906954654E+02 -0.43707577446E+02 -0.26621762750E+01  0.52469529599E+02  0.51100000000E-03 0. -1.
         11    1    1    0    0    0 -0.55814122523E+01 -0.72908601907E+01 -0.11474977769E+02  0.14696391397E+02  0.51100000000E-03 0.  1.
         22    1    1    0    0    0 -0.23325542401E+02  0.50998437637E+02  0.14137154044E+02  0.57834079004E+02  0.00000000000E+00 0. -1.
</event>
<event>
 4    1  0.1976955E-002  0.9118800E+02  0.7818608E-02  0.1130116E+00
         25   -1    0    0    0    0  0.00000000000E+00  0.00000000000E+00  0.99999998245E-14  0.12500000000E+03  0.12500000000E+03 0.  0.
        -11    1    1    0    0    0  0.43389180664E+01  0.30369936456E+02  0.11395071085E+02  0.32726241697E+02  0.51100000000E-03 0.  1.
         11    1    1    0    0    0  0.77064768501E+01  0.27724346699E+02  0.79780373569E+01  0.29860982329E+02  0.51100000000E-03 0. -1.
         22    1    1    0    0    0 -0.12045394916E+02 -0.58094283155E+02 -0.19373108442E+02  0.62412775974E+02  0.00000000000E+00 0. -1.
</event>
<event>
 4    1  0.1976955E-002  0.9118800E+02  0.7818608E-02  0.1130116E+00
         25   -1    0    0    0    0  0.00000000000E+00  0.00000000000E+00  0.99999998245E-14  0.12500000000E+03  0.12500000000E+03 0.  0.
        -11    1    1    0    0    0  0.41433060478E+01 -0.11827658135E+01  0.83160317592E+00  0.43883350007E+01  0.51100000000E-03 0.  1.
         11    1    1    0    0    0  0.56938507595E+02 -0.86693088600E+01  0.78758069691E+01  0.58130705302E+02  0.51100000000E-03 0. -1.
         22    1    1    0    0    0 -0.61081813643E+02  0.98520746735E+01 -0.87074101451E+01  0.62480959697E+02  0.00000000000E+00 0. -1.
</event>
<event>
 4    1  0.1976955E-002  0.9118800E+02  0.7818608E-02  0.1130116E+00
         25   -1    0    0    0    0  0.00000000000E+00  0.00000000000E+00  0.99999998245E-14  0.12500000000E+03  0.12500000000E+03 0.  0.
        -11    1    1    0    0    0 -0.28604798005E+00 -0.48516809646E+01  0.56400597703E+01  0.74451934900E+01  0.51100000000E-03 0.  1.
         11    1    1    0    0    0 -0.21165423568E+01 -0.35883400499E+02  0.41700522091E+02  0.55054806565E+02  0.51100000000E-03 0. -1.
         22    1    1    0    0    0  0.24025903369E+01  0.40735081464E+02 -0.47340581861E+02  0.62499999945E+02  0.00000000000E+00 0. -1.
</event>
<event>
 4    1  0.1976955E-002  0.9118800E+02  0.7818608E-02  0.1130116E+00
         25   -1    0    0    0    0  0.00000000000E+00  0.00000000000E+00  0.99999998245E-14  0.12500000000E+03  0.12500000000E+03 0.  0.
        -11    1    1    0    0    0  0.84876932488E+01 -0.16042804490E+02  0.46937754700E+01  0.18746840828E+02  0.51100000000E-03 0.  1.
         11    1    1    0    0    0 -0.43018162968E+02  0.17455063866E+02 -0.36677512345E+02  0.59164867209E+02  0.51100000000E-03 0. -1.
         22    1    1    0    0    0  0.34530469719E+02 -0.14122593760E+01  0.31983736875E+02  0.47088291964E+02  0.00000000000E+00 0. -1.
</event>
<event>
 4    1  0.1976955E-002  0.9118800E+02  0.7818608E-02  0.1130116E+00
         25   -1    0    0    0    0  0.00000000000E+00  0.00000000000E+00  0.99999998245E-14  0.12500000000E+03  0.12500000000E+03 0.  0.
        -11    1    1    0    0    0 -0.49520958997E+02 -0.19092559869E+02  0.11261843431E+02  0.54255694079E+02  0.51100000000E-03 0. -1.
         11    1    1    0    0    0 -0.68313111871E+01 -0.18016906582E+01 -0.78286595586E+01  0.10545179586E+02  0.51100000000E-03 0.  1.
         22    1    1    0    0    0  0.56352270184E+02  0.20894250527E+02 -0.34331838721E+01  0.60199126335E+02  0.00000000000E+00 0. -1.
</event>
<event>
 4    1  0.1976955E-002  0.9118800E+02  0.7818608E-02  0.1130116E+00
         25   -1    0    0    0    0  0.00000000000E+00  0.00000000000E+00  0.99999998245E-14  0.12500000000E+03  0.12500000000E+03 0.  0.
        -11    1    1    0    0    0 -0.14055779681E+02  0.33220512946E+02 -0.45713971373E+02  0.58231731915E+02  0.51100000000E-03 0.  1.
         11    1    1    0    0    0 -0.10821085799E+01  0.25129950021E+01 -0.32769849769E+01  0.42690436469E+01  0.51100000000E-03 0. -1.
         22    1    1    0    0    0  0.15137888261E+02 -0.35733507948E+02  0.48990956350E+02  0.62499224438E+02  0.00000000000E+00 0.  1.
</event>
<event>
 4    1  0.1976955E-002  0.9118800E+02  0.7818608E-02  0.1130116E+00
         25   -1    0    0    0    0  0.00000000000E+00  0.00000000000E+00  0.99999998245E-14  0.12500000000E+03  0.12500000000E+03 0.  0.
        -11    1    1    0    0    0 -0.42924913700E+01 -0.13902047235E+01  0.26110076428E+01  0.52130137643E+01  0.51100000000E-03 0.  1.
         11    1    1    0    0    0 -0.47294051045E+02 -0.14764199574E+02  0.28759376424E+02  0.57287089172E+02  0.51100000000E-03 0. -1.
         22    1    1    0    0    0  0.51586542415E+02  0.16154404298E+02 -0.31370384066E+02  0.62499897064E+02  0.00000000000E+00 0. -1.
</event>
<event>
 4    1  0.1976955E-002  0.9118800E+02  0.7818608E-02  0.1130116E+00
         25   -1    0    0    0    0  0.00000000000E+00  0.00000000000E+00  0.99999998245E-14  0.12500000000E+03  0.12500000000E+03 0.  0.
        -11    1    1    0    0    0  0.24533294389E+01  0.14177733622E+01  0.28499395681E+01  0.40188384448E+01  0.51100000000E-03 0.  1.
         11    1    1    0    0    0  0.35626819702E+02  0.20552137198E+02  0.41573866106E+02  0.58481167642E+02  0.51100000000E-03 0. -1.
         22    1    1    0    0    0 -0.38080149141E+02 -0.21969910560E+02 -0.44423805674E+02  0.62499993913E+02  0.00000000000E+00 0. -1.
</event>
<event>
 4    1  0.1976955E-002  0.9118800E+02  0.7818608E-02  0.1130116E+00
         25   -1    0    0    0    0  0.00000000000E+00  0.00000000000E+00  0.99999998245E-14  0.12500000000E+03  0.12500000000E+03 0.  0.
        -11    1    1    0    0    0 -0.11101782421E+02 -0.14707341038E+02 -0.40958607658E+01  0.18876745720E+02  0.51100000000E-03 0.  1.
         11    1    1    0    0    0 -0.25653965915E+02 -0.33987470771E+02 -0.94717571890E+01  0.43623254362E+02  0.51100000000E-03 0. -1.
         22    1    1    0    0    0  0.36755748335E+02  0.48694811809E+02  0.13567617955E+02  0.62499999918E+02  0.00000000000E+00 0. -1.
</event>
<event>
 4    1  0.1976955E-002  0.9118800E+02  0.7818608E-02  0.1130116E+00
         25   -1    0    0    0    0  0.00000000000E+00  0.00000000000E+00  0.99999998245E-14  0.12500000000E+03  0.12500000000E+03 0.  0.
        -11    1    1    0    0    0 -0.70867516806E+01  0.74429897405E+01  0.67047962442E+01  0.12270877662E+02  0.51100000000E-03 0.  1.
         11    1    1    0    0    0 -0.28903427409E+02  0.30282306222E+02  0.27758829834E+02  0.50229262588E+02  0.51100000000E-03 0. -1.
         22    1    1    0    0    0  0.35990179090E+02 -0.37725295962E+02 -0.34463626078E+02  0.62499859750E+02  0.00000000000E+00 0. -1.
</event>
<event>
 4    1  0.1976955E-002  0.9118800E+02  0.7818608E-02  0.1130116E+00
         25   -1    0    0    0    0  0.00000000000E+00  0.00000000000E+00  0.99999998245E-14  0.12500000000E+03  0.12500000000E+03 0.  0.
        -11    1    1    0    0    0 -0.44973036701E+02  0.39865083166E+02  0.97189031588E+01  0.60879027298E+02  0.51100000000E-03 0. -1.
         11    1    1    0    0    0 -0.11990674242E+01  0.10596864156E+01  0.25856757032E+00  0.16209736076E+01  0.51100000000E-03 0.  1.
         22    1    1    0    0    0  0.46172104125E+02 -0.40924769581E+02 -0.99774707291E+01  0.62499999094E+02  0.00000000000E+00 0. -1.
</event>
<event>
 4    1  0.1976955E-002  0.9118800E+02  0.7818608E-02  0.1130116E+00
         25   -1    0    0    0    0  0.00000000000E+00  0.00000000000E+00  0.99999998245E-14  0.12500000000E+03  0.12500000000E+03 0.  0.
        -11    1    1    0    0    0  0.35167013142E+02  0.14761364310E+02 -0.11710735523E+02  0.39896842186E+02  0.51100000000E-03 0.  1.
         11    1    1    0    0    0  0.19879677965E+02  0.85073039714E+01 -0.65829360458E+01  0.22603337455E+02  0.51100000000E-03 0. -1.
         22    1    1    0    0    0 -0.55046691107E+02 -0.23268668281E+02  0.18293671569E+02  0.62499820359E+02  0.00000000000E+00 0.  1.
</event>
<event>
 4    1  0.1976955E-002  0.9118800E+02  0.7818608E-02  0.1130116E+00
         25   -1    0    0    0    0  0.00000000000E+00  0.00000000000E+00  0.99999998245E-14  0.12500000000E+03  0.12500000000E+03 0.  0.
        -11    1    1    0    0    0  0.18016967581E+02  0.40846011745E+01 -0.49946070257E+01  0.19137428960E+02  0.51100000000E-03 0. -1.
         11    1    1    0    0    0  0.40806401937E+02  0.10388766691E+02 -0.10370993263E+02  0.43366420350E+02  0.51100000000E-03 0.  1.
         22    1    1    0    0    0 -0.58823369519E+02 -0.14473367866E+02  0.15365600289E+02  0.62496150691E+02  0.00000000000E+00 0.  1.
</event>
<event>
 4    1  0.1976955E-002  0.9118800E+02  0.7818608E-02  0.1130116E+00
         25   -1    0    0    0    0  0.00000000000E+00  0.00000000000E+00  0.99999998245E-14  0.12500000000E+03  0.12500000000E+03 0.  0.
        -11    1    1    0    0    0  0.13220589627E+02  0.10125466919E+02  0.40161713875E+02  0.43477262242E+02  0.51100000000E-03 0.  1.
         11    1    1    0    0    0  0.65367852973E+01  0.76006358122E+01  0.16298186284E+02  0.19134526469E+02  0.51100000000E-03 0. -1.
         22    1    1    0    0    0 -0.19757374925E+02 -0.17726102731E+02 -0.56459900159E+02  0.62388211289E+02  0.00000000000E+00 0.  1.
</event>
<event>
 4    1  0.1976955E-002  0.9118800E+02  0.7818608E-02  0.1130116E+00
         25   -1    0    0    0    0  0.00000000000E+00  0.00000000000E+00  0.99999998245E-14  0.12500000000E+03  0.12500000000E+03 0.  0.
        -11    1    1    0    0    0 -0.66509157247E+01 -0.22154719458E+00  0.39660836870E+01  0.77468434352E+01  0.51100000000E-03 0.  1.
         11    1    1    0    0    0 -0.45523575436E+02 -0.73347614257E+01  0.29564481492E+02  0.54774567199E+02  0.51100000000E-03 0. -1.
         22    1    1    0    0    0  0.52174491161E+02  0.75563086203E+01 -0.33530565179E+02  0.62478589366E+02  0.00000000000E+00 0. -1.
</event>
<event>
 4    1  0.1976955E-002  0.9118800E+02  0.7818608E-02  0.1130116E+00
         25   -1    0    0    0    0  0.00000000000E+00  0.00000000000E+00  0.99999998245E-14  0.12500000000E+03  0.12500000000E+03 0.  0.
        -11    1    1    0    0    0 -0.28237891790E+01 -0.79604945279E+01  0.34331744999E+02  0.35355508389E+02  0.51100000000E-03 0.  1.
         11    1    1    0    0    0 -0.19953004012E+01 -0.58918869987E+01  0.26422549750E+02  0.27144920182E+02  0.51100000000E-03 0. -1.
         22    1    1    0    0    0  0.48190895802E+01  0.13852381527E+02 -0.60754294750E+02  0.62499571430E+02  0.00000000000E+00 0.  1.
</event>
<event>
 4    1  0.1976955E-002  0.9118800E+02  0.7818608E-02  0.1130116E+00
         25   -1    0    0    0    0  0.00000000000E+00  0.00000000000E+00  0.99999998245E-14  0.12500000000E+03  0.12500000000E+03 0.  0.
        -11    1    1    0    0    0 -0.18895046508E+00 -0.10653786644E+00  0.58754756937E-01  0.22473312578E+00  0.51100000000E-03 0.  1.
         11    1    1    0    0    0 -0.50487389722E+02 -0.33125201985E+02  0.15231053611E+02  0.62275521049E+02  0.51100000000E-03 0. -1.
         22    1    1    0    0    0  0.50676340187E+02  0.33231739851E+02 -0.15289808367E+02  0.62499745826E+02  0.00000000000E+00 0. -1.
</event>
<event>
 4    1  0.1976955E-002  0.9118800E+02  0.7818608E-02  0.1130116E+00
         25   -1    0    0    0    0  0.00000000000E+00  0.00000000000E+00  0.99999998245E-14  0.12500000000E+03  0.12500000000E+03 0.  0.
        -11    1    1    0    0    0  0.50406324659E+01  0.20070181355E+02  0.13494191831E+02  0.24704521220E+02  0.51100000000E-03 0.  1.
         11    1    1    0    0    0  0.77093076253E+01  0.30708142478E+02  0.20641578970E+02  0.37795478845E+02  0.51100000000E-03 0.  1.
         22    1    1    0    0    0 -0.12749940091E+02 -0.50778323833E+02 -0.34135770801E+02  0.62499999935E+02  0.00000000000E+00 0.  1.
</event>
<event>
 4    1  0.1976955E-002  0.9118800E+02  0.7818608E-02  0.1130116E+00
         25   -1    0    0    0    0  0.00000000000E+00  0.00000000000E+00  0.99999998245E-14  0.12500000000E+03  0.12500000000E+03 0.  0.
        -11    1    1    0    0    0 -0.57956639998E+01 -0.32820508528E+02  0.19610947277E+02  0.38669946400E+02  0.51100000000E-03 0. -1.
         11    1    1    0    0    0 -0.24759693065E+01 -0.19791165310E+02  0.13068268621E+02  0.23845341124E+02  0.51100000000E-03 0.  1.
         22    1    1    0    0    0  0.82716333063E+01  0.52611673837E+02 -0.32679215898E+02  0.62484712476E+02  0.00000000000E+00 0. -1.
</event>
<event>
 4    1  0.1976955E-002  0.9118800E+02  0.7818608E-02  0.1130116E+00
         25   -1    0    0    0    0  0.00000000000E+00  0.00000000000E+00  0.99999998245E-14  0.12500000000E+03  0.12500000000E+03 0.  0.
        -11    1    1    0    0    0 -0.66101068747E+01 -0.63183602088E+01 -0.14313825448E+02  0.16985310943E+02  0.51100000000E-03 0. -1.
         11    1    1    0    0    0 -0.19188689738E+02 -0.18219081736E+02 -0.37043243126E+02  0.45522989958E+02  0.51100000000E-03 0.  1.
         22    1    1    0    0    0  0.25798796612E+02  0.24537441945E+02  0.51357068573E+02  0.62491699099E+02  0.00000000000E+00 0.  1.
</event>
<event>
 4    1  0.1976955E-002  0.9118800E+02  0.7818608E-02  0.1130116E+00
         25   -1    0    0    0    0  0.00000000000E+00  0.00000000000E+00  0.99999998245E-14  0.12500000000E+03  0.12500000000E+03 0.  0.
        -11    1    1    0    0    0 -0.50597933491E+01 -0.40909894785E+02 -0.12914861938E+02  0.43197391810E+02  0.51100000000E-03 0. -1.
         11    1    1    0    0    0 -0.22593487693E+01 -0.18282182192E+02 -0.57660949003E+01  0.19302608456E+02  0.51100000000E-03 0.  1.
         22    1    1    0    0    0  0.73191421184E+01  0.59192076978E+02  0.18680956838E+02  0.62499999733E+02  0.00000000000E+00 0. -1.
</event>
<event>
 4    1  0.1976955E-002  0.9118800E+02  0.7818608E-02  0.1130116E+00
         25   -1    0    0    0    0  0.00000000000E+00  0.00000000000E+00  0.99999998245E-14  0.12500000000E+03  0.12500000000E+03 0.  0.
        -11    1    1    0    0    0  0.24978455122E+02  0.14192708090E+02 -0.84654345782E+01  0.29950288247E+02  0.51100000000E-03 0.  1.
         11    1    1    0    0    0  0.27146568889E+02  0.15423926577E+02 -0.92005446485E+01  0.32549711759E+02  0.51100000000E-03 0.  1.
         22    1    1    0    0    0 -0.52125024011E+02 -0.29616634667E+02  0.17665979227E+02  0.62499999994E+02  0.00000000000E+00 0.  1.
</event>
<event>
 4    1  0.1976955E-002  0.9118800E+02  0.7818608E-02  0.1130116E+00
         25   -1    0    0    0    0  0.00000000000E+00  0.00000000000E+00  0.99999998245E-14  0.12500000000E+03  0.12500000000E+03 0.  0.
        -11    1    1    0    0    0 -0.32796402514E+02  0.22052529473E+02  0.81306530332E+01  0.40348799152E+02  0.51100000000E-03 0.  1.
         11    1    1    0    0    0 -0.17899500155E+02  0.12610315780E+02  0.34205670390E+01  0.22161057037E+02  0.51100000000E-03 0. -1.
         22    1    1    0    0    0  0.50695902669E+02 -0.34662845252E+02 -0.11551220072E+02  0.62490143811E+02  0.00000000000E+00 0.  1.
</event>
<event>
 4    1  0.1976955E-002  0.9118800E+02  0.7818608E-02  0.1130116E+00
         25   -1    0    0    0    0  0.00000000000E+00  0.00000000000E+00  0.99999998245E-14  0.12500000000E+03  0.12500000000E+03 0.  0.
        -11    1    1    0    0    0  0.35411483492E+01  0.46814310452E+01 -0.37783629439E+02  0.38236869407E+02  0.51100000000E-03 0.  1.
         11    1    1    0    0    0  0.19611747756E+01  0.28823294421E+01 -0.24011939965E+02  0.24263703152E+02  0.51100000000E-03 0. -1.
         22    1    1    0    0    0 -0.55023231248E+01 -0.75637604874E+01  0.61795569404E+02  0.62499427440E+02  0.00000000000E+00 0.  1.
</event>
<event>
 4    1  0.1976955E-002  0.9118800E+02  0.7818608E-02  0.1130116E+00
         25   -1    0    0    0    0  0.00000000000E+00  0.00000000000E+00  0.99999998245E-14  0.12500000000E+03  0.12500000000E+03 0.  0.
        -11    1    1    0    0    0 -0.18482236823E+01 -0.39652633167E+02  0.37773003904E+02  0.54795502298E+02  0.51100000000E-03 0. -1.
         11    1    1    0    0    0 -0.28723751143E+00 -0.55616906732E+01  0.53239890640E+01  0.77045290802E+01  0.51100000000E-03 0.  1.
         22    1    1    0    0    0  0.21354611937E+01  0.45214323840E+02 -0.43096992969E+02  0.62499968622E+02  0.00000000000E+00 0. -1.
</event>
<event>
 4    1  0.1976955E-002  0.9118800E+02  0.7818608E-02  0.1130116E+00
         25   -1    0    0    0    0  0.00000000000E+00  0.00000000000E+00  0.99999998245E-14  0.12500000000E+03  0.12500000000E+03 0.  0.
        -11    1    1    0    0    0 -0.43161470639E+02 -0.28552806854E+02  0.30901503346E+02  0.60275021661E+02  0.51100000000E-03 0.  1.
         11    1    1    0    0    0 -0.14235318812E+01 -0.12335924978E+01  0.11972239022E+01  0.22319361103E+01  0.51100000000E-03 0. -1.
         22    1    1    0    0    0  0.44585002520E+02  0.29786399352E+02 -0.32098727248E+02  0.62493042229E+02  0.00000000000E+00 0.  1.
</event>
<event>
 4    1  0.1976955E-002  0.9118800E+02  0.7818608E-02  0.1130116E+00
         25   -1    0    0    0    0  0.00000000000E+00  0.00000000000E+00  0.99999998245E-14  0.12500000000E+03  0.12500000000E+03 0.  0.
        -11    1    1    0    0    0 -0.10740648764E+02  0.41560024870E+02 -0.52790180206E+01  0.43248875530E+02  0.51100000000E-03 0. -1.
         11    1    1    0    0    0 -0.59834065294E+01  0.17904318955E+02 -0.39716369417E+01  0.19290922507E+02  0.51100000000E-03 0.  1.
         22    1    1    0    0    0  0.16724055293E+02 -0.59464343825E+02  0.92506549623E+01  0.62460201963E+02  0.00000000000E+00 0. -1.
</event>
<event>
 4    1  0.1976955E-002  0.9118800E+02  0.7818608E-02  0.1130116E+00
         25   -1    0    0    0    0  0.00000000000E+00  0.00000000000E+00  0.99999998245E-14  0.12500000000E+03  0.12500000000E+03 0.  0.
        -11    1    1    0    0    0 -0.36673257005E+02  0.47539869405E+01  0.48758410297E+02  0.61195675877E+02  0.51100000000E-03 0. -1.
         11    1    1    0    0    0 -0.78099841157E+00  0.10178938672E+00  0.10396836556E+01  0.13043243320E+01  0.51100000000E-03 0.  1.
         22    1    1    0    0    0  0.37454255417E+02 -0.48557763272E+01 -0.49798093952E+02  0.62499999791E+02  0.00000000000E+00 0. -1.
</event>
<event>
 4    1  0.1976955E-002  0.9118800E+02  0.7818608E-02  0.1130116E+00
         25   -1    0    0    0    0  0.00000000000E+00  0.00000000000E+00  0.99999998245E-14  0.12500000000E+03  0.12500000000E+03 0.  0.
        -11    1    1    0    0    0 -0.29106811342E+02 -0.41167132742E+02 -0.12380755947E+02  0.51915531422E+02  0.51100000000E-03 0.  1.
         11    1    1    0    0    0 -0.61625433476E+01 -0.79711381748E+01 -0.32950819745E+01  0.10600639122E+02  0.51100000000E-03 0. -1.
         22    1    1    0    0    0  0.35269354690E+02  0.49138270917E+02  0.15675837922E+02  0.62483829456E+02  0.00000000000E+00 0.  1.
</event>
<event>
 4    1  0.1976955E-002  0.9118800E+02  0.7818608E-02  0.1130116E+00
         25   -1    0    0    0    0  0.00000000000E+00  0.00000000000E+00  0.99999998245E-14  0.12500000000E+03  0.12500000000E+03 0.  0.
        -11    1    1    0    0    0  0.10805366698E+02 -0.65904473801E+01  0.16221847828E+02  0.20575186350E+02  0.51100000000E-03 0. -1.
         11    1    1    0    0    0  0.27186058123E+02 -0.29174248591E+02  0.16147249419E+02  0.43022694025E+02  0.51100000000E-03 0.  1.
         22    1    1    0    0    0 -0.37991424821E+02  0.35764695971E+02 -0.32369097247E+02  0.61402119625E+02  0.00000000000E+00 0.  1.
</event>
<event>
 4    1  0.1976955E-002  0.9118800E+02  0.7818608E-02  0.1130116E+00
         25   -1    0    0    0    0  0.00000000000E+00  0.00000000000E+00  0.99999998245E-14  0.12500000000E+03  0.12500000000E+03 0.  0.
        -11    1    1    0    0    0 -0.13078364361E+02 -0.20558179838E+02 -0.41306071309E+01  0.24713241151E+02  0.51100000000E-03 0. -1.
         11    1    1    0    0    0 -0.20006614436E+02 -0.31425822843E+02 -0.63239406821E+01  0.37786759435E+02  0.51100000000E-03 0.  1.
         22    1    1    0    0    0  0.33084978797E+02  0.51984002682E+02  0.10454547813E+02  0.62499999415E+02  0.00000000000E+00 0. -1.
</event>
<event>
 4    1  0.1976955E-002  0.9118800E+02  0.7818608E-02  0.1130116E+00
         25   -1    0    0    0    0  0.00000000000E+00  0.00000000000E+00  0.99999998245E-14  0.12500000000E+03  0.12500000000E+03 0.  0.
        -11    1    1    0    0    0  0.19955632919E+02  0.23254517623E+02  0.47487238755E+02  0.56515818316E+02  0.51100000000E-03 0.  1.
         11    1    1    0    0    0  0.21338268615E+01  0.25023985277E+01  0.49996505764E+01  0.59842895663E+01  0.51100000000E-03 0. -1.
         22    1    1    0    0    0 -0.22089459780E+02 -0.25756916151E+02 -0.52486889332E+02  0.62499892118E+02  0.00000000000E+00 0.  1.
</event>
<event>
 4    1  0.1976955E-002  0.9118800E+02  0.7818608E-02  0.1130116E+00
         25   -1    0    0    0    0  0.00000000000E+00  0.00000000000E+00  0.99999998245E-14  0.12500000000E+03  0.12500000000E+03 0.  0.
        -11    1    1    0    0    0  0.10381069798E+02 -0.43829440736E+02  0.29433162367E+02  0.53806110551E+02  0.51100000000E-03 0.  1.
         11    1    1    0    0    0  0.16777780775E+01 -0.70813272302E+01  0.47564250683E+01  0.86938894811E+01  0.51100000000E-03 0. -1.
         22    1    1    0    0    0 -0.12058847876E+02  0.50910767967E+02 -0.34189587435E+02  0.62499999968E+02  0.00000000000E+00 0.  1.
</event>
<event>
 4    1  0.1976955E-002  0.9118800E+02  0.7818608E-02  0.1130116E+00
         25   -1    0    0    0    0  0.00000000000E+00  0.00000000000E+00  0.99999998245E-14  0.12500000000E+03  0.12500000000E+03 0.  0.
        -11    1    1    0    0    0  0.16709610778E+02 -0.19800951138E+02  0.19264717126E+01  0.25980763111E+02  0.51100000000E-03 0.  1.
         11    1    1    0    0    0  0.23389023333E+02 -0.12300432096E+02 -0.30407657809E+02  0.40286135281E+02  0.51100000000E-03 0. -1.
         22    1    1    0    0    0 -0.40098634110E+02  0.32101383233E+02  0.28481186097E+02  0.58733101608E+02  0.00000000000E+00 0. -1.
</event>
<event>
 4    1  0.1976955E-002  0.9118800E+02  0.7818608E-02  0.1130116E+00
         25   -1    0    0    0    0  0.00000000000E+00  0.00000000000E+00  0.99999998245E-14  0.12500000000E+03  0.12500000000E+03 0.  0.
        -11    1    1    0    0    0  0.28625106205E+01  0.73053108085E+01 -0.47903611738E-01  0.78462620449E+01  0.51100000000E-03 0. -1.
         11    1    1    0    0    0  0.17837520836E+02  0.51661619324E+02  0.54240851565E+00  0.54657060550E+02  0.51100000000E-03 0.  1.
         22    1    1    0    0    0 -0.20700031456E+02 -0.58966930132E+02 -0.49450490392E+00  0.62496677405E+02  0.00000000000E+00 0.  1.
</event>
<event>
 4    1  0.1976955E-002  0.9118800E+02  0.7818608E-02  0.1130116E+00
         25   -1    0    0    0    0  0.00000000000E+00  0.00000000000E+00  0.99999998245E-14  0.12500000000E+03  0.12500000000E+03 0.  0.
        -11    1    1    0    0    0 -0.27152273193E+00 -0.15624104506E+02  0.14629397245E+02  0.21405738254E+02  0.51100000000E-03 0. -1.
         11    1    1    0    0    0 -0.13544452697E+01 -0.30662062916E+02  0.27331923150E+02  0.41097818040E+02  0.51100000000E-03 0.  1.
         22    1    1    0    0    0  0.16259680017E+01  0.46286167422E+02 -0.41961320395E+02  0.62496443706E+02  0.00000000000E+00 0. -1.
</event>
<event>
 4    1  0.1976955E-002  0.9118800E+02  0.7818608E-02  0.1130116E+00
         25   -1    0    0    0    0  0.00000000000E+00  0.00000000000E+00  0.99999998245E-14  0.12500000000E+03  0.12500000000E+03 0.  0.
        -11    1    1    0    0    0  0.71841435497E+01  0.11839002710E+01  0.16005606547E+02  0.17583884087E+02  0.51100000000E-03 0. -1.
         11    1    1    0    0    0  0.18582802838E+02  0.36222596180E+01  0.40731772649E+02  0.44916796741E+02  0.51100000000E-03 0.  1.
         22    1    1    0    0    0 -0.25766946388E+02 -0.48061598890E+01 -0.56737379196E+02  0.62499319172E+02  0.00000000000E+00 0.  1.
</event>
<event>
 4    1  0.1976955E-002  0.9118800E+02  0.7818608E-02  0.1130116E+00
         25   -1    0    0    0    0  0.00000000000E+00  0.00000000000E+00  0.99999998245E-14  0.12500000000E+03  0.12500000000E+03 0.  0.
        -11    1    1    0    0    0 -0.42628714403E+01 -0.10662940240E+01 -0.27382581733E+00  0.44027305960E+01  0.51100000000E-03 0. -1.
         11    1    1    0    0    0 -0.56183558783E+02 -0.14289460945E+02 -0.38098496377E+01  0.58097297063E+02  0.51100000000E-03 0.  1.
         22    1    1    0    0    0  0.60446430223E+02  0.15355754969E+02  0.40836754550E+01  0.62499972340E+02  0.00000000000E+00 0.  1.
</event>
<event>
 4    1  0.1976955E-002  0.9118800E+02  0.7818608E-02  0.1130116E+00
         25   -1    0    0    0    0  0.00000000000E+00  0.00000000000E+00  0.99999998245E-14  0.12500000000E+03  0.12500000000E+03 0.  0.
        -11    1    1    0    0    0  0.50471112311E+00 -0.17156124991E+01 -0.10812931422E+01  0.20897977618E+01  0.51100000000E-03 0. -1.
         11    1    1    0    0    0  0.14336747807E+02 -0.49616227631E+02 -0.31338177115E+02  0.60410212110E+02  0.51100000000E-03 0.  1.
         22    1    1    0    0    0 -0.14841458930E+02  0.51331840130E+02  0.32419470257E+02  0.62499990128E+02  0.00000000000E+00 0.  1.
</event>
<event>
 4    1  0.1976955E-002  0.9118800E+02  0.7818608E-02  0.1130116E+00
         25   -1    0    0    0    0  0.00000000000E+00  0.00000000000E+00  0.99999998245E-14  0.12500000000E+03  0.12500000000E+03 0.  0.
        -11    1    1    0    0    0  0.36139965799E+01  0.52833121322E+02  0.94494862490E+01  0.53793052252E+02  0.51100000000E-03 0.  1.
         11    1    1    0    0    0  0.58621171461E+00  0.85518522338E+01  0.15274556199E+01  0.87069479001E+01  0.51100000000E-03 0. -1.
         22    1    1    0    0    0 -0.42002082945E+01 -0.61384973556E+02 -0.10976941869E+02  0.62499999848E+02  0.00000000000E+00 0.  1.
</event>
<event>
 4    1  0.1976955E-002  0.9118800E+02  0.7818608E-02  0.1130116E+00
         25   -1    0    0    0    0  0.00000000000E+00  0.00000000000E+00  0.99999998245E-14  0.12500000000E+03  0.12500000000E+03 0.  0.
        -11    1    1    0    0    0  0.88652437060E+01  0.35262895662E+02  0.27206835491E+01  0.36461849592E+02  0.51100000000E-03 0. -1.
         11    1    1    0    0    0  0.35160377555E+01  0.24784799698E+02  0.80352832987E+01  0.26290960339E+02  0.51100000000E-03 0.  1.
         22    1    1    0    0    0 -0.12381281462E+02 -0.60047695360E+02 -0.10755966848E+02  0.62247190069E+02  0.00000000000E+00 0.  1.
</event>
<event>
 4    1  0.1976955E-002  0.9118800E+02  0.7818608E-02  0.1130116E+00
         25   -1    0    0    0    0  0.00000000000E+00  0.00000000000E+00  0.99999998245E-14  0.12500000000E+03  0.12500000000E+03 0.  0.
        -11    1    1    0    0    0  0.65489320537E-01 -0.13559716317E+02  0.18715260941E+02  0.23111278368E+02  0.51100000000E-03 0. -1.
         11    1    1    0    0    0  0.38642678026E-01 -0.23420599905E+02  0.31669760639E+02  0.39389081385E+02  0.51100000000E-03 0.  1.
         22    1    1    0    0    0 -0.10413199856E+00  0.36980316222E+02 -0.50385021580E+02  0.62499640247E+02  0.00000000000E+00 0.  1.
</event>
<event>
 4    1  0.1976955E-002  0.9118800E+02  0.7818608E-02  0.1130116E+00
         25   -1    0    0    0    0  0.00000000000E+00  0.00000000000E+00  0.99999998245E-14  0.12500000000E+03  0.12500000000E+03 0.  0.
        -11    1    1    0    0    0 -0.94654421402E-01 -0.58736268428E+00  0.33690325894E+00  0.68370933106E+00  0.51100000000E-03 0.  1.
         11    1    1    0    0    0  0.52984397472E+02 -0.23601823584E+02  0.21972171326E+02  0.62025549293E+02  0.51100000000E-03 0. -1.
         22    1    1    0    0    0 -0.52889743051E+02  0.24189186268E+02 -0.22309074585E+02  0.62290741376E+02  0.00000000000E+00 0. -1.
</event>
<event>
 4    1  0.1976955E-002  0.9118800E+02  0.7818608E-02  0.1130116E+00
         25   -1    0    0    0    0  0.00000000000E+00  0.00000000000E+00  0.99999998245E-14  0.12500000000E+03  0.12500000000E+03 0.  0.
        -11    1    1    0    0    0 -0.97073615546E+01 -0.73627536119E+01  0.19190777129E+02  0.22731672534E+02  0.51100000000E-03 0. -1.
         11    1    1    0    0    0 -0.27815243726E+02 -0.43189371897E+01  0.28778896580E+02  0.40256252813E+02  0.51100000000E-03 0.  1.
         22    1    1    0    0    0  0.37522605281E+02  0.11681690802E+02 -0.47969673709E+02  0.62012074653E+02  0.00000000000E+00 0. -1.
</event>
<event>
 4    1  0.1976955E-002  0.9118800E+02  0.7818608E-02  0.1130116E+00
         25   -1    0    0    0    0  0.00000000000E+00  0.00000000000E+00  0.99999998245E-14  0.12500000000E+03  0.12500000000E+03 0.  0.
        -11    1    1    0    0    0 -0.81945405105E+00  0.92060308984E+00 -0.23997428279E+02  0.24029056978E+02  0.51100000000E-03 0. -1.
         11    1    1    0    0    0 -0.21618250885E+00 -0.12967599751E+01 -0.38470670975E+02  0.38493127268E+02  0.51100000000E-03 0.  1.
         22    1    1    0    0    0  0.10356365599E+01  0.37615688531E+00  0.62468099254E+02  0.62477815755E+02  0.00000000000E+00 0. -1.
</event>
<event>
 4    1  0.1976955E-002  0.9118800E+02  0.7818608E-02  0.1130116E+00
         25   -1    0    0    0    0  0.00000000000E+00  0.00000000000E+00  0.99999998245E-14  0.12500000000E+03  0.12500000000E+03 0.  0.
        -11    1    1    0    0    0  0.89059606967E+01 -0.16555312788E+02 -0.68744923323E+01  0.20016322402E+02  0.51100000000E-03 0. -1.
         11    1    1    0    0    0  0.19170235782E+02 -0.34020177038E+02 -0.16761827752E+02  0.42495049777E+02  0.51100000000E-03 0.  1.
         22    1    1    0    0    0 -0.28076196479E+02  0.50575489826E+02  0.23636320085E+02  0.62488627821E+02  0.00000000000E+00 0.  1.
</event>
<event>
 4    1  0.1976955E-002  0.9118800E+02  0.7818608E-02  0.1130116E+00
         25   -1    0    0    0    0  0.00000000000E+00  0.00000000000E+00  0.99999998245E-14  0.12500000000E+03  0.12500000000E+03 0.  0.
        -11    1    1    0    0    0 -0.11821958999E+02 -0.53343581700E+02  0.14965296137E+01  0.54658357314E+02  0.51100000000E-03 0. -1.
         11    1    1    0    0    0 -0.17383190013E+01 -0.76414754589E+01  0.28349309475E+00  0.78418281500E+01  0.51100000000E-03 0.  1.
         22    1    1    0    0    0  0.13560278000E+02  0.60985057159E+02 -0.17800227085E+01  0.62499814535E+02  0.00000000000E+00 0. -1.
</event>
<event>
 4    1  0.1976955E-002  0.9118800E+02  0.7818608E-02  0.1130116E+00
         25   -1    0    0    0    0  0.00000000000E+00  0.00000000000E+00  0.99999998245E-14  0.12500000000E+03  0.12500000000E+03 0.  0.
        -11    1    1    0    0    0 -0.14562158072E+02  0.66601306531E+01  0.98156204922E+01  0.18781911349E+02  0.51100000000E-03 0.  1.
         11    1    1    0    0    0 -0.34514066684E+02  0.15540435207E+02  0.21880209796E+02  0.43720355745E+02  0.51100000000E-03 0. -1.
         22    1    1    0    0    0  0.49076224755E+02 -0.22200565860E+02 -0.31695830288E+02  0.62497732906E+02  0.00000000000E+00 0. -1.
</event>
<event>
 4    1  0.1976955E-002  0.9118800E+02  0.7818608E-02  0.1130116E+00
         25   -1    0    0    0    0  0.00000000000E+00  0.00000000000E+00  0.99999998245E-14  0.12500000000E+03  0.12500000000E+03 0.  0.
        -11    1    1    0    0    0  0.24105572974E+01 -0.95642389229E+00  0.17070287584E+02  0.17266159145E+02  0.51100000000E-03 0. -1.
         11    1    1    0    0    0 -0.28028714920E+02 -0.80467437273E+01  0.37070286079E+02  0.47165295026E+02  0.51100000000E-03 0.  1.
         22    1    1    0    0    0  0.25618157623E+02  0.90031676196E+01 -0.54140573664E+02  0.60568545829E+02  0.00000000000E+00 0.  1.
</event>
<event>
 4    1  0.1976955E-002  0.9118800E+02  0.7818608E-02  0.1130116E+00
         25   -1    0    0    0    0  0.00000000000E+00  0.00000000000E+00  0.99999998245E-14  0.12500000000E+03  0.12500000000E+03 0.  0.
        -11    1    1    0    0    0  0.12607274961E+02  0.18095854037E+02 -0.13848198609E+02  0.26041811002E+02  0.51100000000E-03 0.  1.
         11    1    1    0    0    0  0.16185876587E+02  0.26757759084E+02 -0.18766688444E+02  0.36471206005E+02  0.51100000000E-03 0. -1.
         22    1    1    0    0    0 -0.28793151548E+02 -0.44853613121E+02  0.32614887053E+02  0.62486982993E+02  0.00000000000E+00 0. -1.
</event>
<event>
 4    1  0.1976955E-002  0.9118800E+02  0.7818608E-02  0.1130116E+00
         25   -1    0    0    0    0  0.00000000000E+00  0.00000000000E+00  0.99999998245E-14  0.12500000000E+03  0.12500000000E+03 0.  0.
        -11    1    1    0    0    0 -0.30823592645E+02 -0.55420214857E+01  0.16114447736E+02  0.35220495337E+02  0.51100000000E-03 0.  1.
         11    1    1    0    0    0 -0.23873402120E+02 -0.42938008922E+01  0.12481799565E+02  0.27279504679E+02  0.51100000000E-03 0.  1.
         22    1    1    0    0    0  0.54696994766E+02  0.98358223779E+01 -0.28596247301E+02  0.62499999983E+02  0.00000000000E+00 0.  1.
</event>
<event>
 4    1  0.1976955E-002  0.9118800E+02  0.7818608E-02  0.1130116E+00
         25   -1    0    0    0    0  0.00000000000E+00  0.00000000000E+00  0.99999998245E-14  0.12500000000E+03  0.12500000000E+03 0.  0.
        -11    1    1    0    0    0  0.24612392251E+02  0.80764083532E+01  0.18848506984E+02  0.32035362336E+02  0.51100000000E-03 0. -1.
         11    1    1    0    0    0  0.23409735658E+02  0.76855944786E+01  0.17916754392E+02  0.30464638095E+02  0.51100000000E-03 0.  1.
         22    1    1    0    0    0 -0.48022127909E+02 -0.15762002832E+02 -0.36765261376E+02  0.62499999569E+02  0.00000000000E+00 0. -1.
</event>
<event>
 4    1  0.1976955E-002  0.9118800E+02  0.7818608E-02  0.1130116E+00
         25   -1    0    0    0    0  0.00000000000E+00  0.00000000000E+00  0.99999998245E-14  0.12500000000E+03  0.12500000000E+03 0.  0.
        -11    1    1    0    0    0  0.11666542415E+02 -0.43102514684E+00  0.24794239643E+02  0.27405260705E+02  0.51100000000E-03 0.  1.
         11    1    1    0    0    0  0.14940954287E+02 -0.55745984765E+00  0.31750556792E+02  0.35094739397E+02  0.51100000000E-03 0. -1.
         22    1    1    0    0    0 -0.26607496702E+02  0.98848499449E+00 -0.56544796435E+02  0.62499999898E+02  0.00000000000E+00 0. -1.
</event>
<event>
 4    1  0.1976955E-002  0.9118800E+02  0.7818608E-02  0.1130116E+00
         25   -1    0    0    0    0  0.00000000000E+00  0.00000000000E+00  0.99999998245E-14  0.12500000000E+03  0.12500000000E+03 0.  0.
        -11    1    1    0    0    0 -0.13616153919E+01 -0.14936741040E+02  0.82826106419E+01  0.17133647267E+02  0.51100000000E-03 0.  1.
         11    1    1    0    0    0 -0.98006518473E+01 -0.39702683606E+02  0.19790050728E+02  0.45431288450E+02  0.51100000000E-03 0. -1.
         22    1    1    0    0    0  0.11162267239E+02  0.54639424646E+02 -0.28072661369E+02  0.62435064283E+02  0.00000000000E+00 0. -1.
</event>
<event>
 4    1  0.1976955E-002  0.9118800E+02  0.7818608E-02  0.1130116E+00
         25   -1    0    0    0    0  0.00000000000E+00  0.00000000000E+00  0.99999998245E-14  0.12500000000E+03  0.12500000000E+03 0.  0.
        -11    1    1    0    0    0 -0.33580005012E+02 -0.32806649870E+02  0.24653179062E+02  0.53025203917E+02  0.51100000000E-03 0.  1.
         11    1    1    0    0    0 -0.59237867996E+01 -0.59004679070E+01  0.44574944643E+01  0.94750213049E+01  0.51100000000E-03 0. -1.
         22    1    1    0    0    0  0.39503791812E+02  0.38707117777E+02 -0.29110673527E+02  0.62499774778E+02  0.00000000000E+00 0.  1.
</event>
<event>
 4    1  0.1976955E-002  0.9118800E+02  0.7818608E-02  0.1130116E+00
         25   -1    0    0    0    0  0.00000000000E+00  0.00000000000E+00  0.99999998245E-14  0.12500000000E+03  0.12500000000E+03 0.  0.
        -11    1    1    0    0    0 -0.14279161550E+02 -0.59137303765E+01 -0.38462116132E+01  0.15926707305E+02  0.51100000000E-03 0. -1.
         11    1    1    0    0    0 -0.41186107413E+02 -0.16685560858E+02 -0.13978819127E+02  0.46584447720E+02  0.51100000000E-03 0.  1.
         22    1    1    0    0    0  0.55465268963E+02  0.22599291234E+02  0.17825030740E+02  0.62488844975E+02  0.00000000000E+00 0.  1.
</event>
<event>
 4    1  0.1976955E-002  0.9118800E+02  0.7818608E-02  0.1130116E+00
         25   -1    0    0    0    0  0.00000000000E+00  0.00000000000E+00  0.99999998245E-14  0.12500000000E+03  0.12500000000E+03 0.  0.
        -11    1    1    0    0    0  0.32479478131E+01  0.33868724177E-01 -0.15369733728E+02  0.15709201992E+02  0.51100000000E-03 0. -1.
         11    1    1    0    0    0  0.96730822481E+01  0.10029075805E+00 -0.45779910444E+02  0.46790798016E+02  0.51100000000E-03 0. -1.
         22    1    1    0    0    0 -0.12921030061E+02 -0.13415948223E+00  0.61149644172E+02  0.62499999992E+02  0.00000000000E+00 0. -1.
</event>
<event>
 4    1  0.1976955E-002  0.9118800E+02  0.7818608E-02  0.1130116E+00
         25   -1    0    0    0    0  0.00000000000E+00  0.00000000000E+00  0.99999998245E-14  0.12500000000E+03  0.12500000000E+03 0.  0.
        -11    1    1    0    0    0  0.15291036753E+02  0.49955425102E+02 -0.31769628934E+02  0.61144661459E+02  0.51100000000E-03 0.  1.
         11    1    1    0    0    0  0.33775162738E+00  0.11074749828E+01 -0.70453260407E+00  0.13553388693E+01  0.51100000000E-03 0. -1.
         22    1    1    0    0    0 -0.15628788380E+02 -0.51062900085E+02  0.32474161538E+02  0.62499999671E+02  0.00000000000E+00 0.  1.
</event>
<event>
 4    1  0.1976955E-002  0.9118800E+02  0.7818608E-02  0.1130116E+00
         25   -1    0    0    0    0  0.00000000000E+00  0.00000000000E+00  0.99999998245E-14  0.12500000000E+03  0.12500000000E+03 0.  0.
        -11    1    1    0    0    0 -0.79283979510E+01  0.70337680036E+01 -0.87742847511E+01  0.13759413489E+02  0.51100000000E-03 0. -1.
         11    1    1    0    0    0 -0.27955705061E+02  0.23264610609E+02 -0.32455989119E+02  0.48745818099E+02  0.51100000000E-03 0.  1.
         22    1    1    0    0    0  0.35884103012E+02 -0.30298378613E+02  0.41230273870E+02  0.62494768412E+02  0.00000000000E+00 0.  1.
</event>
<event>
 4    1  0.1976955E-002  0.9118800E+02  0.7818608E-02  0.1130116E+00
         25   -1    0    0    0    0  0.00000000000E+00  0.00000000000E+00  0.99999998245E-14  0.12500000000E+03  0.12500000000E+03 0.  0.
        -11    1    1    0    0    0  0.29951911048E+02  0.50929268252E+02  0.17826217818E+02  0.61714515165E+02  0.51100000000E-03 0. -1.
         11    1    1    0    0    0  0.50183502220E+00  0.55936777626E+00  0.25235318051E+00  0.79272510208E+00  0.51100000000E-03 0.  1.
         22    1    1    0    0    0 -0.30453746070E+02 -0.51488636028E+02 -0.18078570998E+02  0.62492759733E+02  0.00000000000E+00 0. -1.
</event>
<event>
 4    1  0.1976955E-002  0.9118800E+02  0.7818608E-02  0.1130116E+00
         25   -1    0    0    0    0  0.00000000000E+00  0.00000000000E+00  0.99999998245E-14  0.12500000000E+03  0.12500000000E+03 0.  0.
        -11    1    1    0    0    0 -0.15114535884E+01  0.11885872543E+00 -0.62829910719E+00  0.16411518442E+01  0.51100000000E-03 0. -1.
         11    1    1    0    0    0 -0.75994946533E+01 -0.47797236355E+02 -0.37830743908E+02  0.61428766120E+02  0.51100000000E-03 0.  1.
         22    1    1    0    0    0  0.91109482417E+01  0.47678377630E+02  0.38459043015E+02  0.61930082035E+02  0.00000000000E+00 0.  1.
</event>
<event>
 4    1  0.1976955E-002  0.9118800E+02  0.7818608E-02  0.1130116E+00
         25   -1    0    0    0    0  0.00000000000E+00  0.00000000000E+00  0.99999998245E-14  0.12500000000E+03  0.12500000000E+03 0.  0.
        -11    1    1    0    0    0  0.49286455209E+01  0.31747682612E+01 -0.22126453224E+02  0.22889967950E+02  0.51100000000E-03 0. -1.
         11    1    1    0    0    0  0.94180555098E+01  0.58482814248E+01 -0.38029365287E+02  0.39612306037E+02  0.51100000000E-03 0.  1.
         22    1    1    0    0    0 -0.14346701031E+02 -0.90230496860E+01  0.60155818511E+02  0.62497726013E+02  0.00000000000E+00 0.  1.
</event>
<event>
 4    1  0.1976955E-002  0.9118800E+02  0.7818608E-02  0.1130116E+00
         25   -1    0    0    0    0  0.00000000000E+00  0.00000000000E+00  0.99999998245E-14  0.12500000000E+03  0.12500000000E+03 0.  0.
        -11    1    1    0    0    0  0.25370684280E+02 -0.46121162586E+02 -0.31696443308E+02  0.61445079362E+02  0.51100000000E-03 0. -1.
         11    1    1    0    0    0  0.43804027769E+00 -0.79280892815E+00 -0.54077840749E+00  0.10549250346E+01  0.51100000000E-03 0.  1.
         22    1    1    0    0    0 -0.25808724558E+02  0.46913971514E+02  0.32237221716E+02  0.62499995604E+02  0.00000000000E+00 0. -1.
</event>
<event>
 4    1  0.1976955E-002  0.9118800E+02  0.7818608E-02  0.1130116E+00
         25   -1    0    0    0    0  0.00000000000E+00  0.00000000000E+00  0.99999998245E-14  0.12500000000E+03  0.12500000000E+03 0.  0.
        -11    1    1    0    0    0 -0.34911301512E+01  0.50758774269E+01  0.16739265311E+01  0.63839291724E+01  0.51100000000E-03 0. -1.
         11    1    1    0    0    0 -0.29997073660E+02  0.46547372413E+02  0.91819850927E+01  0.56131908548E+02  0.51100000000E-03 0.  1.
         22    1    1    0    0    0  0.33488203812E+02 -0.51623249840E+02 -0.10855911624E+02  0.62484162279E+02  0.00000000000E+00 0.  1.
</event>
<event>
 4    1  0.1976955E-002  0.9118800E+02  0.7818608E-02  0.1130116E+00
         25   -1    0    0    0    0  0.00000000000E+00  0.00000000000E+00  0.99999998245E-14  0.12500000000E+03  0.12500000000E+03 0.  0.
        -11    1    1    0    0    0 -0.45929954613E+00 -0.17851101811E+01 -0.20450673776E+00  0.18545613224E+01  0.51100000000E-03 0. -1.
         11    1    1    0    0    0 -0.14893467097E+02 -0.58402355745E+02 -0.67245063121E+01  0.60645440918E+02  0.51100000000E-03 0. -1.
         22    1    1    0    0    0  0.15352766643E+02  0.60187465926E+02  0.69290130499E+01  0.62499997760E+02  0.00000000000E+00 0. -1.
</event>
<event>
 4    1  0.1976955E-002  0.9118800E+02  0.7818608E-02  0.1130116E+00
         25   -1    0    0    0    0  0.00000000000E+00  0.00000000000E+00  0.99999998245E-14  0.12500000000E+03  0.12500000000E+03 0.  0.
        -11    1    1    0    0    0  0.23655038094E+01  0.32625962998E+02  0.56448735005E+01  0.33195084982E+02  0.51100000000E-03 0.  1.
         11    1    1    0    0    0  0.20795417945E+01  0.28797070528E+02  0.50182298084E+01  0.29304921016E+02  0.51100000000E-03 0. -1.
         22    1    1    0    0    0 -0.44450456039E+01 -0.61423033527E+02 -0.10663103309E+02  0.62499994002E+02  0.00000000000E+00 0.  1.
</event>
<event>
 4    1  0.1976955E-002  0.9118800E+02  0.7818608E-02  0.1130116E+00
         25   -1    0    0    0    0  0.00000000000E+00  0.00000000000E+00  0.99999998245E-14  0.12500000000E+03  0.12500000000E+03 0.  0.
        -11    1    1    0    0    0 -0.23643185075E+02  0.35648723638E+02  0.35245427286E+02  0.55426273935E+02  0.51100000000E-03 0.  1.
         11    1    1    0    0    0 -0.28998261241E+01  0.47563595464E+01  0.43633470885E+01  0.70760685243E+01  0.51100000000E-03 0. -1.
         22    1    1    0    0    0  0.26543011199E+02 -0.40405083184E+02 -0.39608774375E+02  0.62497657541E+02  0.00000000000E+00 0.  1.
</event>
<event>
 4    1  0.1976955E-002  0.9118800E+02  0.7818608E-02  0.1130116E+00
         25   -1    0    0    0    0  0.00000000000E+00  0.00000000000E+00  0.99999998245E-14  0.12500000000E+03  0.12500000000E+03 0.  0.
        -11    1    1    0    0    0 -0.85462268371E+01  0.73203540193E+01 -0.36307612697E+02  0.38011423495E+02  0.51100000000E-03 0. -1.
         11    1    1    0    0    0 -0.53952882924E+01  0.47549972814E+01 -0.23408876941E+02  0.24488663802E+02  0.51100000000E-03 0.  1.
         22    1    1    0    0    0  0.13941515129E+02 -0.12075351301E+02  0.59716489638E+02  0.62499912703E+02  0.00000000000E+00 0.  1.
</event>
<event>
 4    1  0.1976955E-002  0.9118800E+02  0.7818608E-02  0.1130116E+00
         25   -1    0    0    0    0  0.00000000000E+00  0.00000000000E+00  0.99999998245E-14  0.12500000000E+03  0.12500000000E+03 0.  0.
        -11    1    1    0    0    0 -0.52468629289E+02 -0.23269806292E+02 -0.70704153030E+01  0.57831061871E+02  0.51100000000E-03 0. -1.
         11    1    1    0    0    0 -0.42708089950E+01 -0.17700491977E+01 -0.66015984738E+00  0.46699780427E+01  0.51100000000E-03 0.  1.
         22    1    1    0    0    0  0.56739438284E+02  0.25039855490E+02  0.77305751504E+01  0.62498960086E+02  0.00000000000E+00 0. -1.
</event>
<event>
 4    1  0.1976955E-002  0.9118800E+02  0.7818608E-02  0.1130116E+00
         25   -1    0    0    0    0  0.00000000000E+00  0.00000000000E+00  0.99999998245E-14  0.12500000000E+03  0.12500000000E+03 0.  0.
        -11    1    1    0    0    0  0.69457575162E+01 -0.10281068149E+01 -0.21886712364E+01  0.73546470438E+01  0.51100000000E-03 0. -1.
         11    1    1    0    0    0  0.48643647124E+02 -0.25645181456E+02 -0.65234353696E+01  0.55375400195E+02  0.51100000000E-03 0.  1.
         22    1    1    0    0    0 -0.55589404640E+02  0.26673288271E+02  0.87121066060E+01  0.62269952762E+02  0.00000000000E+00 0.  1.
</event>
<event>
 4    1  0.1976955E-002  0.9118800E+02  0.7818608E-02  0.1130116E+00
         25   -1    0    0    0    0  0.00000000000E+00  0.00000000000E+00  0.99999998245E-14  0.12500000000E+03  0.12500000000E+03 0.  0.
        -11    1    1    0    0    0  0.24190301436E+02 -0.53302098879E+02  0.17852090429E+02  0.61196254472E+02  0.51100000000E-03 0. -1.
         11    1    1    0    0    0  0.31576152722E+00 -0.12081756934E+01  0.40341261280E+00  0.13123017357E+01  0.51100000000E-03 0.  1.
         22    1    1    0    0    0 -0.24506062963E+02  0.54510274573E+02 -0.18255503042E+02  0.62491443792E+02  0.00000000000E+00 0. -1.
</event>
<event>
 4    1  0.1976955E-002  0.9118800E+02  0.7818608E-02  0.1130116E+00
         25   -1    0    0    0    0  0.00000000000E+00  0.00000000000E+00  0.99999998245E-14  0.12500000000E+03  0.12500000000E+03 0.  0.
        -11    1    1    0    0    0 -0.58699913775E+01 -0.34288140583E+01 -0.71296143624E+00  0.68353404370E+01  0.51100000000E-03 0. -1.
         11    1    1    0    0    0  0.30298217294E+02 -0.43093376393E+02 -0.26524153510E+02  0.58979248722E+02  0.51100000000E-03 0.  1.
         22    1    1    0    0    0 -0.24428225917E+02  0.46522190451E+02  0.27237114946E+02  0.59185410841E+02  0.00000000000E+00 0.  1.
</event>
<event>
 4    1  0.1976955E-002  0.9118800E+02  0.7818608E-02  0.1130116E+00
         25   -1    0    0    0    0  0.00000000000E+00  0.00000000000E+00  0.99999998245E-14  0.12500000000E+03  0.12500000000E+03 0.  0.
        -11    1    1    0    0    0  0.49609717611E+01  0.17656865376E+02  0.27449032719E+02  0.33012505709E+02  0.51100000000E-03 0. -1.
         11    1    1    0    0    0  0.36525083439E+01  0.17659151059E+02  0.23361946603E+02  0.29512149746E+02  0.51100000000E-03 0.  1.
         22    1    1    0    0    0 -0.86134801050E+01 -0.35316016435E+02 -0.50810979322E+02  0.62475344545E+02  0.00000000000E+00 0. -1.
</event>
<event>
 4    1  0.1976955E-002  0.9118800E+02  0.7818608E-02  0.1130116E+00
         25   -1    0    0    0    0  0.00000000000E+00  0.00000000000E+00  0.99999998245E-14  0.12500000000E+03  0.12500000000E+03 0.  0.
        -11    1    1    0    0    0  0.15673054018E+02  0.16432557459E+01 -0.35983328269E+02  0.39282882090E+02  0.51100000000E-03 0. -1.
         11    1    1    0    0    0  0.92896323614E+01  0.94474528420E+00 -0.21256651313E+02  0.23217128125E+02  0.51100000000E-03 0.  1.
         22    1    1    0    0    0 -0.24962686380E+02 -0.25880010301E+01  0.57239979582E+02  0.62499989785E+02  0.00000000000E+00 0.  1.
</event>
<event>
 4    1  0.1976955E-002  0.9118800E+02  0.7818608E-02  0.1130116E+00
         25   -1    0    0    0    0  0.00000000000E+00  0.00000000000E+00  0.99999998245E-14  0.12500000000E+03  0.12500000000E+03 0.  0.
        -11    1    1    0    0    0  0.35807079729E+02 -0.20101812222E+02  0.22715936201E+01  0.41126511536E+02  0.51100000000E-03 0.  1.
         11    1    1    0    0    0  0.18348538185E+02 -0.10959569636E+02  0.53812382214E+00  0.21379209472E+02  0.51100000000E-03 0. -1.
         22    1    1    0    0    0 -0.54155617914E+02  0.31061381858E+02 -0.28097174422E+01  0.62494278992E+02  0.00000000000E+00 0.  1.
</event>
<event>
 4    1  0.1976955E-002  0.9118800E+02  0.7818608E-02  0.1130116E+00
         25   -1    0    0    0    0  0.00000000000E+00  0.00000000000E+00  0.99999998245E-14  0.12500000000E+03  0.12500000000E+03 0.  0.
        -11    1    1    0    0    0  0.17558763952E+02 -0.13391117551E+00 -0.10259662793E+02  0.20336882864E+02  0.51100000000E-03 0.  1.
         11    1    1    0    0    0  0.36422783700E+02 -0.47358055850E+00 -0.21234206370E+02  0.42163194512E+02  0.51100000000E-03 0. -1.
         22    1    1    0    0    0 -0.53981547653E+02  0.60749173401E+00  0.31493869163E+02  0.62499922624E+02  0.00000000000E+00 0. -1.
</event>
<event>
 4    1  0.1976955E-002  0.9118800E+02  0.7818608E-02  0.1130116E+00
         25   -1    0    0    0    0  0.00000000000E+00  0.00000000000E+00  0.99999998245E-14  0.12500000000E+03  0.12500000000E+03 0.  0.
        -11    1    1    0    0    0  0.92455432564E+01 -0.12408059972E+02 -0.35498939602E+01  0.15875823436E+02  0.51100000000E-03 0.  1.
         11    1    1    0    0    0  0.27152270727E+02 -0.36440348282E+02 -0.10424444931E+02  0.46624176571E+02  0.51100000000E-03 0.  1.
         22    1    1    0    0    0 -0.36397813983E+02  0.48848408254E+02  0.13974338891E+02  0.62499999993E+02  0.00000000000E+00 0.  1.
</event>
<event>
 4    1  0.1976955E-002  0.9118800E+02  0.7818608E-02  0.1130116E+00
         25   -1    0    0    0    0  0.00000000000E+00  0.00000000000E+00  0.99999998245E-14  0.12500000000E+03  0.12500000000E+03 0.  0.
        -11    1    1    0    0    0  0.53897890190E+01 -0.18158431614E+01  0.88990878289E+01  0.10561291422E+02  0.51100000000E-03 0. -1.
         11    1    1    0    0    0  0.26517389670E+02 -0.89292911897E+01  0.43757573833E+02  0.51938708726E+02  0.51100000000E-03 0.  1.
         22    1    1    0    0    0 -0.31907178689E+02  0.10745134351E+02 -0.52656661662E+02  0.62499999852E+02  0.00000000000E+00 0.  1.
</event>
<event>
 4    1  0.1976955E-002  0.9118800E+02  0.7818608E-02  0.1130116E+00
         25   -1    0    0    0    0  0.00000000000E+00  0.00000000000E+00  0.99999998245E-14  0.12500000000E+03  0.12500000000E+03 0.  0.
        -11    1    1    0    0    0  0.28842947574E+02 -0.21098754591E+02 -0.40934660115E+02  0.54338931431E+02  0.51100000000E-03 0. -1.
         11    1    1    0    0    0  0.41610229744E+01 -0.37049376572E+01 -0.59760276083E+01  0.81702864989E+01  0.51100000000E-03 0.  1.
         22    1    1    0    0    0 -0.33003970548E+02  0.24803692248E+02  0.46910687723E+02  0.62490782070E+02  0.00000000000E+00 0. -1.
</event>
<event>
 4    1  0.1976955E-002  0.9118800E+02  0.7818608E-02  0.1130116E+00
         25   -1    0    0    0    0  0.00000000000E+00  0.00000000000E+00  0.99999998245E-14  0.12500000000E+03  0.12500000000E+03 0.  0.
        -11    1    1    0    0    0 -0.53075146909E+01  0.36319299134E+02 -0.33057437035E+02  0.49396916355E+02  0.51100000000E-03 0.  1.
         11    1    1    0    0    0 -0.13596384338E+01  0.96605052348E+01 -0.87474681314E+01  0.13103136153E+02  0.51100000000E-03 0. -1.
         22    1    1    0    0    0  0.66671531248E+01 -0.45979804369E+02  0.41804905166E+02  0.62499947493E+02  0.00000000000E+00 0.  1.
</event>
<event>
 4    1  0.1976955E-002  0.9118800E+02  0.7818608E-02  0.1130116E+00
         25   -1    0    0    0    0  0.00000000000E+00  0.00000000000E+00  0.99999998245E-14  0.12500000000E+03  0.12500000000E+03 0.  0.
        -11    1    1    0    0    0  0.29090345516E+02 -0.18033619960E+02 -0.12887409432E+02  0.36572461952E+02  0.51100000000E-03 0. -1.
         11    1    1    0    0    0  0.20685152999E+02 -0.12753787501E+02 -0.90391782828E+01  0.25927618373E+02  0.51100000000E-03 0.  1.
         22    1    1    0    0    0 -0.49775498515E+02  0.30787407461E+02  0.21926587715E+02  0.62499919675E+02  0.00000000000E+00 0. -1.
</event>
<event>
 4    1  0.1976955E-002  0.9118800E+02  0.7818608E-02  0.1130116E+00
         25   -1    0    0    0    0  0.00000000000E+00  0.00000000000E+00  0.99999998245E-14  0.12500000000E+03  0.12500000000E+03 0.  0.
        -11    1    1    0    0    0  0.22067153635E+02  0.15037174523E+02  0.11098021494E+02  0.28917848615E+02  0.51100000000E-03 0. -1.
         11    1    1    0    0    0  0.23609830462E+02  0.20706877492E+02  0.12045913762E+02  0.33634846641E+02  0.51100000000E-03 0.  1.
         22    1    1    0    0    0 -0.45676984097E+02 -0.35744052015E+02 -0.23143935256E+02  0.62447304744E+02  0.00000000000E+00 0.  1.
</event>
<event>
 4    1  0.1976955E-002  0.9118800E+02  0.7818608E-02  0.1130116E+00
         25   -1    0    0    0    0  0.00000000000E+00  0.00000000000E+00  0.99999998245E-14  0.12500000000E+03  0.12500000000E+03 0.  0.
        -11    1    1    0    0    0  0.18992290086E+02  0.79875617722E+01  0.18786915684E+02  0.27882905641E+02  0.51100000000E-03 0. -1.
         11    1    1    0    0    0  0.23647151464E+02  0.98801905454E+01  0.23270995750E+02  0.34617122657E+02  0.51100000000E-03 0.  1.
         22    1    1    0    0    0 -0.42639441550E+02 -0.17867752318E+02 -0.42057911434E+02  0.62499971702E+02  0.00000000000E+00 0.  1.
</event>
<event>
 4    1  0.1976955E-002  0.9118800E+02  0.7818608E-02  0.1130116E+00
         25   -1    0    0    0    0  0.00000000000E+00  0.00000000000E+00  0.99999998245E-14  0.12500000000E+03  0.12500000000E+03 0.  0.
        -11    1    1    0    0    0  0.41449279096E+02 -0.14486127519E+01 -0.40942473913E+02  0.58278875992E+02  0.51100000000E-03 0.  1.
         11    1    1    0    0    0 -0.38284786327E+01 -0.23313767668E+00  0.25879123487E+02  0.26161816346E+02  0.51100000000E-03 0. -1.
         22    1    1    0    0    0 -0.37620800463E+02  0.16817504286E+01  0.15063350426E+02  0.40559307662E+02  0.00000000000E+00 0.  1.
</event>
<event>
 4    1  0.1976955E-002  0.9118800E+02  0.7818608E-02  0.1130116E+00
         25   -1    0    0    0    0  0.00000000000E+00  0.00000000000E+00  0.99999998245E-14  0.12500000000E+03  0.12500000000E+03 0.  0.
        -11    1    1    0    0    0  0.16163015045E+00  0.25936113213E+02  0.62745286997E+01  0.26684785994E+02  0.51100000000E-03 0. -1.
         11    1    1    0    0    0  0.21284810374E+00  0.34810440153E+02  0.84212534671E+01  0.35815214060E+02  0.51100000000E-03 0. -1.
         22    1    1    0    0    0 -0.37447825419E+00 -0.60746553365E+02 -0.14695782167E+02  0.62499999946E+02  0.00000000000E+00 0. -1.
</event>
<event>
 4    1  0.1976955E-002  0.9118800E+02  0.7818608E-02  0.1130116E+00
         25   -1    0    0    0    0  0.00000000000E+00  0.00000000000E+00  0.99999998245E-14  0.12500000000E+03  0.12500000000E+03 0.  0.
        -11    1    1    0    0    0  0.12830470916E+02  0.15931868936E+02 -0.10440761598E+01  0.20482566417E+02  0.51100000000E-03 0.  1.
         11    1    1    0    0    0  0.26365408588E+02  0.32645714742E+02 -0.21419194279E+01  0.42017440191E+02  0.51100000000E-03 0. -1.
         22    1    1    0    0    0 -0.39195879505E+02 -0.48577583678E+02  0.31859955876E+01  0.62499993393E+02  0.00000000000E+00 0. -1.
</event>
<event>
 4    1  0.1976955E-002  0.9118800E+02  0.7818608E-02  0.1130116E+00
         25   -1    0    0    0    0  0.00000000000E+00  0.00000000000E+00  0.99999998245E-14  0.12500000000E+03  0.12500000000E+03 0.  0.
        -11    1    1    0    0    0 -0.60384767938E+01 -0.10922599270E+02  0.45366231580E+01  0.13279583079E+02  0.51100000000E-03 0. -1.
         11    1    1    0    0    0 -0.22564251028E+02 -0.39882805361E+02  0.17973605262E+02  0.49222292453E+02  0.51100000000E-03 0.  1.
         22    1    1    0    0    0  0.28602727822E+02  0.50805404631E+02 -0.22510228420E+02  0.62498124469E+02  0.00000000000E+00 0.  1.
</event>
<event>
 4    1  0.1976955E-002  0.9118800E+02  0.7818608E-02  0.1130116E+00
         25   -1    0    0    0    0  0.00000000000E+00  0.00000000000E+00  0.99999998245E-14  0.12500000000E+03  0.12500000000E+03 0.  0.
        -11    1    1    0    0    0  0.44497447847E+01  0.18178311611E+02  0.56689393561E+02  0.59698731848E+02  0.51100000000E-03 0. -1.
         11    1    1    0    0    0 -0.11871561105E+01  0.12691007680E+01  0.24257324024E+01  0.29839796144E+01  0.51100000000E-03 0.  1.
         22    1    1    0    0    0 -0.32625886742E+01 -0.19447412379E+02 -0.59115125963E+02  0.62317288538E+02  0.00000000000E+00 0. -1.
</event>
<event>
 4    1  0.1976955E-002  0.9118800E+02  0.7818608E-02  0.1130116E+00
         25   -1    0    0    0    0  0.00000000000E+00  0.00000000000E+00  0.99999998245E-14  0.12500000000E+03  0.12500000000E+03 0.  0.
        -11    1    1    0    0    0 -0.33109848745E+02 -0.24803553623E+02  0.44053993277E+02  0.60433704836E+02  0.51100000000E-03 0.  1.
         11    1    1    0    0    0 -0.86405352631E+00 -0.50107810477E+00  0.18500432926E+01  0.21024576593E+01  0.51100000000E-03 0. -1.
         22    1    1    0    0    0  0.33973902271E+02  0.25304631728E+02 -0.45904036570E+02  0.62463837505E+02  0.00000000000E+00 0.  1.
</event>
<event>
 4    1  0.1976955E-002  0.9118800E+02  0.7818608E-02  0.1130116E+00
         25   -1    0    0    0    0  0.00000000000E+00  0.00000000000E+00  0.99999998245E-14  0.12500000000E+03  0.12500000000E+03 0.  0.
        -11    1    1    0    0    0 -0.71143289037E+01 -0.68306279197E+01  0.33035364188E+01  0.10401178138E+02  0.51100000000E-03 0. -1.
         11    1    1    0    0    0 -0.35640535600E+02 -0.34206003722E+02  0.16552606497E+02  0.52098821969E+02  0.51100000000E-03 0.  1.
         22    1    1    0    0    0  0.42754864503E+02  0.41036631641E+02 -0.19856142916E+02  0.62499999893E+02  0.00000000000E+00 0.  1.
</event>
<event>
 4    1  0.1976955E-002  0.9118800E+02  0.7818608E-02  0.1130116E+00
         25   -1    0    0    0    0  0.00000000000E+00  0.00000000000E+00  0.99999998245E-14  0.12500000000E+03  0.12500000000E+03 0.  0.
        -11    1    1    0    0    0 -0.10074804169E+01 -0.60158779584E+00  0.13013441829E+00  0.11806184373E+01  0.51100000000E-03 0.  1.
         11    1    1    0    0    0 -0.53019996952E+02 -0.29128175798E+02  0.10032144858E+02  0.61320588980E+02  0.51100000000E-03 0. -1.
         22    1    1    0    0    0  0.54027477369E+02  0.29729763594E+02 -0.10162279277E+02  0.62498792583E+02  0.00000000000E+00 0. -1.
</event>
<event>
 4    1  0.1976955E-002  0.9118800E+02  0.7818608E-02  0.1130116E+00
         25   -1    0    0    0    0  0.00000000000E+00  0.00000000000E+00  0.99999998245E-14  0.12500000000E+03  0.12500000000E+03 0.  0.
        -11    1    1    0    0    0  0.81167937816E+01 -0.27900994626E+02  0.35250869499E+02  0.45683384760E+02  0.51100000000E-03 0. -1.
         11    1    1    0    0    0  0.29687338335E+01 -0.10284780231E+02  0.12969529148E+02  0.16816621883E+02  0.51100000000E-03 0.  1.
         22    1    1    0    0    0 -0.11085527615E+02  0.38185774857E+02 -0.48220398647E+02  0.62499993357E+02  0.00000000000E+00 0. -1.
</event>
<event>
 4    1  0.1976955E-002  0.9118800E+02  0.7818608E-02  0.1130116E+00
         25   -1    0    0    0    0  0.00000000000E+00  0.00000000000E+00  0.99999998245E-14  0.12500000000E+03  0.12500000000E+03 0.  0.
        -11    1    1    0    0    0 -0.85015862415E+00  0.93361920323E+01  0.26817430343E+02  0.28408833517E+02  0.51100000000E-03 0. -1.
         11    1    1    0    0    0 -0.19734720386E+01  0.72561319881E+01  0.33312203275E+02  0.34150386976E+02  0.51100000000E-03 0.  1.
         22    1    1    0    0    0  0.28236306628E+01 -0.16592324020E+02 -0.60129633617E+02  0.62440779507E+02  0.00000000000E+00 0. -1.
</event>
<event>
 4    1  0.1976955E-002  0.9118800E+02  0.7818608E-02  0.1130116E+00
         25   -1    0    0    0    0  0.00000000000E+00  0.00000000000E+00  0.99999998245E-14  0.12500000000E+03  0.12500000000E+03 0.  0.
        -11    1    1    0    0    0  0.66480078187E+01  0.13420079951E+02 -0.16149182618E+02  0.22024773627E+02  0.51100000000E-03 0.  1.
         11    1    1    0    0    0 -0.53407976249E+02 -0.14383488827E+01  0.80865461763E+01  0.54035849247E+02  0.51100000000E-03 0. -1.
         22    1    1    0    0    0  0.46759968431E+02 -0.11981731068E+02  0.80626364414E+01  0.48939377125E+02  0.00000000000E+00 0. -1.
</event>
<event>
 4    1  0.1976955E-002  0.9118800E+02  0.7818608E-02  0.1130116E+00
         25   -1    0    0    0    0  0.00000000000E+00  0.00000000000E+00  0.99999998245E-14  0.12500000000E+03  0.12500000000E+03 0.  0.
        -11    1    1    0    0    0 -0.32611887257E+02 -0.14090716793E+02  0.80419928539E+01  0.36424677617E+02  0.51100000000E-03 0.  1.
         11    1    1    0    0    0 -0.23337781621E+02 -0.10088194342E+02  0.57878335614E+01  0.26075328064E+02  0.51100000000E-03 0. -1.
         22    1    1    0    0    0  0.55949668877E+02  0.24178911135E+02 -0.13829826415E+02  0.62499994319E+02  0.00000000000E+00 0.  1.
</event>
<event>
 4    1  0.1976955E-002  0.9118800E+02  0.7818608E-02  0.1130116E+00
         25   -1    0    0    0    0  0.00000000000E+00  0.00000000000E+00  0.99999998245E-14  0.12500000000E+03  0.12500000000E+03 0.  0.
        -11    1    1    0    0    0  0.35371731305E+01  0.15200958584E+01 -0.10926484457E+01  0.40020202474E+01  0.51100000000E-03 0. -1.
         11    1    1    0    0    0  0.52090175541E+02  0.26687101308E+02 -0.18576199164E+01  0.58557992760E+02  0.51100000000E-03 0.  1.
         22    1    1    0    0    0 -0.55627348671E+02 -0.28207197167E+02  0.29502683620E+01  0.62439986992E+02  0.00000000000E+00 0.  1.
</event>
<event>
 4    1  0.1976955E-002  0.9118800E+02  0.7818608E-02  0.1130116E+00
         25   -1    0    0    0    0  0.00000000000E+00  0.00000000000E+00  0.99999998245E-14  0.12500000000E+03  0.12500000000E+03 0.  0.
        -11    1    1    0    0    0 -0.32969455051E+01  0.36903699652E+02 -0.12746880045E+02  0.39182085815E+02  0.51100000000E-03 0.  1.
         11    1    1    0    0    0 -0.19664400670E+01  0.21963467089E+02 -0.75805253416E+01  0.23317914525E+02  0.51100000000E-03 0. -1.
         22    1    1    0    0    0  0.52633855721E+01 -0.58867166740E+02  0.20327405387E+02  0.62499999660E+02  0.00000000000E+00 0. -1.
</event>
<event>
 4    1  0.1976955E-002  0.9118800E+02  0.7818608E-02  0.1130116E+00
         25   -1    0    0    0    0  0.00000000000E+00  0.00000000000E+00  0.99999998245E-14  0.12500000000E+03  0.12500000000E+03 0.  0.
        -11    1    1    0    0    0 -0.26460838609E+02 -0.31581418878E+00  0.46910873602E+02  0.53860057379E+02  0.51100000000E-03 0. -1.
         11    1    1    0    0    0  0.16343777742E+02 -0.11435235936E+02  0.17927939241E+01  0.20027426247E+02  0.51100000000E-03 0.  1.
         22    1    1    0    0    0  0.10117060868E+02  0.11751050124E+02 -0.48703667526E+02  0.51112516374E+02  0.00000000000E+00 0. -1.
</event>
<event>
 4    1  0.1976955E-002  0.9118800E+02  0.7818608E-02  0.1130116E+00
         25   -1    0    0    0    0  0.00000000000E+00  0.00000000000E+00  0.99999998245E-14  0.12500000000E+03  0.12500000000E+03 0.  0.
        -11    1    1    0    0    0  0.13393794354E+01  0.27103264994E+02  0.10132861131E+02  0.28966459666E+02  0.51100000000E-03 0.  1.
         11    1    1    0    0    0  0.15507106386E+01  0.31375948275E+02  0.11732156428E+02  0.33533540349E+02  0.51100000000E-03 0. -1.
         22    1    1    0    0    0 -0.28900900740E+01 -0.58479213269E+02 -0.21865017559E+02  0.62499999985E+02  0.00000000000E+00 0.  1.
</event>
<event>
 4    1  0.1976955E-002  0.9118800E+02  0.7818608E-02  0.1130116E+00
         25   -1    0    0    0    0  0.00000000000E+00  0.00000000000E+00  0.99999998245E-14  0.12500000000E+03  0.12500000000E+03 0.  0.
        -11    1    1    0    0    0 -0.13093937249E+02  0.31162295173E+02  0.34077667914E+02  0.47998200840E+02  0.51100000000E-03 0. -1.
         11    1    1    0    0    0 -0.70351486229E+01 -0.10157727896E+00  0.14389820237E+02  0.16017820102E+02  0.51100000000E-03 0.  1.
         22    1    1    0    0    0  0.20129085872E+02 -0.31060717894E+02 -0.48467488151E+02  0.60983979059E+02  0.00000000000E+00 0. -1.
</event>
<event>
 4    1  0.1976955E-002  0.9118800E+02  0.7818608E-02  0.1130116E+00
         25   -1    0    0    0    0  0.00000000000E+00  0.00000000000E+00  0.99999998245E-14  0.12500000000E+03  0.12500000000E+03 0.  0.
        -11    1    1    0    0    0 -0.54343587512E+02  0.62572965482E+01  0.16083844749E+02  0.57018149092E+02  0.51100000000E-03 0. -1.
         11    1    1    0    0    0 -0.54251272833E+01  0.13067637548E+01  0.16806943766E+00  0.55828205369E+01  0.51100000000E-03 0.  1.
         22    1    1    0    0    0  0.59768714795E+02 -0.75640603030E+01 -0.16251914187E+02  0.62399030371E+02  0.00000000000E+00 0. -1.
</event>
<event>
 4    1  0.1976955E-002  0.9118800E+02  0.7818608E-02  0.1130116E+00
         25   -1    0    0    0    0  0.00000000000E+00  0.00000000000E+00  0.99999998245E-14  0.12500000000E+03  0.12500000000E+03 0.  0.
        -11    1    1    0    0    0 -0.42577635365E+01 -0.10029658089E+02 -0.37636055997E+01  0.11527676222E+02  0.51100000000E-03 0. -1.
         11    1    1    0    0    0 -0.44595926281E+02  0.22713991815E+00  0.33201680213E+02  0.55598559357E+02  0.51100000000E-03 0.  1.
         22    1    1    0    0    0  0.48853689817E+02  0.98025181707E+01 -0.29438074613E+02  0.57873764420E+02  0.00000000000E+00 0.  1.
</event>
<event>
 4    1  0.1976955E-002  0.9118800E+02  0.7818608E-02  0.1130116E+00
         25   -1    0    0    0    0  0.00000000000E+00  0.00000000000E+00  0.99999998245E-14  0.12500000000E+03  0.12500000000E+03 0.  0.
        -11    1    1    0    0    0 -0.35977042729E+02 -0.19472277709E+02 -0.18894381407E+02  0.45061234467E+02  0.51100000000E-03 0.  1.
         11    1    1    0    0    0 -0.13553993353E+02 -0.86011447353E+01 -0.68523537979E+01  0.17454087756E+02  0.51100000000E-03 0. -1.
         22    1    1    0    0    0  0.49531036082E+02  0.28073422444E+02  0.25746735205E+02  0.62484677776E+02  0.00000000000E+00 0. -1.
</event>
<event>
 4    1  0.1976955E-002  0.9118800E+02  0.7818608E-02  0.1130116E+00
         25   -1    0    0    0    0  0.00000000000E+00  0.00000000000E+00  0.99999998245E-14  0.12500000000E+03  0.12500000000E+03 0.  0.
        -11    1    1    0    0    0 -0.25304309728E+02 -0.24397810873E+01  0.71319264536E+01  0.26403124772E+02  0.51100000000E-03 0.  1.
         11    1    1    0    0    0 -0.34593836056E+02 -0.33551497042E+01  0.97464846604E+01  0.36096876404E+02  0.51100000000E-03 0. -1.
         22    1    1    0    0    0  0.59898145784E+02  0.57949307915E+01 -0.16878411114E+02  0.62499998824E+02  0.00000000000E+00 0.  1.
</event>
<event>
 4    1  0.1976955E-002  0.9118800E+02  0.7818608E-02  0.1130116E+00
         25   -1    0    0    0    0  0.00000000000E+00  0.00000000000E+00  0.99999998245E-14  0.12500000000E+03  0.12500000000E+03 0.  0.
        -11    1    1    0    0    0 -0.53138514907E+00 -0.10726041604E+02 -0.78533668892E+01  0.13304349305E+02  0.51100000000E-03 0. -1.
         11    1    1    0    0    0 -0.43633008589E+02 -0.24020827623E+02 -0.13460381816E+02  0.51594781491E+02  0.51100000000E-03 0.  1.
         22    1    1    0    0    0  0.44164393738E+02  0.34746869227E+02  0.21313748705E+02  0.60100869205E+02  0.00000000000E+00 0.  1.
</event>
<event>
 4    1  0.1976955E-002  0.9118800E+02  0.7818608E-02  0.1130116E+00
         25   -1    0    0    0    0  0.00000000000E+00  0.00000000000E+00  0.99999998245E-14  0.12500000000E+03  0.12500000000E+03 0.  0.
        -11    1    1    0    0    0 -0.31471910868E+02  0.25553712703E+02  0.16519990002E+02  0.43776517409E+02  0.51100000000E-03 0.  1.
         11    1    1    0    0    0 -0.13469212743E+02  0.10911171044E+02  0.70778279771E+01  0.18723487779E+02  0.51100000000E-03 0. -1.
         22    1    1    0    0    0  0.44941123611E+02 -0.36464883747E+02 -0.23597817979E+02  0.62499994812E+02  0.00000000000E+00 0.  1.
</event>
<event>
 4    1  0.1976955E-002  0.9118800E+02  0.7818608E-02  0.1130116E+00
         25   -1    0    0    0    0  0.00000000000E+00  0.00000000000E+00  0.99999998245E-14  0.12500000000E+03  0.12500000000E+03 0.  0.
        -11    1    1    0    0    0 -0.51586950565E+01  0.11351305920E+02 -0.12053987792E+02  0.17342517197E+02  0.51100000000E-03 0.  1.
         11    1    1    0    0    0 -0.12428212454E+02  0.30959087320E+02 -0.30443534587E+02  0.45163418282E+02  0.51100000000E-03 0. -1.
         22    1    1    0    0    0  0.17586907511E+02 -0.42310393240E+02  0.42497522379E+02  0.62494064521E+02  0.00000000000E+00 0. -1.
</event>
<event>
 4    1  0.1976955E-002  0.9118800E+02  0.7818608E-02  0.1130116E+00
         25   -1    0    0    0    0  0.00000000000E+00  0.00000000000E+00  0.99999998245E-14  0.12500000000E+03  0.12500000000E+03 0.  0.
        -11    1    1    0    0    0 -0.24505419556E+01  0.23280403365E+02  0.65651166600E+01  0.24312200512E+02  0.51100000000E-03 0. -1.
         11    1    1    0    0    0 -0.16503682170E+01  0.36752641410E+02  0.10284694207E+02  0.38200200275E+02  0.51100000000E-03 0.  1.
         22    1    1    0    0    0  0.41009101726E+01 -0.60033044775E+02 -0.16849810867E+02  0.62487599213E+02  0.00000000000E+00 0.  1.
</event>
<event>
 4    1  0.1976955E-002  0.9118800E+02  0.7818608E-02  0.1130116E+00
         25   -1    0    0    0    0  0.00000000000E+00  0.00000000000E+00  0.99999998245E-14  0.12500000000E+03  0.12500000000E+03 0.  0.
        -11    1    1    0    0    0 -0.22450808948E+02  0.31248802706E+02 -0.36327158140E+02  0.52916811239E+02  0.51100000000E-03 0.  1.
         11    1    1    0    0    0 -0.97618862692E+01  0.37252553736E+01 -0.24449375890E+01  0.10730781482E+02  0.51100000000E-03 0. -1.
         22    1    1    0    0    0  0.32212695217E+02 -0.34974058080E+02  0.38772095729E+02  0.61352407279E+02  0.00000000000E+00 0. -1.
</event>
<event>
 4    1  0.1976955E-002  0.9118800E+02  0.7818608E-02  0.1130116E+00
         25   -1    0    0    0    0  0.00000000000E+00  0.00000000000E+00  0.99999998245E-14  0.12500000000E+03  0.12500000000E+03 0.  0.
        -11    1    1    0    0    0  0.78105352033E+01 -0.15004873667E+02  0.42539297657E+01  0.17442666443E+02  0.51100000000E-03 0.  1.
         11    1    1    0    0    0  0.19817259215E+02 -0.39143296568E+02  0.10264187760E+02  0.45058572765E+02  0.51100000000E-03 0. -1.
         22    1    1    0    0    0 -0.27627794418E+02  0.54148170234E+02 -0.14518117525E+02  0.62498760793E+02  0.00000000000E+00 0. -1.
</event>
<event>
 4    1  0.1976955E-002  0.9118800E+02  0.7818608E-02  0.1130116E+00
         25   -1    0    0    0    0  0.00000000000E+00  0.00000000000E+00  0.99999998245E-14  0.12500000000E+03  0.12500000000E+03 0.  0.
        -11    1    1    0    0    0 -0.25660708118E+02 -0.53076099199E+02 -0.39524281751E+00  0.58955071576E+02  0.51100000000E-03 0. -1.
         11    1    1    0    0    0 -0.11439100820E+01 -0.15432047783E+01 -0.46131135507E+01  0.49970819641E+01  0.51100000000E-03 0.  1.
         22    1    1    0    0    0  0.26804618201E+02  0.54619303978E+02  0.50083563682E+01  0.61047846460E+02  0.00000000000E+00 0. -1.
</event>
<event>
 4    1  0.1976955E-002  0.9118800E+02  0.7818608E-02  0.1130116E+00
         25   -1    0    0    0    0  0.00000000000E+00  0.00000000000E+00  0.99999998245E-14  0.12500000000E+03  0.12500000000E+03 0.  0.
        -11    1    1    0    0    0 -0.21066065210E+01 -0.24561316235E+02 -0.12543333999E+02  0.27659198729E+02  0.51100000000E-03 0. -1.
         11    1    1    0    0    0 -0.24101831976E+01 -0.30949454464E+02 -0.15818246609E+02  0.34840990811E+02  0.51100000000E-03 0.  1.
         22    1    1    0    0    0  0.45167897186E+01  0.55510770699E+02  0.28361580608E+02  0.62499810460E+02  0.00000000000E+00 0.  1.
</event>
<event>
 4    1  0.1976955E-002  0.9118800E+02  0.7818608E-02  0.1130116E+00
         25   -1    0    0    0    0  0.00000000000E+00  0.00000000000E+00  0.99999998245E-14  0.12500000000E+03  0.12500000000E+03 0.  0.
        -11    1    1    0    0    0 -0.66974499033E+01 -0.16554422828E+01  0.15692631708E+00  0.69007934680E+01  0.51100000000E-03 0.  1.
         11    1    1    0    0    0 -0.53901852055E+02 -0.13538363247E+02  0.16074029530E+01  0.55599286676E+02  0.51100000000E-03 0. -1.
         22    1    1    0    0    0  0.60599301958E+02  0.15193805530E+02 -0.17643292701E+01  0.62499919856E+02  0.00000000000E+00 0. -1.
</event>
<event>
 4    1  0.1976955E-002  0.9118800E+02  0.7818608E-02  0.1130116E+00
         25   -1    0    0    0    0  0.00000000000E+00  0.00000000000E+00  0.99999998245E-14  0.12500000000E+03  0.12500000000E+03 0.  0.
        -11    1    1    0    0    0 -0.96262106872E+01 -0.24872138047E+02 -0.97366969663E+01  0.28391732094E+02  0.51100000000E-03 0.  1.
         11    1    1    0    0    0 -0.11502869845E+02 -0.29898490236E+02 -0.11710644105E+02  0.34108282259E+02  0.51100000000E-03 0. -1.
         22    1    1    0    0    0  0.21129080532E+02  0.54770628284E+02  0.21447341072E+02  0.62499985646E+02  0.00000000000E+00 0. -1.
</event>
<event>
 4    1  0.1976955E-002  0.9118800E+02  0.7818608E-02  0.1130116E+00
         25   -1    0    0    0    0  0.00000000000E+00  0.00000000000E+00  0.99999998245E-14  0.12500000000E+03  0.12500000000E+03 0.  0.
        -11    1    1    0    0    0 -0.74277802309E+01  0.44266065611E+02 -0.10101144688E+01  0.44896289550E+02  0.51100000000E-03 0. -1.
         11    1    1    0    0    0 -0.29192095204E+01  0.17355038061E+02 -0.41427994988E+00  0.17603714337E+02  0.51100000000E-03 0.  1.
         22    1    1    0    0    0  0.10346989751E+02 -0.61621103672E+02  0.14243944187E+01  0.62499996113E+02  0.00000000000E+00 0.  1.
</event>
<event>
 4    1  0.1976955E-002  0.9118800E+02  0.7818608E-02  0.1130116E+00
         25   -1    0    0    0    0  0.00000000000E+00  0.00000000000E+00  0.99999998245E-14  0.12500000000E+03  0.12500000000E+03 0.  0.
        -11    1    1    0    0    0  0.30949644204E+00  0.32003165397E+02  0.52383401187E+02  0.61386636197E+02  0.51100000000E-03 0. -1.
         11    1    1    0    0    0  0.94821031061E-02  0.57846493666E+00  0.95125032442E+00  0.11133683281E+01  0.51100000000E-03 0.  1.
         22    1    1    0    0    0 -0.31897854515E+00 -0.32581630334E+02 -0.53334651511E+02  0.62499995475E+02  0.00000000000E+00 0. -1.
</event>
<event>
 4    1  0.1976955E-002  0.9118800E+02  0.7818608E-02  0.1130116E+00
         25   -1    0    0    0    0  0.00000000000E+00  0.00000000000E+00  0.99999998245E-14  0.12500000000E+03  0.12500000000E+03 0.  0.
        -11    1    1    0    0    0  0.13534864511E+02 -0.19019978969E+02 -0.10825734415E+02  0.25732249866E+02  0.51100000000E-03 0.  1.
         11    1    1    0    0    0  0.19528186322E+02 -0.27006415166E+02 -0.15530132936E+02  0.36767941884E+02  0.51100000000E-03 0. -1.
         22    1    1    0    0    0 -0.33063050833E+02  0.46026394134E+02  0.26355867351E+02  0.62499808249E+02  0.00000000000E+00 0. -1.
</event>
<event>
 4    1  0.1976955E-002  0.9118800E+02  0.7818608E-02  0.1130116E+00
         25   -1    0    0    0    0  0.00000000000E+00  0.00000000000E+00  0.99999998245E-14  0.12500000000E+03  0.12500000000E+03 0.  0.
        -11    1    1    0    0    0 -0.16644533386E+01 -0.44157758831E+02  0.23853512678E+02  0.50216213888E+02  0.51100000000E-03 0.  1.
         11    1    1    0    0    0 -0.40597841643E+00 -0.10803385592E+02  0.58321048843E+01  0.12283786320E+02  0.51100000000E-03 0. -1.
         22    1    1    0    0    0  0.20704317551E+01  0.54961144423E+02 -0.29685617562E+02  0.62499999792E+02  0.00000000000E+00 0.  1.
</event>
<event>
 4    1  0.1976955E-002  0.9118800E+02  0.7818608E-02  0.1130116E+00
         25   -1    0    0    0    0  0.00000000000E+00  0.00000000000E+00  0.99999998245E-14  0.12500000000E+03  0.12500000000E+03 0.  0.
        -11    1    1    0    0    0 -0.43192580459E+01  0.10942376097E+01 -0.89879688992E+01  0.10031796011E+02  0.51100000000E-03 0. -1.
         11    1    1    0    0    0 -0.22443277689E+02  0.55364202006E+01 -0.47101645372E+02  0.52468253821E+02  0.51100000000E-03 0.  1.
         22    1    1    0    0    0  0.26762535735E+02 -0.66306578103E+01  0.56089614271E+02  0.62499950168E+02  0.00000000000E+00 0.  1.
</event>
<event>
 4    1  0.1976955E-002  0.9118800E+02  0.7818608E-02  0.1130116E+00
         25   -1    0    0    0    0  0.00000000000E+00  0.00000000000E+00  0.99999998245E-14  0.12500000000E+03  0.12500000000E+03 0.  0.
        -11    1    1    0    0    0 -0.66576202407E+01  0.31869473239E+02  0.45643607355E+02  0.56065373667E+02  0.51100000000E-03 0. -1.
         11    1    1    0    0    0 -0.66647973303E+00  0.36513819610E+01  0.52566214524E+01  0.64349712365E+01  0.51100000000E-03 0.  1.
         22    1    1    0    0    0  0.73240999737E+01 -0.35520855200E+02 -0.50900228807E+02  0.62499655097E+02  0.00000000000E+00 0. -1.
</event>
<event>
 4    1  0.1976955E-002  0.9118800E+02  0.7818608E-02  0.1130116E+00
         25   -1    0    0    0    0  0.00000000000E+00  0.00000000000E+00  0.99999998245E-14  0.12500000000E+03  0.12500000000E+03 0.  0.
        -11    1    1    0    0    0 -0.11277116746E+02 -0.52037731510E+01 -0.90276728043E+01  0.15354201172E+02  0.51100000000E-03 0. -1.
         11    1    1    0    0    0 -0.34620174193E+02 -0.16015019542E+02 -0.27707205293E+02  0.47145800847E+02  0.51100000000E-03 0.  1.
         22    1    1    0    0    0  0.45897290939E+02  0.21218792693E+02  0.36734878097E+02  0.62499997981E+02  0.00000000000E+00 0. -1.
</event>
<event>
 4    1  0.1976955E-002  0.9118800E+02  0.7818608E-02  0.1130116E+00
         25   -1    0    0    0    0  0.00000000000E+00  0.00000000000E+00  0.99999998245E-14  0.12500000000E+03  0.12500000000E+03 0.  0.
        -11    1    1    0    0    0 -0.18805673055E+02 -0.15314631098E+02 -0.70907703509E+00  0.24263018263E+02  0.51100000000E-03 0. -1.
         11    1    1    0    0    0 -0.29724941138E+02 -0.24018035989E+02 -0.12797953321E+01  0.38237103117E+02  0.51100000000E-03 0.  1.
         22    1    1    0    0    0  0.48530614193E+02  0.39332667087E+02  0.19888723671E+01  0.62499878620E+02  0.00000000000E+00 0.  1.
</event>
<event>
 4    1  0.1976955E-002  0.9118800E+02  0.7818608E-02  0.1130116E+00
         25   -1    0    0    0    0  0.00000000000E+00  0.00000000000E+00  0.99999998245E-14  0.12500000000E+03  0.12500000000E+03 0.  0.
        -11    1    1    0    0    0 -0.35840347720E+02 -0.65131457394E+01 -0.24015334107E+02  0.43631271637E+02  0.51100000000E-03 0. -1.
         11    1    1    0    0    0 -0.15228491869E+02 -0.29703488838E+01 -0.10741369565E+02  0.18870796419E+02  0.51100000000E-03 0.  1.
         22    1    1    0    0    0  0.51068839589E+02  0.94834946231E+01  0.34756703672E+02  0.62497931944E+02  0.00000000000E+00 0. -1.
</event>
<event>
 4    1  0.1976955E-002  0.9118800E+02  0.7818608E-02  0.1130116E+00
         25   -1    0    0    0    0  0.00000000000E+00  0.00000000000E+00  0.99999998245E-14  0.12500000000E+03  0.12500000000E+03 0.  0.
        -11    1    1    0    0    0 -0.25450037591E+02 -0.67430866954E+01 -0.10443691017E+02  0.28323917700E+02  0.51100000000E-03 0.  1.
         11    1    1    0    0    0 -0.30708973512E+02 -0.81352791308E+01 -0.12600824620E+02  0.34176082310E+02  0.51100000000E-03 0.  1.
         22    1    1    0    0    0  0.56159011103E+02  0.14878365826E+02  0.23044515637E+02  0.62499999990E+02  0.00000000000E+00 0.  1.
</event>
<event>
 4    1  0.1976955E-002  0.9118800E+02  0.7818608E-02  0.1130116E+00
         25   -1    0    0    0    0  0.00000000000E+00  0.00000000000E+00  0.99999998245E-14  0.12500000000E+03  0.12500000000E+03 0.  0.
        -11    1    1    0    0    0  0.26489524927E+01  0.16501741976E+02 -0.93233473729E+01  0.19137639459E+02  0.51100000000E-03 0.  1.
         11    1    1    0    0    0 -0.80277514458E+01  0.37931522347E+02 -0.20185838876E+02  0.43711706352E+02  0.51100000000E-03 0. -1.
         22    1    1    0    0    0  0.53787989531E+01 -0.54433264323E+02  0.29509186249E+02  0.62150654189E+02  0.00000000000E+00 0. -1.
</event>
<event>
 4    1  0.1976955E-002  0.9118800E+02  0.7818608E-02  0.1130116E+00
         25   -1    0    0    0    0  0.00000000000E+00  0.00000000000E+00  0.99999998245E-14  0.12500000000E+03  0.12500000000E+03 0.  0.
        -11    1    1    0    0    0 -0.33430648440E+02 -0.43285439672E+02  0.90632434940E+01  0.55438072888E+02  0.51100000000E-03 0. -1.
         11    1    1    0    0    0 -0.42536132034E+01 -0.55171991419E+01  0.11567716512E+01  0.70619283889E+01  0.51100000000E-03 0.  1.
         22    1    1    0    0    0  0.37684261644E+02  0.48802638813E+02 -0.10220015145E+02  0.62499998723E+02  0.00000000000E+00 0. -1.
</event>
<event>
 4    1  0.1976955E-002  0.9118800E+02  0.7818608E-02  0.1130116E+00
         25   -1    0    0    0    0  0.00000000000E+00  0.00000000000E+00  0.99999998245E-14  0.12500000000E+03  0.12500000000E+03 0.  0.
        -11    1    1    0    0    0  0.25432351622E+01  0.55307446950E+01  0.61710955706E+01  0.86683102606E+01  0.51100000000E-03 0.  1.
         11    1    1    0    0    0  0.26938821659E+02  0.27474510683E+02  0.37805034367E+02  0.53942279090E+02  0.51100000000E-03 0. -1.
         22    1    1    0    0    0 -0.29482056821E+02 -0.33005255378E+02 -0.43976129937E+02  0.62389410650E+02  0.00000000000E+00 0. -1.
</event>
<event>
 4    1  0.1976955E-002  0.9118800E+02  0.7818608E-02  0.1130116E+00
         25   -1    0    0    0    0  0.00000000000E+00  0.00000000000E+00  0.99999998245E-14  0.12500000000E+03  0.12500000000E+03 0.  0.
        -11    1    1    0    0    0  0.41893470518E+02  0.11172092841E+02  0.40877132218E+02  0.59588744484E+02  0.51100000000E-03 0. -1.
         11    1    1    0    0    0 -0.36633345012E+01  0.70295244223E+01 -0.26273891474E+01  0.83508926028E+01  0.51100000000E-03 0.  1.
         22    1    1    0    0    0 -0.38230136017E+02 -0.18201617263E+02 -0.38249743071E+02  0.57060362914E+02  0.00000000000E+00 0. -1.
</event>
<event>
 4    1  0.1976955E-002  0.9118800E+02  0.7818608E-02  0.1130116E+00
         25   -1    0    0    0    0  0.00000000000E+00  0.00000000000E+00  0.99999998245E-14  0.12500000000E+03  0.12500000000E+03 0.  0.
        -11    1    1    0    0    0 -0.23345022593E+02 -0.25058939203E+02  0.20858257900E+01  0.34311677070E+02  0.51100000000E-03 0. -1.
         11    1    1    0    0    0 -0.19208321673E+02 -0.20557723543E+02  0.17327734846E+01  0.28188333100E+02  0.51100000000E-03 0.  1.
         22    1    1    0    0    0  0.42553344266E+02  0.45616662746E+02 -0.38185992746E+01  0.62499989830E+02  0.00000000000E+00 0.  1.
</event>
<event>
 4    1  0.1976955E-002  0.9118800E+02  0.7818608E-02  0.1130116E+00
         25   -1    0    0    0    0  0.00000000000E+00  0.00000000000E+00  0.99999998245E-14  0.12500000000E+03  0.12500000000E+03 0.  0.
        -11    1    1    0    0    0 -0.34105040976E+02  0.26401400063E+02  0.20340688161E+02  0.47685756159E+02  0.51100000000E-03 0. -1.
         11    1    1    0    0    0 -0.10649612636E+02  0.82189907037E+01  0.62049956749E+01  0.14814453384E+02  0.51100000000E-03 0.  1.
         22    1    1    0    0    0  0.44754653612E+02 -0.34620390767E+02 -0.26545683836E+02  0.62499790457E+02  0.00000000000E+00 0. -1.
</event>
<event>
 4    1  0.1976955E-002  0.9118800E+02  0.7818608E-02  0.1130116E+00
         25   -1    0    0    0    0  0.00000000000E+00  0.00000000000E+00  0.99999998245E-14  0.12500000000E+03  0.12500000000E+03 0.  0.
        -11    1    1    0    0    0  0.40659288200E+01 -0.51711630423E+02  0.76016183227E+01  0.52425271574E+02  0.51100000000E-03 0. -1.
         11    1    1    0    0    0  0.77945366265E+00 -0.99383776405E+01  0.14564561175E+01  0.10074728920E+02  0.51100000000E-03 0.  1.
         22    1    1    0    0    0 -0.48453824826E+01  0.61650008064E+02 -0.90580744403E+01  0.62499999506E+02  0.00000000000E+00 0. -1.
</event>
<event>
 4    1  0.1976955E-002  0.9118800E+02  0.7818608E-02  0.1130116E+00
         25   -1    0    0    0    0  0.00000000000E+00  0.00000000000E+00  0.99999998245E-14  0.12500000000E+03  0.12500000000E+03 0.  0.
        -11    1    1    0    0    0 -0.30471950576E+01 -0.23316638854E+01  0.15007014263E+01  0.41199707797E+01  0.51100000000E-03 0.  1.
         11    1    1    0    0    0 -0.41828728170E+02 -0.37246250539E+02  0.16513319968E+02  0.58391912250E+02  0.51100000000E-03 0. -1.
         22    1    1    0    0    0  0.44875923228E+02  0.39577914425E+02 -0.18014021394E+02  0.62488116971E+02  0.00000000000E+00 0. -1.
</event>
<event>
 4    1  0.1976955E-002  0.9118800E+02  0.7818608E-02  0.1130116E+00
         25   -1    0    0    0    0  0.00000000000E+00  0.00000000000E+00  0.99999998245E-14  0.12500000000E+03  0.12500000000E+03 0.  0.
        -11    1    1    0    0    0 -0.36642113463E+02 -0.37004736725E+01  0.44329602226E+02  0.57632036388E+02  0.51100000000E-03 0. -1.
         11    1    1    0    0    0 -0.27984383927E+01  0.14926100641E+00  0.40016379880E+01  0.48853498477E+01  0.51100000000E-03 0.  1.
         22    1    1    0    0    0  0.39440551856E+02  0.35512126661E+01 -0.48331240214E+02  0.62482613764E+02  0.00000000000E+00 0. -1.
</event>
<event>
 4    1  0.1976955E-002  0.9118800E+02  0.7818608E-02  0.1130116E+00
         25   -1    0    0    0    0  0.00000000000E+00  0.00000000000E+00  0.99999998245E-14  0.12500000000E+03  0.12500000000E+03 0.  0.
        -11    1    1    0    0    0  0.18403822388E+00  0.71557841887E-01 -0.35884615825E-01  0.20069519018E+00  0.51100000000E-03 0. -1.
         11    1    1    0    0    0  0.55935070564E+02  0.24160243074E+02 -0.12991067639E+02  0.62299416555E+02  0.51100000000E-03 0.  1.
         22    1    1    0    0    0 -0.56119108788E+02 -0.24231800916E+02  0.13026952254E+02  0.62499888255E+02  0.00000000000E+00 0.  1.
</event>
<event>
 4    1  0.1976955E-002  0.9118800E+02  0.7818608E-02  0.1130116E+00
         25   -1    0    0    0    0  0.00000000000E+00  0.00000000000E+00  0.99999998245E-14  0.12500000000E+03  0.12500000000E+03 0.  0.
        -11    1    1    0    0    0 -0.22813839072E+02 -0.59381151968E+01 -0.21161806926E+02  0.31678928926E+02  0.51100000000E-03 0. -1.
         11    1    1    0    0    0 -0.22195383466E+02 -0.57809760312E+01 -0.20588435944E+02  0.30821071136E+02  0.51100000000E-03 0.  1.
         22    1    1    0    0    0  0.45009222537E+02  0.11719091228E+02  0.41750242870E+02  0.62499999938E+02  0.00000000000E+00 0.  1.
</event>
<event>
 4    1  0.1976955E-002  0.9118800E+02  0.7818608E-02  0.1130116E+00
         25   -1    0    0    0    0  0.00000000000E+00  0.00000000000E+00  0.99999998245E-14  0.12500000000E+03  0.12500000000E+03 0.  0.
        -11    1    1    0    0    0  0.37538021733E+02  0.34626401540E+02 -0.31043605462E+02  0.59764506185E+02  0.51100000000E-03 0. -1.
         11    1    1    0    0    0  0.17277968739E+01  0.15788047202E+01 -0.14160132246E+01  0.27355072831E+01  0.51100000000E-03 0.  1.
         22    1    1    0    0    0 -0.39265818607E+02 -0.36205206260E+02  0.32459618686E+02  0.62499986532E+02  0.00000000000E+00 0. -1.
</event>
<event>
 4    1  0.1976955E-002  0.9118800E+02  0.7818608E-02  0.1130116E+00
         25   -1    0    0    0    0  0.00000000000E+00  0.00000000000E+00  0.99999998245E-14  0.12500000000E+03  0.12500000000E+03 0.  0.
        -11    1    1    0    0    0 -0.11919021627E+01  0.18974502271E+01  0.20208708182E+01  0.30174272575E+01  0.51100000000E-03 0. -1.
         11    1    1    0    0    0  0.14521706631E+02  0.52343261563E+02  0.25161443363E+02  0.59864807917E+02  0.51100000000E-03 0.  1.
         22    1    1    0    0    0 -0.13329804468E+02 -0.54240711790E+02 -0.27182314181E+02  0.62117764826E+02  0.00000000000E+00 0.  1.
</event>
<event>
 4    1  0.1976955E-002  0.9118800E+02  0.7818608E-02  0.1130116E+00
         25   -1    0    0    0    0  0.00000000000E+00  0.00000000000E+00  0.99999998245E-14  0.12500000000E+03  0.12500000000E+03 0.  0.
        -11    1    1    0    0    0 -0.31565978425E+02 -0.57740437685E+01 -0.40508932564E+02  0.51679049847E+02  0.51100000000E-03 0.  1.
         11    1    1    0    0    0 -0.66059671602E+01 -0.12149836278E+01 -0.84839846925E+01  0.10820951153E+02  0.51100000000E-03 0. -1.
         22    1    1    0    0    0  0.38171945585E+02  0.69890273963E+01  0.48992917256E+02  0.62499999000E+02  0.00000000000E+00 0.  1.
</event>
<event>
 4    1  0.1976955E-002  0.9118800E+02  0.7818608E-02  0.1130116E+00
         25   -1    0    0    0    0  0.00000000000E+00  0.00000000000E+00  0.99999998245E-14  0.12500000000E+03  0.12500000000E+03 0.  0.
        -11    1    1    0    0    0 -0.17221285074E+01  0.19670715249E+02  0.10053833459E+02  0.22158121141E+02  0.51100000000E-03 0.  1.
         11    1    1    0    0    0 -0.31326892100E+01  0.35817513522E+02  0.18296425583E+02  0.40341879059E+02  0.51100000000E-03 0. -1.
         22    1    1    0    0    0  0.48548177174E+01 -0.55488228772E+02 -0.28350259042E+02  0.62499999800E+02  0.00000000000E+00 0. -1.
</event>
<event>
 4    1  0.1976955E-002  0.9118800E+02  0.7818608E-02  0.1130116E+00
         25   -1    0    0    0    0  0.00000000000E+00  0.00000000000E+00  0.99999998245E-14  0.12500000000E+03  0.12500000000E+03 0.  0.
        -11    1    1    0    0    0  0.16728072736E+02  0.10494734855E+02 -0.39318250902E+02  0.43998781022E+02  0.51100000000E-03 0. -1.
         11    1    1    0    0    0  0.70240636305E+01  0.44072879886E+01 -0.16538848343E+02  0.18501220556E+02  0.51100000000E-03 0.  1.
         22    1    1    0    0    0 -0.23752136366E+02 -0.14902022844E+02  0.55857099245E+02  0.62499998422E+02  0.00000000000E+00 0. -1.
</event>
<event>
 4    1  0.1976955E-002  0.9118800E+02  0.7818608E-02  0.1130116E+00
         25   -1    0    0    0    0  0.00000000000E+00  0.00000000000E+00  0.99999998245E-14  0.12500000000E+03  0.12500000000E+03 0.  0.
        -11    1    1    0    0    0 -0.41501681708E+02  0.31294331084E+02  0.31850186589E+02  0.60960307813E+02  0.51100000000E-03 0. -1.
         11    1    1    0    0    0  0.55948251741E+01  0.19599452295E+01 -0.56668937993E+00  0.59552154576E+01  0.51100000000E-03 0.  1.
         22    1    1    0    0    0  0.35906856534E+02 -0.33254276314E+02 -0.31283497210E+02  0.58084476730E+02  0.00000000000E+00 0. -1.
</event>
<event>
 4    1  0.1976955E-002  0.9118800E+02  0.7818608E-02  0.1130116E+00
         25   -1    0    0    0    0  0.00000000000E+00  0.00000000000E+00  0.99999998245E-14  0.12500000000E+03  0.12500000000E+03 0.  0.
        -11    1    1    0    0    0  0.35434655603E+01  0.13684474449E+00 -0.50068064655E+01  0.61353879996E+01  0.51100000000E-03 0.  1.
         11    1    1    0    0    0  0.34933120211E+02 -0.21782484643E+01 -0.44191844045E+02  0.56373635101E+02  0.51100000000E-03 0. -1.
         22    1    1    0    0    0 -0.38476585772E+02  0.20414037198E+01  0.49198650511E+02  0.62490976900E+02  0.00000000000E+00 0. -1.
</event>
<event>
 4    1  0.1976955E-002  0.9118800E+02  0.7818608E-02  0.1130116E+00
         25   -1    0    0    0    0  0.00000000000E+00  0.00000000000E+00  0.99999998245E-14  0.12500000000E+03  0.12500000000E+03 0.  0.
        -11    1    1    0    0    0 -0.41329596490E+02 -0.48807112396E+01  0.30057190103E+02  0.51336064958E+02  0.51100000000E-03 0. -1.
         11    1    1    0    0    0 -0.89778025951E+01 -0.16617292867E+01  0.64360997156E+01  0.11170750354E+02  0.51100000000E-03 0.  1.
         22    1    1    0    0    0  0.50307399085E+02  0.65424405264E+01 -0.36493289819E+02  0.62493184688E+02  0.00000000000E+00 0. -1.
</event>
<event>
 4    1  0.1976955E-002  0.9118800E+02  0.7818608E-02  0.1130116E+00
         25   -1    0    0    0    0  0.00000000000E+00  0.00000000000E+00  0.99999998245E-14  0.12500000000E+03  0.12500000000E+03 0.  0.
        -11    1    1    0    0    0  0.62601002391E+00 -0.57646137888E+01 -0.47492922650E+01  0.74952276793E+01  0.51100000000E-03 0.  1.
         11    1    1    0    0    0  0.42779604832E+01 -0.42183372476E+02 -0.35039921189E+02  0.55004853754E+02  0.51100000000E-03 0. -1.
         22    1    1    0    0    0 -0.49039705071E+01  0.47947986265E+02  0.39789213454E+02  0.62499918567E+02  0.00000000000E+00 0. -1.
</event>
<event>
 4    1  0.1976955E-002  0.9118800E+02  0.7818608E-02  0.1130116E+00
         25   -1    0    0    0    0  0.00000000000E+00  0.00000000000E+00  0.99999998245E-14  0.12500000000E+03  0.12500000000E+03 0.  0.
        -11    1    1    0    0    0  0.92604102101E+00  0.16944535364E+00 -0.44820258967E+01  0.45798275186E+01  0.51100000000E-03 0. -1.
         11    1    1    0    0    0  0.11563020565E+02  0.20850147027E+01 -0.56715929157E+02  0.57920180864E+02  0.51100000000E-03 0.  1.
         22    1    1    0    0    0 -0.12489061586E+02 -0.22544600564E+01  0.61197955054E+02  0.62499991618E+02  0.00000000000E+00 0.  1.
</event>
<event>
 4    1  0.1976955E-002  0.9118800E+02  0.7818608E-02  0.1130116E+00
         25   -1    0    0    0    0  0.00000000000E+00  0.00000000000E+00  0.99999998245E-14  0.12500000000E+03  0.12500000000E+03 0.  0.
        -11    1    1    0    0    0  0.16014403142E+02 -0.52685051120E+02  0.28468029893E+02  0.61988744508E+02  0.51100000000E-03 0. -1.
         11    1    1    0    0    0  0.49789280684E-01 -0.39380740339E+00  0.33639183478E+00  0.52031045642E+00  0.51100000000E-03 0.  1.
         22    1    1    0    0    0 -0.16064192423E+02  0.53078858523E+02 -0.28804421728E+02  0.62490945035E+02  0.00000000000E+00 0. -1.
</event>
<event>
 4    1  0.1976955E-002  0.9118800E+02  0.7818608E-02  0.1130116E+00
         25   -1    0    0    0    0  0.00000000000E+00  0.00000000000E+00  0.99999998245E-14  0.12500000000E+03  0.12500000000E+03 0.  0.
        -11    1    1    0    0    0  0.30663252472E+02  0.21185030443E+02  0.26488945282E+02  0.45724225411E+02  0.51100000000E-03 0.  1.
         11    1    1    0    0    0  0.11066827535E+02  0.73070921292E+01  0.10284308456E+02  0.16781992365E+02  0.51100000000E-03 0. -1.
         22    1    1    0    0    0 -0.41730080007E+02 -0.28492122572E+02 -0.36773253738E+02  0.62493782223E+02  0.00000000000E+00 0.  1.
</event>
<event>
 4    1  0.1976955E-002  0.9118800E+02  0.7818608E-02  0.1130116E+00
         25   -1    0    0    0    0  0.00000000000E+00  0.00000000000E+00  0.99999998245E-14  0.12500000000E+03  0.12500000000E+03 0.  0.
        -11    1    1    0    0    0  0.12095296556E+02  0.87724376501E+01 -0.16712279674E+02  0.22417675019E+02  0.51100000000E-03 0.  1.
         11    1    1    0    0    0  0.21626077513E+02  0.15686569887E+02 -0.29880379401E+02  0.40082324993E+02  0.51100000000E-03 0. -1.
         22    1    1    0    0    0 -0.33721374069E+02 -0.24459007537E+02  0.46592659075E+02  0.62499999988E+02  0.00000000000E+00 0. -1.
</event>
<event>
 4    1  0.1976955E-002  0.9118800E+02  0.7818608E-02  0.1130116E+00
         25   -1    0    0    0    0  0.00000000000E+00  0.00000000000E+00  0.99999998245E-14  0.12500000000E+03  0.12500000000E+03 0.  0.
        -11    1    1    0    0    0 -0.68337334675E+01  0.86412104613E+01 -0.53003226713E+02  0.54136055209E+02  0.51100000000E-03 0.  1.
         11    1    1    0    0    0 -0.10546747835E+01  0.13335924887E+01 -0.81893080342E+01  0.83639448925E+01  0.51100000000E-03 0.  1.
         22    1    1    0    0    0  0.78884082510E+01 -0.99748029501E+01  0.61192534747E+02  0.62499999899E+02  0.00000000000E+00 0.  1.
</event>
<event>
 4    1  0.1976955E-002  0.9118800E+02  0.7818608E-02  0.1130116E+00
         25   -1    0    0    0    0  0.00000000000E+00  0.00000000000E+00  0.99999998245E-14  0.12500000000E+03  0.12500000000E+03 0.  0.
        -11    1    1    0    0    0 -0.15669864411E+02 -0.42940502123E+01 -0.83572474157E+01  0.18270936005E+02  0.51100000000E-03 0. -1.
         11    1    1    0    0    0 -0.37930136505E+02 -0.10397125549E+02 -0.20233996895E+02  0.44229064037E+02  0.51100000000E-03 0.  1.
         22    1    1    0    0    0  0.53600000916E+02  0.14691175761E+02  0.28591244311E+02  0.62499999958E+02  0.00000000000E+00 0.  1.
</event>
<event>
 4    1  0.1976955E-002  0.9118800E+02  0.7818608E-02  0.1130116E+00
         25   -1    0    0    0    0  0.00000000000E+00  0.00000000000E+00  0.99999998245E-14  0.12500000000E+03  0.12500000000E+03 0.  0.
        -11    1    1    0    0    0  0.40504841611E+02  0.36795693236E+02 -0.30747899452E+01  0.54808936937E+02  0.51100000000E-03 0.  1.
         11    1    1    0    0    0  0.56769180012E+01  0.51701533585E+01 -0.44119146459E+00  0.76910684506E+01  0.51100000000E-03 0. -1.
         22    1    1    0    0    0 -0.46181759613E+02 -0.41965846594E+02  0.35159814098E+01  0.62499994613E+02  0.00000000000E+00 0.  1.
</event>
<event>
 4    1  0.1976955E-002  0.9118800E+02  0.7818608E-02  0.1130116E+00
         25   -1    0    0    0    0  0.00000000000E+00  0.00000000000E+00  0.99999998245E-14  0.12500000000E+03  0.12500000000E+03 0.  0.
        -11    1    1    0    0    0 -0.31834798673E+02 -0.34707649959E+01 -0.49788867488E+02  0.59198242729E+02  0.51100000000E-03 0. -1.
         11    1    1    0    0    0 -0.17758604808E+01 -0.19351847384E+00 -0.27767735161E+01  0.33017573000E+01  0.51100000000E-03 0. -1.
         22    1    1    0    0    0  0.33610659154E+02  0.36642834698E+01  0.52565641005E+02  0.62499999971E+02  0.00000000000E+00 0. -1.
</event>
<event>
 4    1  0.1976955E-002  0.9118800E+02  0.7818608E-02  0.1130116E+00
         25   -1    0    0    0    0  0.00000000000E+00  0.00000000000E+00  0.99999998245E-14  0.12500000000E+03  0.12500000000E+03 0.  0.
        -11    1    1    0    0    0  0.37080496162E+02  0.31357057799E+02  0.35705619913E+02  0.60275364479E+02  0.51100000000E-03 0.  1.
         11    1    1    0    0    0  0.13675522383E+01  0.11576986536E+01  0.13185365330E+01  0.22246357336E+01  0.51100000000E-03 0. -1.
         22    1    1    0    0    0 -0.38448048400E+02 -0.32514756453E+02 -0.37024156446E+02  0.62499999788E+02  0.00000000000E+00 0.  1.
</event>
<event>
 4    1  0.1976955E-002  0.9118800E+02  0.7818608E-02  0.1130116E+00
         25   -1    0    0    0    0  0.00000000000E+00  0.00000000000E+00  0.99999998245E-14  0.12500000000E+03  0.12500000000E+03 0.  0.
        -11    1    1    0    0    0  0.10725044675E+02 -0.11769233303E+02 -0.49032336272E+01  0.16660826392E+02  0.51100000000E-03 0. -1.
         11    1    1    0    0    0  0.28139193031E+02 -0.33223328416E+02 -0.14355142811E+02  0.45844016631E+02  0.51100000000E-03 0.  1.
         22    1    1    0    0    0 -0.38864237705E+02  0.44992561720E+02  0.19258376438E+02  0.62495156977E+02  0.00000000000E+00 0.  1.
</event>
<event>
 4    1  0.1976955E-002  0.9118800E+02  0.7818608E-02  0.1130116E+00
         25   -1    0    0    0    0  0.00000000000E+00  0.00000000000E+00  0.99999998245E-14  0.12500000000E+03  0.12500000000E+03 0.  0.
        -11    1    1    0    0    0 -0.46113540933E+02  0.25013127362E+01  0.34478843531E+01  0.46309859960E+02  0.51100000000E-03 0.  1.
         11    1    1    0    0    0 -0.16121355254E+02  0.87444991946E+00  0.12074262142E+01  0.16190140093E+02  0.51100000000E-03 0. -1.
         22    1    1    0    0    0  0.62234896187E+02 -0.33757626556E+01 -0.46553105674E+01  0.62499999947E+02  0.00000000000E+00 0. -1.
</event>
<event>
 4    1  0.1976955E-002  0.9118800E+02  0.7818608E-02  0.1130116E+00
         25   -1    0    0    0    0  0.00000000000E+00  0.00000000000E+00  0.99999998245E-14  0.12500000000E+03  0.12500000000E+03 0.  0.
        -11    1    1    0    0    0 -0.21709910330E+02  0.29682608894E+02 -0.23522835826E+02  0.43654338649E+02  0.51100000000E-03 0. -1.
         11    1    1    0    0    0 -0.88027886809E+01  0.13285093160E+02 -0.10068243544E+02  0.18850790889E+02  0.51100000000E-03 0.  1.
         22    1    1    0    0    0  0.30512699011E+02 -0.42967702054E+02  0.33591079370E+02  0.62494870462E+02  0.00000000000E+00 0. -1.
</event>
<event>
 4    1  0.1976955E-002  0.9118800E+02  0.7818608E-02  0.1130116E+00
         25   -1    0    0    0    0  0.00000000000E+00  0.00000000000E+00  0.99999998245E-14  0.12500000000E+03  0.12500000000E+03 0.  0.
        -11    1    1    0    0    0 -0.13749046073E+01 -0.38260749340E+01  0.93975104532E+01  0.10239258521E+02  0.51100000000E-03 0. -1.
         11    1    1    0    0    0 -0.14134177625E+02 -0.24547663357E+02  0.44003690609E+02  0.52332471191E+02  0.51100000000E-03 0.  1.
         22    1    1    0    0    0  0.15509082233E+02  0.28373738291E+02 -0.53401201062E+02  0.62428270288E+02  0.00000000000E+00 0.  1.
</event>
<event>
 4    1  0.1976955E-002  0.9118800E+02  0.7818608E-02  0.1130116E+00
         25   -1    0    0    0    0  0.00000000000E+00  0.00000000000E+00  0.99999998245E-14  0.12500000000E+03  0.12500000000E+03 0.  0.
        -11    1    1    0    0    0 -0.19642494593E+02  0.22050476192E+02 -0.12216071376E+02  0.31957526410E+02  0.51100000000E-03 0. -1.
         11    1    1    0    0    0 -0.18772629935E+02  0.21074187940E+02 -0.11675172846E+02  0.30542473594E+02  0.51100000000E-03 0. -1.
         22    1    1    0    0    0  0.38415124529E+02 -0.43124664131E+02  0.23891244222E+02  0.62499999996E+02  0.00000000000E+00 0. -1.
</event>
<event>
 4    1  0.1976955E-002  0.9118800E+02  0.7818608E-02  0.1130116E+00
         25   -1    0    0    0    0  0.00000000000E+00  0.00000000000E+00  0.99999998245E-14  0.12500000000E+03  0.12500000000E+03 0.  0.
        -11    1    1    0    0    0  0.26704882287E+02 -0.13279171030E+02  0.18156395488E+02  0.34916211401E+02  0.51100000000E-03 0. -1.
         11    1    1    0    0    0  0.24359178639E+02 -0.16013825202E+02 -0.30756044227E+01  0.29313333560E+02  0.51100000000E-03 0.  1.
         22    1    1    0    0    0 -0.51064060926E+02  0.29292996232E+02 -0.15080791066E+02  0.60770455039E+02  0.00000000000E+00 0.  1.
</event>
<event>
 4    1  0.1976955E-002  0.9118800E+02  0.7818608E-02  0.1130116E+00
         25   -1    0    0    0    0  0.00000000000E+00  0.00000000000E+00  0.99999998245E-14  0.12500000000E+03  0.12500000000E+03 0.  0.
        -11    1    1    0    0    0 -0.18573823448E+02 -0.18341777595E+02  0.43937882475E+02  0.51107193618E+02  0.51100000000E-03 0. -1.
         11    1    1    0    0    0 -0.51355191799E+01 -0.68671621776E+01  0.78372075942E+01  0.11616940077E+02  0.51100000000E-03 0.  1.
         22    1    1    0    0    0  0.23709342628E+02  0.25208939773E+02 -0.51775090069E+02  0.62275866305E+02  0.00000000000E+00 0. -1.
</event>
<event>
 4    1  0.1976955E-002  0.9118800E+02  0.7818608E-02  0.1130116E+00
         25   -1    0    0    0    0  0.00000000000E+00  0.00000000000E+00  0.99999998245E-14  0.12500000000E+03  0.12500000000E+03 0.  0.
        -11    1    1    0    0    0 -0.21542932215E+02  0.12924465466E+02  0.99324262942E+01  0.27014678017E+02  0.51100000000E-03 0.  1.
         11    1    1    0    0    0 -0.26351423584E+02  0.23340168142E+02  0.62885646358E+01  0.35759013119E+02  0.51100000000E-03 0. -1.
         22    1    1    0    0    0  0.47894355799E+02 -0.36264633608E+02 -0.16220990930E+02  0.62226308864E+02  0.00000000000E+00 0.  1.
</event>
<event>
 4    1  0.1976955E-002  0.9118800E+02  0.7818608E-02  0.1130116E+00
         25   -1    0    0    0    0  0.00000000000E+00  0.00000000000E+00  0.99999998245E-14  0.12500000000E+03  0.12500000000E+03 0.  0.
        -11    1    1    0    0    0 -0.28221017588E+02  0.74574029357E+00 -0.27083621013E+02  0.39121662666E+02  0.51100000000E-03 0. -1.
         11    1    1    0    0    0 -0.17632857365E+02 -0.15319414159E+01 -0.15327163943E+02  0.23413382031E+02  0.51100000000E-03 0.  1.
         22    1    1    0    0    0  0.45853874953E+02  0.78620112232E+00  0.42410784956E+02  0.62464955303E+02  0.00000000000E+00 0.  1.
</event>
<event>
 4    1  0.1976955E-002  0.9118800E+02  0.7818608E-02  0.1130116E+00
         25   -1    0    0    0    0  0.00000000000E+00  0.00000000000E+00  0.99999998245E-14  0.12500000000E+03  0.12500000000E+03 0.  0.
        -11    1    1    0    0    0 -0.41893744898E+02  0.33637325830E+02  0.59307292702E+01  0.54053021197E+02  0.51100000000E-03 0.  1.
         11    1    1    0    0    0 -0.51657177199E+01  0.64955989670E+01 -0.36224353560E+01  0.90553566286E+01  0.51100000000E-03 0. -1.
         22    1    1    0    0    0  0.47059462618E+02 -0.40132924797E+02 -0.23082939142E+01  0.61891622175E+02  0.00000000000E+00 0.  1.
</event>
<event>
 4    1  0.1976955E-002  0.9118800E+02  0.7818608E-02  0.1130116E+00
         25   -1    0    0    0    0  0.00000000000E+00  0.00000000000E+00  0.99999998245E-14  0.12500000000E+03  0.12500000000E+03 0.  0.
        -11    1    1    0    0    0  0.10695152232E+01  0.98158339315E+00 -0.24214087689E+01  0.28232232391E+01  0.51100000000E-03 0. -1.
         11    1    1    0    0    0  0.22821613334E+02  0.19492808972E+02 -0.51580638506E+02  0.59677113751E+02  0.51100000000E-03 0.  1.
         22    1    1    0    0    0 -0.23891128557E+02 -0.20474392366E+02  0.54002047274E+02  0.62499663010E+02  0.00000000000E+00 0.  1.
</event>
<event>
 4    1  0.1976955E-002  0.9118800E+02  0.7818608E-02  0.1130116E+00
         25   -1    0    0    0    0  0.00000000000E+00  0.00000000000E+00  0.99999998245E-14  0.12500000000E+03  0.12500000000E+03 0.  0.
        -11    1    1    0    0    0 -0.30839413575E+02  0.17700187939E+02 -0.43776667156E+02  0.56398250596E+02  0.51100000000E-03 0. -1.
         11    1    1    0    0    0 -0.33942851927E+01  0.19059442046E+01 -0.46989063029E+01  0.61019272353E+01  0.51100000000E-03 0.  1.
         22    1    1    0    0    0  0.34233698768E+02 -0.19606132144E+02  0.48475573459E+02  0.62499822169E+02  0.00000000000E+00 0. -1.
</event>
<event>
 4    1  0.1976955E-002  0.9118800E+02  0.7818608E-02  0.1130116E+00
         25   -1    0    0    0    0  0.00000000000E+00  0.00000000000E+00  0.99999998245E-14  0.12500000000E+03  0.12500000000E+03 0.  0.
        -11    1    1    0    0    0 -0.20345549430E+02  0.20260871745E+02 -0.63116325522E+01  0.29398656622E+02  0.51100000000E-03 0.  1.
         11    1    1    0    0    0 -0.21273364089E+02  0.23973478544E+02 -0.83501258865E+01  0.33121115557E+02  0.51100000000E-03 0. -1.
         22    1    1    0    0    0  0.41618913519E+02 -0.44234350289E+02  0.14661758439E+02  0.62480227820E+02  0.00000000000E+00 0. -1.
</event>
<event>
 4    1  0.1976955E-002  0.9118800E+02  0.7818608E-02  0.1130116E+00
         25   -1    0    0    0    0  0.00000000000E+00  0.00000000000E+00  0.99999998245E-14  0.12500000000E+03  0.12500000000E+03 0.  0.
        -11    1    1    0    0    0  0.56973533120E+02 -0.21562663746E+02  0.34268822662E+01  0.61013731785E+02  0.51100000000E-03 0. -1.
         11    1    1    0    0    0  0.13899298055E+01 -0.52035551858E+00  0.79620649666E-01  0.14862753577E+01  0.51100000000E-03 0.  1.
         22    1    1    0    0    0 -0.58363462925E+02  0.22083019265E+02 -0.35065029158E+01  0.62499992857E+02  0.00000000000E+00 0. -1.
</event>
<event>
 4    1  0.1976955E-002  0.9118800E+02  0.7818608E-02  0.1130116E+00
         25   -1    0    0    0    0  0.00000000000E+00  0.00000000000E+00  0.99999998245E-14  0.12500000000E+03  0.12500000000E+03 0.  0.
        -11    1    1    0    0    0 -0.18254657122E+02  0.63057544686E+00  0.58632010041E+01  0.19183515275E+02  0.51100000000E-03 0. -1.
         11    1    1    0    0    0 -0.28914467995E+02  0.99059904675E+01  0.32125570082E+02  0.44342162328E+02  0.51100000000E-03 0.  1.
         22    1    1    0    0    0  0.47169125117E+02 -0.10536565914E+02 -0.37988771086E+02  0.61474322397E+02  0.00000000000E+00 0.  1.
</event>
<event>
 4    1  0.1976955E-002  0.9118800E+02  0.7818608E-02  0.1130116E+00
         25   -1    0    0    0    0  0.00000000000E+00  0.00000000000E+00  0.99999998245E-14  0.12500000000E+03  0.12500000000E+03 0.  0.
        -11    1    1    0    0    0  0.87732350783E+00  0.46143263655E+00 -0.86785443052E+00  0.13174931458E+01  0.51100000000E-03 0.  1.
         11    1    1    0    0    0  0.40869233050E+02  0.21572048550E+02 -0.40095542153E+02  0.61182513756E+02  0.51100000000E-03 0. -1.
         22    1    1    0    0    0 -0.41746556558E+02 -0.22033481186E+02  0.40963396583E+02  0.62499993098E+02  0.00000000000E+00 0. -1.
</event>
<event>
 4    1  0.1976955E-002  0.9118800E+02  0.7818608E-02  0.1130116E+00
         25   -1    0    0    0    0  0.00000000000E+00  0.00000000000E+00  0.99999998245E-14  0.12500000000E+03  0.12500000000E+03 0.  0.
        -11    1    1    0    0    0 -0.25987491155E+02  0.46377371564E+02 -0.41580388373E+01  0.53324474465E+02  0.51100000000E-03 0.  1.
         11    1    1    0    0    0 -0.45132287307E+01  0.79427806122E+01 -0.86244971835E+00  0.91761003268E+01  0.51100000000E-03 0. -1.
         22    1    1    0    0    0  0.30500719886E+02 -0.54320152176E+02  0.50204885557E+01  0.62499425208E+02  0.00000000000E+00 0.  1.
</event>
<event>
 4    1  0.1976955E-002  0.9118800E+02  0.7818608E-02  0.1130116E+00
         25   -1    0    0    0    0  0.00000000000E+00  0.00000000000E+00  0.99999998245E-14  0.12500000000E+03  0.12500000000E+03 0.  0.
        -11    1    1    0    0    0  0.23429423143E+02  0.43761716830E+02 -0.27754284357E+02  0.56871135290E+02  0.51100000000E-03 0. -1.
         11    1    1    0    0    0  0.20835902161E+01  0.43880589516E+01 -0.28494120375E+01  0.56316568407E+01  0.51100000000E-03 0.  1.
         22    1    1    0    0    0 -0.25513013359E+02 -0.48149775782E+02  0.30603696394E+02  0.62497207869E+02  0.00000000000E+00 0. -1.
</event>
<event>
 4    1  0.1976955E-002  0.9118800E+02  0.7818608E-02  0.1130116E+00
         25   -1    0    0    0    0  0.00000000000E+00  0.00000000000E+00  0.99999998245E-14  0.12500000000E+03  0.12500000000E+03 0.  0.
        -11    1    1    0    0    0 -0.13589617189E+02 -0.39668161550E+02  0.25409393046E+02  0.49029358463E+02  0.51100000000E-03 0.  1.
         11    1    1    0    0    0 -0.37367497342E+01 -0.10894193053E+02  0.69865202631E+01  0.13470642394E+02  0.51100000000E-03 0. -1.
         22    1    1    0    0    0  0.17326366923E+02  0.50562354603E+02 -0.32395913309E+02  0.62499999143E+02  0.00000000000E+00 0.  1.
</event>
<event>
 4    1  0.1976955E-002  0.9118800E+02  0.7818608E-02  0.1130116E+00
         25   -1    0    0    0    0  0.00000000000E+00  0.00000000000E+00  0.99999998245E-14  0.12500000000E+03  0.12500000000E+03 0.  0.
        -11    1    1    0    0    0  0.15295471301E+02 -0.13503635034E+02 -0.19895060426E+02  0.28497596935E+02  0.51100000000E-03 0.  1.
         11    1    1    0    0    0  0.15474775568E+02 -0.70188396315E+01 -0.29949583858E+02  0.34434145295E+02  0.51100000000E-03 0. -1.
         22    1    1    0    0    0 -0.30770246869E+02  0.20522474665E+02  0.49844644285E+02  0.62068257770E+02  0.00000000000E+00 0. -1.
</event>
<event>
 4    1  0.1976955E-002  0.9118800E+02  0.7818608E-02  0.1130116E+00
         25   -1    0    0    0    0  0.00000000000E+00  0.00000000000E+00  0.99999998245E-14  0.12500000000E+03  0.12500000000E+03 0.  0.
        -11    1    1    0    0    0 -0.74090666825E+01 -0.10596527516E+02 -0.13988867078E+01  0.13005289262E+02  0.51100000000E-03 0. -1.
         11    1    1    0    0    0 -0.28546322008E+02 -0.39968550850E+02 -0.61188820939E+01  0.49495638955E+02  0.51100000000E-03 0.  1.
         22    1    1    0    0    0  0.35955388691E+02  0.50565078366E+02  0.75177688017E+01  0.62499071783E+02  0.00000000000E+00 0.  1.
</event>
<event>
 4    1  0.1976955E-002  0.9118800E+02  0.7818608E-02  0.1130116E+00
         25   -1    0    0    0    0  0.00000000000E+00  0.00000000000E+00  0.99999998245E-14  0.12500000000E+03  0.12500000000E+03 0.  0.
        -11    1    1    0    0    0  0.55834946155E+02 -0.21866861133E+02  0.14739283412E+02  0.61749067229E+02  0.51100000000E-03 0. -1.
         11    1    1    0    0    0  0.67595984587E+00 -0.27955459495E+00  0.17018904712E+00  0.75102400605E+00  0.51100000000E-03 0.  1.
         22    1    1    0    0    0 -0.56510906001E+02  0.22146415727E+02 -0.14909472459E+02  0.62499908765E+02  0.00000000000E+00 0. -1.
</event>
<event>
 4    1  0.1976955E-002  0.9118800E+02  0.7818608E-02  0.1130116E+00
         25   -1    0    0    0    0  0.00000000000E+00  0.00000000000E+00  0.99999998245E-14  0.12500000000E+03  0.12500000000E+03 0.  0.
        -11    1    1    0    0    0  0.23381355248E+02 -0.29792485017E+02  0.15103397149E+02  0.40772448325E+02  0.51100000000E-03 0.  1.
         11    1    1    0    0    0  0.15830689959E+02 -0.10283677289E+02  0.11566365329E+02  0.22139231476E+02  0.51100000000E-03 0. -1.
         22    1    1    0    0    0 -0.39212045207E+02  0.40076162306E+02 -0.26669762478E+02  0.62088320199E+02  0.00000000000E+00 0.  1.
</event>
<event>
 4    1  0.1976955E-002  0.9118800E+02  0.7818608E-02  0.1130116E+00
         25   -1    0    0    0    0  0.00000000000E+00  0.00000000000E+00  0.99999998245E-14  0.12500000000E+03  0.12500000000E+03 0.  0.
        -11    1    1    0    0    0 -0.73333258778E+01  0.79531750183E+01 -0.80752863114E+01  0.13499663350E+02  0.51100000000E-03 0.  1.
         11    1    1    0    0    0  0.47184017727E+02  0.25097076485E+02  0.22145430162E+02  0.57849933918E+02  0.51100000000E-03 0. -1.
         22    1    1    0    0    0 -0.39850691849E+02 -0.33050251504E+02 -0.14070143850E+02  0.53650402732E+02  0.00000000000E+00 0. -1.
</event>
<event>
 4    1  0.1976955E-002  0.9118800E+02  0.7818608E-02  0.1130116E+00
         25   -1    0    0    0    0  0.00000000000E+00  0.00000000000E+00  0.99999998245E-14  0.12500000000E+03  0.12500000000E+03 0.  0.
        -11    1    1    0    0    0 -0.82418053774E+01  0.75494131174E+01  0.92209211401E+01  0.14489526605E+02  0.51100000000E-03 0. -1.
         11    1    1    0    0    0 -0.27259580034E+02  0.25243484249E+02  0.30408816493E+02  0.48010564686E+02  0.51100000000E-03 0.  1.
         22    1    1    0    0    0  0.35501385411E+02 -0.32792897367E+02 -0.39629737634E+02  0.62499908710E+02  0.00000000000E+00 0.  1.
</event>
<event>
 4    1  0.1976955E-002  0.9118800E+02  0.7818608E-02  0.1130116E+00
         25   -1    0    0    0    0  0.00000000000E+00  0.00000000000E+00  0.99999998245E-14  0.12500000000E+03  0.12500000000E+03 0.  0.
        -11    1    1    0    0    0  0.10994940554E+02  0.24286829628E+02 -0.12947586795E+02  0.29637456288E+02  0.51100000000E-03 0. -1.
         11    1    1    0    0    0  0.12441343459E+02  0.26448752472E+02 -0.15026622000E+02  0.32865223312E+02  0.51100000000E-03 0.  1.
         22    1    1    0    0    0 -0.23436284013E+02 -0.50735582100E+02  0.27974208795E+02  0.62497320399E+02  0.00000000000E+00 0.  1.
</event>
<event>
 4    1  0.1976955E-002  0.9118800E+02  0.7818608E-02  0.1130116E+00
         25   -1    0    0    0    0  0.00000000000E+00  0.00000000000E+00  0.99999998245E-14  0.12500000000E+03  0.12500000000E+03 0.  0.
        -11    1    1    0    0    0 -0.13905422802E+02  0.18617855276E+02 -0.26773150313E+02  0.35451190337E+02  0.51100000000E-03 0.  1.
         11    1    1    0    0    0 -0.20788535915E+02  0.34194351148E+01 -0.18759375621E+02  0.28209394462E+02  0.51100000000E-03 0. -1.
         22    1    1    0    0    0  0.34693958716E+02 -0.22037290391E+02  0.45532525934E+02  0.61339415200E+02  0.00000000000E+00 0.  1.
</event>
<event>
 4    1  0.1976955E-002  0.9118800E+02  0.7818608E-02  0.1130116E+00
         25   -1    0    0    0    0  0.00000000000E+00  0.00000000000E+00  0.99999998245E-14  0.12500000000E+03  0.12500000000E+03 0.  0.
        -11    1    1    0    0    0  0.27679129636E+01 -0.61330592236E+02  0.64115644174E+00  0.61396367711E+02  0.51100000000E-03 0. -1.
         11    1    1    0    0    0  0.53941374415E-01 -0.11021391009E+01  0.20864614047E-01  0.11036556813E+01  0.51100000000E-03 0.  1.
         22    1    1    0    0    0 -0.28218543380E+01  0.62432731337E+02 -0.66202105578E+00  0.62499976608E+02  0.00000000000E+00 0. -1.
</event>
<event>
 4    1  0.1976955E-002  0.9118800E+02  0.7818608E-02  0.1130116E+00
         25   -1    0    0    0    0  0.00000000000E+00  0.00000000000E+00  0.99999998245E-14  0.12500000000E+03  0.12500000000E+03 0.  0.
        -11    1    1    0    0    0 -0.23203002454E+02  0.33533149670E+02  0.28602628344E+02  0.49809254142E+02  0.51100000000E-03 0. -1.
         11    1    1    0    0    0 -0.59113443213E+01  0.85439423083E+01  0.72878041009E+01  0.12690745870E+02  0.51100000000E-03 0. -1.
         22    1    1    0    0    0  0.29114346775E+02 -0.42077091979E+02 -0.35890432445E+02  0.62499999989E+02  0.00000000000E+00 0. -1.
</event>
<event>
 4    1  0.1976955E-002  0.9118800E+02  0.7818608E-02  0.1130116E+00
         25   -1    0    0    0    0  0.00000000000E+00  0.00000000000E+00  0.99999998245E-14  0.12500000000E+03  0.12500000000E+03 0.  0.
        -11    1    1    0    0    0  0.21827641164E+00 -0.25749561474E+02 -0.18537268507E+02  0.31728817890E+02  0.51100000000E-03 0. -1.
         11    1    1    0    0    0  0.13542018864E+02 -0.25337687140E+02 -0.13154293021E+02  0.31597786151E+02  0.51100000000E-03 0.  1.
         22    1    1    0    0    0 -0.13760295275E+02  0.51087248614E+02  0.31691561528E+02  0.61673395959E+02  0.00000000000E+00 0.  1.
</event>
<event>
 4    1  0.1976955E-002  0.9118800E+02  0.7818608E-02  0.1130116E+00
         25   -1    0    0    0    0  0.00000000000E+00  0.00000000000E+00  0.99999998245E-14  0.12500000000E+03  0.12500000000E+03 0.  0.
        -11    1    1    0    0    0  0.26379351379E+00  0.14975652424E+00 -0.26718863769E-01  0.30451304286E+00  0.51100000000E-03 0.  1.
         11    1    1    0    0    0  0.58772416106E+02  0.17390934610E+02 -0.10591691460E+02  0.62199882876E+02  0.51100000000E-03 0. -1.
         22    1    1    0    0    0 -0.59036209619E+02 -0.17540691134E+02  0.10618410324E+02  0.62495604081E+02  0.00000000000E+00 0. -1.
</event>
<event>
 4    1  0.1976955E-002  0.9118800E+02  0.7818608E-02  0.1130116E+00
         25   -1    0    0    0    0  0.00000000000E+00  0.00000000000E+00  0.99999998245E-14  0.12500000000E+03  0.12500000000E+03 0.  0.
        -11    1    1    0    0    0  0.23426052201E+02  0.29137875397E+02 -0.22116244357E+01  0.37452463033E+02  0.51100000000E-03 0. -1.
         11    1    1    0    0    0  0.29536848510E+02 -0.11309426799E+02  0.21278263447E+00  0.31628686839E+02  0.51100000000E-03 0.  1.
         22    1    1    0    0    0 -0.52962900711E+02 -0.17828448597E+02  0.19988418012E+01  0.55918850128E+02  0.00000000000E+00 0. -1.
</event>
<event>
 4    1  0.1976955E-002  0.9118800E+02  0.7818608E-02  0.1130116E+00
         25   -1    0    0    0    0  0.00000000000E+00  0.00000000000E+00  0.99999998245E-14  0.12500000000E+03  0.12500000000E+03 0.  0.
        -11    1    1    0    0    0 -0.22515308479E+01 -0.79536658466E+01 -0.33885349423E+02  0.34879035212E+02  0.51100000000E-03 0. -1.
         11    1    1    0    0    0  0.46747022412E+00 -0.17206830929E+02 -0.22512710379E+02  0.28339295826E+02  0.51100000000E-03 0.  1.
         22    1    1    0    0    0  0.17840606238E+01  0.25160496776E+02  0.56398059802E+02  0.61781668962E+02  0.00000000000E+00 0. -1.
</event>
<event>
 4    1  0.1976955E-002  0.9118800E+02  0.7818608E-02  0.1130116E+00
         25   -1    0    0    0    0  0.00000000000E+00  0.00000000000E+00  0.99999998245E-14  0.12500000000E+03  0.12500000000E+03 0.  0.
        -11    1    1    0    0    0 -0.36148671867E+02 -0.20982319817E+01  0.14457097429E+02  0.38988930757E+02  0.51100000000E-03 0.  1.
         11    1    1    0    0    0 -0.20847028790E+02 -0.46147399034E+01  0.10061121006E+02  0.23603402084E+02  0.51100000000E-03 0. -1.
         22    1    1    0    0    0  0.56995700658E+02  0.67129718851E+01 -0.24518218436E+02  0.62407667159E+02  0.00000000000E+00 0.  1.
</event>
<event>
 4    1  0.1976955E-002  0.9118800E+02  0.7818608E-02  0.1130116E+00
         25   -1    0    0    0    0  0.00000000000E+00  0.00000000000E+00  0.99999998245E-14  0.12500000000E+03  0.12500000000E+03 0.  0.
        -11    1    1    0    0    0 -0.65049752512E+01 -0.60650064275E+01  0.66528559647E+01  0.11106732136E+02  0.51100000000E-03 0.  1.
         11    1    1    0    0    0 -0.30085826007E+02 -0.28056199553E+02  0.30805207104E+02  0.51393268479E+02  0.51100000000E-03 0. -1.
         22    1    1    0    0    0  0.36590801258E+02  0.34121205981E+02 -0.37458063069E+02  0.62499999386E+02  0.00000000000E+00 0. -1.
</event>
<event>
 4    1  0.1976955E-002  0.9118800E+02  0.7818608E-02  0.1130116E+00
         25   -1    0    0    0    0  0.00000000000E+00  0.00000000000E+00  0.99999998245E-14  0.12500000000E+03  0.12500000000E+03 0.  0.
        -11    1    1    0    0    0 -0.20758696548E+02 -0.85500171120E+01  0.13193863384E+02  0.26040435985E+02  0.51100000000E-03 0.  1.
         11    1    1    0    0    0 -0.29084648959E+02 -0.11896775365E+02  0.18489213784E+02  0.36459581673E+02  0.51100000000E-03 0. -1.
         22    1    1    0    0    0  0.49843345507E+02  0.20446792477E+02 -0.31683077169E+02  0.62499982343E+02  0.00000000000E+00 0. -1.
</event>
<event>
 4    1  0.1976955E-002  0.9118800E+02  0.7818608E-02  0.1130116E+00
         25   -1    0    0    0    0  0.00000000000E+00  0.00000000000E+00  0.99999998245E-14  0.12500000000E+03  0.12500000000E+03 0.  0.
        -11    1    1    0    0    0 -0.14860279799E+02 -0.13545994382E+00 -0.13585030439E+02  0.20134530473E+02  0.51100000000E-03 0.  1.
         11    1    1    0    0    0 -0.31651970891E+02 -0.38690451314E+00 -0.28158315948E+02  0.42366115159E+02  0.51100000000E-03 0. -1.
         22    1    1    0    0    0  0.46512250690E+02  0.52236445696E+00  0.41743346386E+02  0.62499354368E+02  0.00000000000E+00 0.  1.
</event>
<event>
 4    1  0.1976955E-002  0.9118800E+02  0.7818608E-02  0.1130116E+00
         25   -1    0    0    0    0  0.00000000000E+00  0.00000000000E+00  0.99999998245E-14  0.12500000000E+03  0.12500000000E+03 0.  0.
        -11    1    1    0    0    0 -0.11784041559E+02 -0.32629457265E+02 -0.11254552821E+02  0.36472045135E+02  0.51100000000E-03 0. -1.
         11    1    1    0    0    0 -0.84678207154E+01 -0.23278020789E+02 -0.79928494722E+01  0.26027982682E+02  0.51100000000E-03 0.  1.
         22    1    1    0    0    0  0.20251862274E+02  0.55907478054E+02  0.19247402293E+02  0.62499972184E+02  0.00000000000E+00 0.  1.
</event>
<event>
 4    1  0.1976955E-002  0.9118800E+02  0.7818608E-02  0.1130116E+00
         25   -1    0    0    0    0  0.00000000000E+00  0.00000000000E+00  0.99999998245E-14  0.12500000000E+03  0.12500000000E+03 0.  0.
        -11    1    1    0    0    0  0.31336899446E+02 -0.24258506376E+02 -0.39536203702E+02  0.55978458373E+02  0.51100000000E-03 0. -1.
         11    1    1    0    0    0  0.28579137892E+01 -0.82119981455E-01 -0.62711316984E+01  0.68921337740E+01  0.51100000000E-03 0.  1.
         22    1    1    0    0    0 -0.34194813235E+02  0.24340626357E+02  0.45807335400E+02  0.62129407853E+02  0.00000000000E+00 0. -1.
</event>
<event>
 4    1  0.1976955E-002  0.9118800E+02  0.7818608E-02  0.1130116E+00
         25   -1    0    0    0    0  0.00000000000E+00  0.00000000000E+00  0.99999998245E-14  0.12500000000E+03  0.12500000000E+03 0.  0.
        -11    1    1    0    0    0  0.46333612545E+02  0.12305922379E+02  0.27537380251E+02  0.55286044246E+02  0.51100000000E-03 0. -1.
         11    1    1    0    0    0  0.65788470286E+01  0.10130869682E+01  0.28715226203E+01  0.72493596856E+01  0.51100000000E-03 0.  1.
         22    1    1    0    0    0 -0.52912459573E+02 -0.13319009347E+02 -0.30408902871E+02  0.62464596068E+02  0.00000000000E+00 0. -1.
</event>
<event>
 4    1  0.1976955E-002  0.9118800E+02  0.7818608E-02  0.1130116E+00
         25   -1    0    0    0    0  0.00000000000E+00  0.00000000000E+00  0.99999998245E-14  0.12500000000E+03  0.12500000000E+03 0.  0.
        -11    1    1    0    0    0  0.78799797347E+00 -0.68450459418E+00  0.87503479761E+00  0.13620475409E+01  0.51100000000E-03 0. -1.
         11    1    1    0    0    0  0.35791977386E+02 -0.31031114024E+02  0.38650495354E+02  0.61138011696E+02  0.51100000000E-03 0.  1.
         22    1    1    0    0    0 -0.36579975359E+02  0.31715618618E+02 -0.39525530152E+02  0.62499940763E+02  0.00000000000E+00 0.  1.
</event>
<event>
 4    1  0.1976955E-002  0.9118800E+02  0.7818608E-02  0.1130116E+00
         25   -1    0    0    0    0  0.00000000000E+00  0.00000000000E+00  0.99999998245E-14  0.12500000000E+03  0.12500000000E+03 0.  0.
        -11    1    1    0    0    0  0.17261250987E+01  0.35326087633E+02  0.49700779027E+02  0.61000650911E+02  0.51100000000E-03 0. -1.
         11    1    1    0    0    0  0.43188757599E-01  0.86844663855E+00  0.12214675751E+01  0.14993492358E+01  0.51100000000E-03 0.  1.
         22    1    1    0    0    0 -0.17693138563E+01 -0.36194534272E+02 -0.50922246602E+02  0.62499999854E+02  0.00000000000E+00 0. -1.
</event>
<event>
 4    1  0.1976955E-002  0.9118800E+02  0.7818608E-02  0.1130116E+00
         25   -1    0    0    0    0  0.00000000000E+00  0.00000000000E+00  0.99999998245E-14  0.12500000000E+03  0.12500000000E+03 0.  0.
        -11    1    1    0    0    0  0.88587430845E+00 -0.12860991723E+01  0.10939406441E+01  0.19067067854E+01  0.51100000000E-03 0. -1.
         11    1    1    0    0    0 -0.45783607315E+01 -0.47538042297E+02  0.37521661965E+02  0.60734685059E+02  0.51100000000E-03 0.  1.
         22    1    1    0    0    0  0.36924864231E+01  0.48824141469E+02 -0.38615602609E+02  0.62358608155E+02  0.00000000000E+00 0.  1.
</event>
<event>
 4    1  0.1976955E-002  0.9118800E+02  0.7818608E-02  0.1130116E+00
         25   -1    0    0    0    0  0.00000000000E+00  0.00000000000E+00  0.99999998245E-14  0.12500000000E+03  0.12500000000E+03 0.  0.
        -11    1    1    0    0    0  0.33757163892E+01 -0.14320184020E+02  0.18451907178E+02  0.23599491738E+02  0.51100000000E-03 0.  1.
         11    1    1    0    0    0  0.55615813178E+01 -0.23621128974E+02  0.30403300834E+02  0.38900509286E+02  0.51100000000E-03 0. -1.
         22    1    1    0    0    0 -0.89372977070E+01  0.37941312995E+02 -0.48855208013E+02  0.62499998976E+02  0.00000000000E+00 0. -1.
</event>
<event>
 4    1  0.1976955E-002  0.9118800E+02  0.7818608E-02  0.1130116E+00
         25   -1    0    0    0    0  0.00000000000E+00  0.00000000000E+00  0.99999998245E-14  0.12500000000E+03  0.12500000000E+03 0.  0.
        -11    1    1    0    0    0 -0.45335866573E+01 -0.12755973535E+02  0.35688988010E+02  0.38170304351E+02  0.51100000000E-03 0.  1.
         11    1    1    0    0    0 -0.29018878873E+01 -0.81278345226E+01  0.22747560107E+02  0.24329696637E+02  0.51100000000E-03 0. -1.
         22    1    1    0    0    0  0.74354745447E+01  0.20883808057E+02 -0.58436548117E+02  0.62499999012E+02  0.00000000000E+00 0.  1.
</event>
<event>
 4    1  0.1976955E-002  0.9118800E+02  0.7818608E-02  0.1130116E+00
         25   -1    0    0    0    0  0.00000000000E+00  0.00000000000E+00  0.99999998245E-14  0.12500000000E+03  0.12500000000E+03 0.  0.
        -11    1    1    0    0    0  0.24940306316E+02  0.58607256375E+01  0.55275694006E+01  0.26209177932E+02  0.51100000000E-03 0. -1.
         11    1    1    0    0    0 -0.28526518712E+02  0.10096507834E+02 -0.46044113002E+02  0.55097750251E+02  0.51100000000E-03 0.  1.
         22    1    1    0    0    0  0.35862123960E+01 -0.15957233472E+02  0.40516543601E+02  0.43693071817E+02  0.00000000000E+00 0.  1.
</event>
<event>
 4    1  0.1976955E-002  0.9118800E+02  0.7818608E-02  0.1130116E+00
         25   -1    0    0    0    0  0.00000000000E+00  0.00000000000E+00  0.99999998245E-14  0.12500000000E+03  0.12500000000E+03 0.  0.
        -11    1    1    0    0    0 -0.12081920459E+01  0.19283477809E+01  0.18629379948E+00  0.22831904924E+01  0.51100000000E-03 0.  1.
         11    1    1    0    0    0 -0.31837330568E+02  0.50865893036E+02  0.50109527594E+01  0.60216811107E+02  0.51100000000E-03 0. -1.
         22    1    1    0    0    0  0.33045522614E+02 -0.52794240817E+02 -0.51972465589E+01  0.62499998401E+02  0.00000000000E+00 0. -1.
</event>
<event>
 4    1  0.1976955E-002  0.9118800E+02  0.7818608E-02  0.1130116E+00
         25   -1    0    0    0    0  0.00000000000E+00  0.00000000000E+00  0.99999998245E-14  0.12500000000E+03  0.12500000000E+03 0.  0.
        -11    1    1    0    0    0 -0.32070707096E+01  0.89899269435E+00 -0.16596992134E+01  0.37213024791E+01  0.51100000000E-03 0. -1.
         11    1    1    0    0    0 -0.50658299419E+02  0.14188343323E+02 -0.26217606720E+02  0.58778697575E+02  0.51100000000E-03 0.  1.
         22    1    1    0    0    0  0.53865370128E+02 -0.15087336017E+02  0.27877305933E+02  0.62499999946E+02  0.00000000000E+00 0.  1.
</event>
<event>
 4    1  0.1976955E-002  0.9118800E+02  0.7818608E-02  0.1130116E+00
         25   -1    0    0    0    0  0.00000000000E+00  0.00000000000E+00  0.99999998245E-14  0.12500000000E+03  0.12500000000E+03 0.  0.
        -11    1    1    0    0    0  0.36961171487E+02  0.44206006750E+02  0.34567095067E+01  0.57725627509E+02  0.51100000000E-03 0.  1.
         11    1    1    0    0    0  0.27844436621E+01  0.38607966103E+01  0.44913438744E+00  0.47812758687E+01  0.51100000000E-03 0. -1.
         22    1    1    0    0    0 -0.39745615150E+02 -0.48066803360E+02 -0.39058438942E+01  0.62493096622E+02  0.00000000000E+00 0.  1.
</event>
<event>
 4    1  0.1976955E-002  0.9118800E+02  0.7818608E-02  0.1130116E+00
         25   -1    0    0    0    0  0.00000000000E+00  0.00000000000E+00  0.99999998245E-14  0.12500000000E+03  0.12500000000E+03 0.  0.
        -11    1    1    0    0    0 -0.62247844199E+01 -0.15037007411E+02  0.33863374649E+01  0.16623080781E+02  0.51100000000E-03 0.  1.
         11    1    1    0    0    0 -0.17179320133E+02 -0.41499881721E+02  0.93446505744E+01  0.45876919226E+02  0.51100000000E-03 0. -1.
         22    1    1    0    0    0  0.23404104553E+02  0.56536889132E+02 -0.12730988039E+02  0.62499999993E+02  0.00000000000E+00 0.  1.
</event>
<event>
 4    1  0.1976955E-002  0.9118800E+02  0.7818608E-02  0.1130116E+00
         25   -1    0    0    0    0  0.00000000000E+00  0.00000000000E+00  0.99999998245E-14  0.12500000000E+03  0.12500000000E+03 0.  0.
        -11    1    1    0    0    0 -0.16542182542E+02  0.22584340976E+02  0.63616444604E+01  0.28708305089E+02  0.51100000000E-03 0.  1.
         11    1    1    0    0    0 -0.29635480603E+02  0.17940781845E+02 -0.22272409863E+01  0.34714463362E+02  0.51100000000E-03 0. -1.
         22    1    1    0    0    0  0.46177663146E+02 -0.40525122821E+02 -0.41344034740E+01  0.61577231550E+02  0.00000000000E+00 0. -1.
</event>
<event>
 4    1  0.1976955E-002  0.9118800E+02  0.7818608E-02  0.1130116E+00
         25   -1    0    0    0    0  0.00000000000E+00  0.00000000000E+00  0.99999998245E-14  0.12500000000E+03  0.12500000000E+03 0.  0.
        -11    1    1    0    0    0  0.30146741383E+01 -0.12284844572E+02 -0.25989324291E+02  0.28904163085E+02  0.51100000000E-03 0.  1.
         11    1    1    0    0    0  0.37959266321E+01 -0.13917847558E+02 -0.30341699165E+02  0.33596640429E+02  0.51100000000E-03 0. -1.
         22    1    1    0    0    0 -0.68106007704E+01  0.26202692130E+02  0.56331023456E+02  0.62499196485E+02  0.00000000000E+00 0. -1.
</event>
<event>
 4    1  0.1976955E-002  0.9118800E+02  0.7818608E-02  0.1130116E+00
         25   -1    0    0    0    0  0.00000000000E+00  0.00000000000E+00  0.99999998245E-14  0.12500000000E+03  0.12500000000E+03 0.  0.
        -11    1    1    0    0    0  0.33861108565E+00 -0.78054926596E+01 -0.22840325420E+01  0.81398512297E+01  0.51100000000E-03 0.  1.
         11    1    1    0    0    0  0.22711511940E+01 -0.52127351178E+02 -0.15251456096E+02  0.54360148840E+02  0.51100000000E-03 0. -1.
         22    1    1    0    0    0 -0.26097622796E+01  0.59932843837E+02  0.17535488638E+02  0.62499999931E+02  0.00000000000E+00 0. -1.
</event>
<event>
 4    1  0.1976955E-002  0.9118800E+02  0.7818608E-02  0.1130116E+00
         25   -1    0    0    0    0  0.00000000000E+00  0.00000000000E+00  0.99999998245E-14  0.12500000000E+03  0.12500000000E+03 0.  0.
        -11    1    1    0    0    0  0.84208517301E+00 -0.34378386918E+00 -0.21060752506E+00  0.93362228875E+00  0.51100000000E-03 0. -1.
         11    1    1    0    0    0  0.52235206059E+02 -0.31836680756E+02 -0.70276695216E+01  0.61574987883E+02  0.51100000000E-03 0.  1.
         22    1    1    0    0    0 -0.53077291232E+02  0.32180464625E+02  0.72382770467E+01  0.62491389828E+02  0.00000000000E+00 0.  1.
</event>
<event>
 4    1  0.1976955E-002  0.9118800E+02  0.7818608E-02  0.1130116E+00
         25   -1    0    0    0    0  0.00000000000E+00  0.00000000000E+00  0.99999998245E-14  0.12500000000E+03  0.12500000000E+03 0.  0.
        -11    1    1    0    0    0 -0.30946245196E+02 -0.14013683915E+02  0.48077679018E+02  0.58868638923E+02  0.51100000000E-03 0.  1.
         11    1    1    0    0    0 -0.19051226391E+01 -0.72424275905E+00  0.30071309476E+01  0.36327478086E+01  0.51100000000E-03 0. -1.
         22    1    1    0    0    0  0.32851367835E+02  0.14737926674E+02 -0.51084809965E+02  0.62498613269E+02  0.00000000000E+00 0.  1.
</event>
<event>
 4    1  0.1976955E-002  0.9118800E+02  0.7818608E-02  0.1130116E+00
         25   -1    0    0    0    0  0.00000000000E+00  0.00000000000E+00  0.99999998245E-14  0.12500000000E+03  0.12500000000E+03 0.  0.
        -11    1    1    0    0    0 -0.77834860583E+00  0.62079221265E+01 -0.12825994431E+01  0.63866411574E+01  0.51100000000E-03 0.  1.
         11    1    1    0    0    0 -0.68504763931E+01  0.54534229986E+02 -0.11304771173E+02  0.56113359537E+02  0.51100000000E-03 0. -1.
         22    1    1    0    0    0  0.76288249989E+01 -0.60742152113E+02  0.12587370616E+02  0.62499999305E+02  0.00000000000E+00 0. -1.
</event>
<event>
 4    1  0.1976955E-002  0.9118800E+02  0.7818608E-02  0.1130116E+00
         25   -1    0    0    0    0  0.00000000000E+00  0.00000000000E+00  0.99999998245E-14  0.12500000000E+03  0.12500000000E+03 0.  0.
        -11    1    1    0    0    0 -0.31235772346E+01  0.30654826884E+01  0.97729554946E+00  0.44843088325E+01  0.51100000000E-03 0. -1.
         11    1    1    0    0    0 -0.40500233627E+02  0.39567107885E+02  0.12648955105E+02  0.58015696288E+02  0.51100000000E-03 0.  1.
         22    1    1    0    0    0  0.43623810862E+02 -0.42632590573E+02 -0.13626250655E+02  0.62499994880E+02  0.00000000000E+00 0.  1.
</event>
<event>
 4    1  0.1976955E-002  0.9118800E+02  0.7818608E-02  0.1130116E+00
         25   -1    0    0    0    0  0.00000000000E+00  0.00000000000E+00  0.99999998245E-14  0.12500000000E+03  0.12500000000E+03 0.  0.
        -11    1    1    0    0    0 -0.30634448008E+01 -0.15187781505E+01  0.18620836843E+01  0.38934222769E+01  0.51100000000E-03 0.  1.
         11    1    1    0    0    0 -0.25060607159E+02  0.41691827201E+02 -0.36714381408E+02  0.60944140727E+02  0.51100000000E-03 0. -1.
         22    1    1    0    0    0  0.28124051960E+02 -0.40173049051E+02  0.34852297724E+02  0.60162436996E+02  0.00000000000E+00 0. -1.
</event>
<event>
 4    1  0.1976955E-002  0.9118800E+02  0.7818608E-02  0.1130116E+00
         25   -1    0    0    0    0  0.00000000000E+00  0.00000000000E+00  0.99999998245E-14  0.12500000000E+03  0.12500000000E+03 0.  0.
        -11    1    1    0    0    0  0.10826644299E+02  0.25576515400E+02  0.39517131593E+02  0.48300911548E+02  0.51100000000E-03 0. -1.
         11    1    1    0    0    0  0.31732474579E+01  0.75304748801E+01  0.11611918822E+02  0.14199091884E+02  0.51100000000E-03 0.  1.
         22    1    1    0    0    0 -0.13999891757E+02 -0.33106990281E+02 -0.51129050415E+02  0.62499996568E+02  0.00000000000E+00 0. -1.
</event>
<event>
 4    1  0.1976955E-002  0.9118800E+02  0.7818608E-02  0.1130116E+00
         25   -1    0    0    0    0  0.00000000000E+00  0.00000000000E+00  0.99999998245E-14  0.12500000000E+03  0.12500000000E+03 0.  0.
        -11    1    1    0    0    0  0.47052170872E-01 -0.31386226595E+01  0.10587406149E+02  0.11042931464E+02  0.51100000000E-03 0.  1.
         11    1    1    0    0    0 -0.28164075984E+01 -0.14222567725E+02  0.49380613470E+02  0.51465119950E+02  0.51100000000E-03 0. -1.
         22    1    1    0    0    0  0.27693554275E+01  0.17361190385E+02 -0.59968019619E+02  0.62491948586E+02  0.00000000000E+00 0. -1.
</event>
<event>
 4    1  0.1976955E-002  0.9118800E+02  0.7818608E-02  0.1130116E+00
         25   -1    0    0    0    0  0.00000000000E+00  0.00000000000E+00  0.99999998245E-14  0.12500000000E+03  0.12500000000E+03 0.  0.
        -11    1    1    0    0    0  0.67307382103E+01 -0.21010741034E+02  0.49775573701E+02  0.54445953138E+02  0.51100000000E-03 0. -1.
         11    1    1    0    0    0  0.98181009480E+00 -0.31143923351E+01  0.73623624837E+01  0.80540531586E+01  0.51100000000E-03 0.  1.
         22    1    1    0    0    0 -0.77125483051E+01  0.24125133369E+02 -0.57137936184E+02  0.62499993703E+02  0.00000000000E+00 0. -1.
</event>
<event>
 4    1  0.1976955E-002  0.9118800E+02  0.7818608E-02  0.1130116E+00
         25   -1    0    0    0    0  0.00000000000E+00  0.00000000000E+00  0.99999998245E-14  0.12500000000E+03  0.12500000000E+03 0.  0.
        -11    1    1    0    0    0  0.13253589134E+02 -0.40994052676E+02  0.10602905140E+02  0.44368813117E+02  0.51100000000E-03 0.  1.
         11    1    1    0    0    0  0.54184069613E+01 -0.16751336567E+02  0.43328430754E+01  0.18131186949E+02  0.51100000000E-03 0. -1.
         22    1    1    0    0    0 -0.18671996095E+02  0.57745389244E+02 -0.14935748215E+02  0.62499999934E+02  0.00000000000E+00 0. -1.
</event>
<event>
 4    1  0.1976955E-002  0.9118800E+02  0.7818608E-02  0.1130116E+00
         25   -1    0    0    0    0  0.00000000000E+00  0.00000000000E+00  0.99999998245E-14  0.12500000000E+03  0.12500000000E+03 0.  0.
        -11    1    1    0    0    0  0.15616650080E+01  0.29551844348E+01  0.87082084881E-01  0.33435753605E+01  0.51100000000E-03 0. -1.
         11    1    1    0    0    0 -0.84404939853E+01  0.30730801990E+02  0.50963759287E+02  0.60107644194E+02  0.51100000000E-03 0.  1.
         22    1    1    0    0    0  0.68788289773E+01 -0.33685986425E+02 -0.51050841372E+02  0.61548780445E+02  0.00000000000E+00 0.  1.
</event>
<event>
 4    1  0.1976955E-002  0.9118800E+02  0.7818608E-02  0.1130116E+00
         25   -1    0    0    0    0  0.00000000000E+00  0.00000000000E+00  0.99999998245E-14  0.12500000000E+03  0.12500000000E+03 0.  0.
        -11    1    1    0    0    0 -0.19480536597E+02 -0.49502141353E+01 -0.47610020485E+00  0.20105287806E+02  0.51100000000E-03 0.  1.
         11    1    1    0    0    0 -0.41312490298E+02 -0.89243478411E+01 -0.35121829471E+01  0.42411098410E+02  0.51100000000E-03 0. -1.
         22    1    1    0    0    0  0.60793026895E+02  0.13874561976E+02  0.39882831519E+01  0.62483613784E+02  0.00000000000E+00 0. -1.
</event>
<event>
 4    1  0.1976955E-002  0.9118800E+02  0.7818608E-02  0.1130116E+00
         25   -1    0    0    0    0  0.00000000000E+00  0.00000000000E+00  0.99999998245E-14  0.12500000000E+03  0.12500000000E+03 0.  0.
        -11    1    1    0    0    0  0.12763354096E+02 -0.14877095737E+02  0.49363629706E+02  0.53113078647E+02  0.51100000000E-03 0.  1.
         11    1    1    0    0    0  0.22596406339E+01 -0.26324037842E+01  0.87223150092E+01  0.93869220120E+01  0.51100000000E-03 0. -1.
         22    1    1    0    0    0 -0.15022994730E+02  0.17509499521E+02 -0.58085944715E+02  0.62499999341E+02  0.00000000000E+00 0.  1.
</event>
<event>
 4    1  0.1976955E-002  0.9118800E+02  0.7818608E-02  0.1130116E+00
         25   -1    0    0    0    0  0.00000000000E+00  0.00000000000E+00  0.99999998245E-14  0.12500000000E+03  0.12500000000E+03 0.  0.
        -11    1    1    0    0    0  0.38394816552E+02 -0.41796934304E+02 -0.24163781786E+02  0.61684957694E+02  0.51100000000E-03 0. -1.
         11    1    1    0    0    0  0.50696644278E+00 -0.55083831224E+00 -0.32227552097E+00  0.81504576121E+00  0.51100000000E-03 0.  1.
         22    1    1    0    0    0 -0.38901782994E+02  0.42347772616E+02  0.24486057307E+02  0.62499996545E+02  0.00000000000E+00 0. -1.
</event>
<event>
 4    1  0.1976955E-002  0.9118800E+02  0.7818608E-02  0.1130116E+00
         25   -1    0    0    0    0  0.00000000000E+00  0.00000000000E+00  0.99999998245E-14  0.12500000000E+03  0.12500000000E+03 0.  0.
        -11    1    1    0    0    0  0.42299003951E+02 -0.67528159825E+01 -0.72194429055E+01  0.43438768572E+02  0.51100000000E-03 0. -1.
         11    1    1    0    0    0  0.16447037172E+02 -0.11225638358E+01 -0.10684081674E+02  0.19644713864E+02  0.51100000000E-03 0.  1.
         22    1    1    0    0    0 -0.58746041123E+02  0.78753798183E+01  0.17903524579E+02  0.61916517564E+02  0.00000000000E+00 0. -1.
</event>
<event>
 4    1  0.1976955E-002  0.9118800E+02  0.7818608E-02  0.1130116E+00
         25   -1    0    0    0    0  0.00000000000E+00  0.00000000000E+00  0.99999998245E-14  0.12500000000E+03  0.12500000000E+03 0.  0.
        -11    1    1    0    0    0 -0.26544555969E+02 -0.90772273069E+01  0.16470239559E+02  0.32531189627E+02  0.51100000000E-03 0. -1.
         11    1    1    0    0    0 -0.24455910473E+02 -0.83566515821E+01  0.15172488981E+02  0.29968810534E+02  0.51100000000E-03 0.  1.
         22    1    1    0    0    0  0.51000466441E+02  0.17433878889E+02 -0.31642728540E+02  0.62499999838E+02  0.00000000000E+00 0. -1.
</event>
<event>
 4    1  0.1976955E-002  0.9118800E+02  0.7818608E-02  0.1130116E+00
         25   -1    0    0    0    0  0.00000000000E+00  0.00000000000E+00  0.99999998245E-14  0.12500000000E+03  0.12500000000E+03 0.  0.
        -11    1    1    0    0    0 -0.12407527770E+02  0.36699027812E+02  0.35593070015E+02  0.52608288521E+02  0.51100000000E-03 0.  1.
         11    1    1    0    0    0 -0.21046713572E+01  0.68217921164E+01  0.68494064309E+01  0.98934755227E+01  0.51100000000E-03 0. -1.
         22    1    1    0    0    0  0.14512199127E+02 -0.43520819928E+02 -0.42442476446E+02  0.62498235956E+02  0.00000000000E+00 0.  1.
</event>
<event>
 4    1  0.1976955E-002  0.9118800E+02  0.7818608E-02  0.1130116E+00
         25   -1    0    0    0    0  0.00000000000E+00  0.00000000000E+00  0.99999998245E-14  0.12500000000E+03  0.12500000000E+03 0.  0.
        -11    1    1    0    0    0 -0.80714902819E+01  0.21015271203E+02  0.27039884140E+02  0.35184455569E+02  0.51100000000E-03 0. -1.
         11    1    1    0    0    0 -0.62679064997E+01  0.16315462713E+02  0.20991855396E+02  0.27315544451E+02  0.51100000000E-03 0.  1.
         22    1    1    0    0    0  0.14339396782E+02 -0.37330733916E+02 -0.48031739535E+02  0.62499999981E+02  0.00000000000E+00 0. -1.
</event>
<event>
 4    1  0.1976955E-002  0.9118800E+02  0.7818608E-02  0.1130116E+00
         25   -1    0    0    0    0  0.00000000000E+00  0.00000000000E+00  0.99999998245E-14  0.12500000000E+03  0.12500000000E+03 0.  0.
        -11    1    1    0    0    0  0.41770007235E+01  0.37737763520E+02 -0.21187715613E+02  0.43479942774E+02  0.51100000000E-03 0.  1.
         11    1    1    0    0    0  0.18345721081E+01  0.16513818631E+02 -0.92569321205E+01  0.19020059231E+02  0.51100000000E-03 0. -1.
         22    1    1    0    0    0 -0.60115728316E+01 -0.54251582151E+02  0.30444647733E+02  0.62499997995E+02  0.00000000000E+00 0.  1.
</event>
<event>
 4    1  0.1976955E-002  0.9118800E+02  0.7818608E-02  0.1130116E+00
         25   -1    0    0    0    0  0.00000000000E+00  0.00000000000E+00  0.99999998245E-14  0.12500000000E+03  0.12500000000E+03 0.  0.
        -11    1    1    0    0    0  0.81265029253E+01  0.91398315232E+01 -0.73433418306E+01  0.14265386065E+02  0.51100000000E-03 0. -1.
         11    1    1    0    0    0  0.26281370562E+02  0.33120487785E+02 -0.23236065361E+02  0.48245122898E+02  0.51100000000E-03 0.  1.
         22    1    1    0    0    0 -0.34407873487E+02 -0.42260319308E+02  0.30579407192E+02  0.62489491037E+02  0.00000000000E+00 0.  1.
</event>
<event>
 4    1  0.1976955E-002  0.9118800E+02  0.7818608E-02  0.1130116E+00
         25   -1    0    0    0    0  0.00000000000E+00  0.00000000000E+00  0.99999998245E-14  0.12500000000E+03  0.12500000000E+03 0.  0.
        -11    1    1    0    0    0  0.99110809671E+01  0.19820967728E+02  0.53368739362E+02  0.57786872462E+02  0.51100000000E-03 0. -1.
         11    1    1    0    0    0 -0.51810736068E+01  0.35304798116E+01  0.22856826314E+01  0.66732418488E+01  0.51100000000E-03 0.  1.
         22    1    1    0    0    0 -0.47300073602E+01 -0.23351447540E+02 -0.55654421993E+02  0.60539885689E+02  0.00000000000E+00 0. -1.
</event>
<event>
 4    1  0.1976955E-002  0.9118800E+02  0.7818608E-02  0.1130116E+00
         25   -1    0    0    0    0  0.00000000000E+00  0.00000000000E+00  0.99999998245E-14  0.12500000000E+03  0.12500000000E+03 0.  0.
        -11    1    1    0    0    0  0.29210210662E+02 -0.94921930857E+01 -0.12045365680E+02  0.32991346913E+02  0.51100000000E-03 0. -1.
         11    1    1    0    0    0  0.11176737719E+02 -0.18876971246E+02 -0.22763233375E+02  0.31613672729E+02  0.51100000000E-03 0.  1.
         22    1    1    0    0    0 -0.40386948381E+02  0.28369164331E+02  0.34808599055E+02  0.60394980359E+02  0.00000000000E+00 0. -1.
</event>
<event>
 4    1  0.1976955E-002  0.9118800E+02  0.7818608E-02  0.1130116E+00
         25   -1    0    0    0    0  0.00000000000E+00  0.00000000000E+00  0.99999998245E-14  0.12500000000E+03  0.12500000000E+03 0.  0.
        -11    1    1    0    0    0 -0.16223084901E+01 -0.16182533151E+02  0.52237988175E+02  0.54711184166E+02  0.51100000000E-03 0.  1.
         11    1    1    0    0    0 -0.25830375796E+00 -0.23055749530E+01  0.74352931984E+01  0.77888370058E+01  0.51100000000E-03 0. -1.
         22    1    1    0    0    0  0.18806122481E+01  0.18488108104E+02 -0.59673281373E+02  0.62499978828E+02  0.00000000000E+00 0.  1.
</event>
<event>
 4    1  0.1976955E-002  0.9118800E+02  0.7818608E-02  0.1130116E+00
         25   -1    0    0    0    0  0.00000000000E+00  0.00000000000E+00  0.99999998245E-14  0.12500000000E+03  0.12500000000E+03 0.  0.
        -11    1    1    0    0    0 -0.31628355791E+02  0.32227672876E+02  0.38714760603E+02  0.59479479469E+02  0.51100000000E-03 0. -1.
         11    1    1    0    0    0 -0.14794147097E+01  0.15868692420E+01  0.21059104704E+01  0.30235212989E+01  0.51100000000E-03 0.  1.
         22    1    1    0    0    0  0.33107770501E+02 -0.33814542118E+02 -0.40820671073E+02  0.62496999232E+02  0.00000000000E+00 0. -1.
</event>
<event>
 4    1  0.1976955E-002  0.9118800E+02  0.7818608E-02  0.1130116E+00
         25   -1    0    0    0    0  0.00000000000E+00  0.00000000000E+00  0.99999998245E-14  0.12500000000E+03  0.12500000000E+03 0.  0.
        -11    1    1    0    0    0  0.28234690002E+00 -0.30818278489E+02 -0.65442972174E+01  0.31506726824E+02  0.51100000000E-03 0.  1.
         11    1    1    0    0    0 -0.13439390745E+02 -0.25451721182E+02  0.18855916092E+02  0.34408616750E+02  0.51100000000E-03 0. -1.
         22    1    1    0    0    0  0.13157043845E+02  0.56269999671E+02 -0.12311618874E+02  0.59084656427E+02  0.00000000000E+00 0. -1.
</event>
<event>
 4    1  0.1976955E-002  0.9118800E+02  0.7818608E-02  0.1130116E+00
         25   -1    0    0    0    0  0.00000000000E+00  0.00000000000E+00  0.99999998245E-14  0.12500000000E+03  0.12500000000E+03 0.  0.
        -11    1    1    0    0    0 -0.14092629421E+02 -0.32266116563E+02  0.47584451527E+02  0.59194463503E+02  0.51100000000E-03 0. -1.
         11    1    1    0    0    0 -0.65271776495E+00 -0.20508801909E+01  0.25182349419E+01  0.33126511319E+01  0.51100000000E-03 0.  1.
         22    1    1    0    0    0  0.14745347186E+02  0.34316996754E+02 -0.50102686469E+02  0.62492885365E+02  0.00000000000E+00 0. -1.
</event>
<event>
 4    1  0.1976955E-002  0.9118800E+02  0.7818608E-02  0.1130116E+00
         25   -1    0    0    0    0  0.00000000000E+00  0.00000000000E+00  0.99999998245E-14  0.12500000000E+03  0.12500000000E+03 0.  0.
        -11    1    1    0    0    0 -0.10406477706E+02 -0.20136945397E+01  0.13363117058E+02  0.17056454547E+02  0.51100000000E-03 0. -1.
         11    1    1    0    0    0 -0.27953311491E+02 -0.58415195250E+01  0.35350411667E+02  0.45444059886E+02  0.51100000000E-03 0.  1.
         22    1    1    0    0    0  0.38359789197E+02  0.78552140647E+01 -0.48713528725E+02  0.62499485567E+02  0.00000000000E+00 0.  1.
</event>
<event>
 4    1  0.1976955E-002  0.9118800E+02  0.7818608E-02  0.1130116E+00
         25   -1    0    0    0    0  0.00000000000E+00  0.00000000000E+00  0.99999998245E-14  0.12500000000E+03  0.12500000000E+03 0.  0.
        -11    1    1    0    0    0  0.17029449985E+02  0.28911919916E+02  0.52527620428E+02  0.62330186813E+02  0.51100000000E-03 0. -1.
         11    1    1    0    0    0  0.45781033801E-01  0.82491992344E-01  0.14122473786E+00  0.16983968783E+00  0.51100000000E-03 0.  1.
         22    1    1    0    0    0 -0.17075231018E+02 -0.28994411908E+02 -0.52668845166E+02  0.62499973499E+02  0.00000000000E+00 0. -1.
</event>
<event>
 4    1  0.1976955E-002  0.9118800E+02  0.7818608E-02  0.1130116E+00
         25   -1    0    0    0    0  0.00000000000E+00  0.00000000000E+00  0.99999998245E-14  0.12500000000E+03  0.12500000000E+03 0.  0.
        -11    1    1    0    0    0 -0.25668949637E+01 -0.76539885548E+01 -0.55610180170E+02  0.56193101262E+02  0.51100000000E-03 0.  1.
         11    1    1    0    0    0 -0.29198335756E+00 -0.85232956737E+00 -0.62422174722E+01  0.63069009191E+01  0.51100000000E-03 0. -1.
         22    1    1    0    0    0  0.28588783213E+01  0.85063181221E+01  0.61852397643E+02  0.62499997819E+02  0.00000000000E+00 0.  1.
</event>
<event>
 4    1  0.1976955E-002  0.9118800E+02  0.7818608E-02  0.1130116E+00
         25   -1    0    0    0    0  0.00000000000E+00  0.00000000000E+00  0.99999998245E-14  0.12500000000E+03  0.12500000000E+03 0.  0.
        -11    1    1    0    0    0 -0.60853234963E+01 -0.30945294133E+02  0.51254553014E+00  0.31542116198E+02  0.51100000000E-03 0. -1.
         11    1    1    0    0    0 -0.57940715140E+01 -0.30399571121E+02  0.85097593005E+00  0.30958510128E+02  0.51100000000E-03 0.  1.
         22    1    1    0    0    0  0.11879395010E+02  0.61344865254E+02 -0.13635214602E+01  0.62499373674E+02  0.00000000000E+00 0.  1.
</event>
<event>
 4    1  0.1976955E-002  0.9118800E+02  0.7818608E-02  0.1130116E+00
         25   -1    0    0    0    0  0.00000000000E+00  0.00000000000E+00  0.99999998245E-14  0.12500000000E+03  0.12500000000E+03 0.  0.
        -11    1    1    0    0    0  0.50009826509E+01 -0.22172120994E+01  0.62007780116E+01  0.82689482510E+01  0.51100000000E-03 0.  1.
         11    1    1    0    0    0  0.29776186143E+02 -0.13434120868E+02  0.43301902427E+02  0.54241604131E+02  0.51100000000E-03 0. -1.
         22    1    1    0    0    0 -0.34777168793E+02  0.15651332968E+02 -0.49502680439E+02  0.62489447618E+02  0.00000000000E+00 0. -1.
</event>
<event>
 4    1  0.1976955E-002  0.9118800E+02  0.7818608E-02  0.1130116E+00
         25   -1    0    0    0    0  0.00000000000E+00  0.00000000000E+00  0.99999998245E-14  0.12500000000E+03  0.12500000000E+03 0.  0.
        -11    1    1    0    0    0  0.57245607684E+02  0.24812425702E+02 -0.83479768718E+00  0.62397219135E+02  0.51100000000E-03 0.  1.
         11    1    1    0    0    0  0.87546022922E-01  0.54769459632E-01  0.78662131592E-02  0.10356707135E+00  0.51100000000E-03 0. -1.
         22    1    1    0    0    0 -0.57333153707E+02 -0.24867195161E+02  0.82693147402E+00  0.62499213794E+02  0.00000000000E+00 0.  1.
</event>
<event>
 4    1  0.1976955E-002  0.9118800E+02  0.7818608E-02  0.1130116E+00
         25   -1    0    0    0    0  0.00000000000E+00  0.00000000000E+00  0.99999998245E-14  0.12500000000E+03  0.12500000000E+03 0.  0.
        -11    1    1    0    0    0 -0.36291252756E+02 -0.26166186140E+02 -0.23433311060E+02  0.50505884719E+02  0.51100000000E-03 0.  1.
         11    1    1    0    0    0  0.86072856467E+01  0.15687087272E+02 -0.16800515962E+02  0.24544396715E+02  0.51100000000E-03 0. -1.
         22    1    1    0    0    0  0.27683967110E+02  0.10479098869E+02  0.40233827022E+02  0.49949718566E+02  0.00000000000E+00 0.  1.
</event>
<event>
 4    1  0.1976955E-002  0.9118800E+02  0.7818608E-02  0.1130116E+00
         25   -1    0    0    0    0  0.00000000000E+00  0.00000000000E+00  0.99999998245E-14  0.12500000000E+03  0.12500000000E+03 0.  0.
        -11    1    1    0    0    0 -0.13252315974E+01  0.69574633079E+00  0.35464893813E+01  0.38494011140E+01  0.51100000000E-03 0.  1.
         11    1    1    0    0    0  0.25328058051E+00 -0.25282545764E+02  0.53416773938E+02  0.59098417995E+02  0.51100000000E-03 0. -1.
         22    1    1    0    0    0  0.10719510169E+01  0.24586799434E+02 -0.56963263319E+02  0.62052180891E+02  0.00000000000E+00 0. -1.
</event>
<event>
 4    1  0.1976955E-002  0.9118800E+02  0.7818608E-02  0.1130116E+00
         25   -1    0    0    0    0  0.00000000000E+00  0.00000000000E+00  0.99999998245E-14  0.12500000000E+03  0.12500000000E+03 0.  0.
        -11    1    1    0    0    0  0.13509214850E+02 -0.31005840745E+02  0.37373729811E+02  0.50404927600E+02  0.51100000000E-03 0.  1.
         11    1    1    0    0    0  0.32742906861E+01 -0.74716592460E+01  0.89300347892E+01  0.12095130962E+02  0.51100000000E-03 0. -1.
         22    1    1    0    0    0 -0.16783505536E+02  0.38477499991E+02 -0.46303764600E+02  0.62499941438E+02  0.00000000000E+00 0.  1.
</event>
<event>
 4    1  0.1976955E-002  0.9118800E+02  0.7818608E-02  0.1130116E+00
         25   -1    0    0    0    0  0.00000000000E+00  0.00000000000E+00  0.99999998245E-14  0.12500000000E+03  0.12500000000E+03 0.  0.
        -11    1    1    0    0    0 -0.35734686384E+01 -0.40188394650E+02  0.35045720533E+02  0.53442298515E+02  0.51100000000E-03 0. -1.
         11    1    1    0    0    0  0.20603163940E+02  0.58477561758E+01 -0.30609444150E+01  0.21634601859E+02  0.51100000000E-03 0.  1.
         22    1    1    0    0    0 -0.17029695302E+02  0.34340638474E+02 -0.31984776118E+02  0.49923099625E+02  0.00000000000E+00 0. -1.
</event>
<event>
 4    1  0.1976955E-002  0.9118800E+02  0.7818608E-02  0.1130116E+00
         25   -1    0    0    0    0  0.00000000000E+00  0.00000000000E+00  0.99999998245E-14  0.12500000000E+03  0.12500000000E+03 0.  0.
        -11    1    1    0    0    0  0.15939731966E+02 -0.38872635218E+02 -0.25075671541E+02  0.48927968765E+02  0.51100000000E-03 0.  1.
         11    1    1    0    0    0  0.44205698197E+01 -0.10873842185E+02 -0.68139022693E+01  0.13572440672E+02  0.51100000000E-03 0. -1.
         22    1    1    0    0    0 -0.20360301785E+02  0.49746477403E+02  0.31889573810E+02  0.62499590564E+02  0.00000000000E+00 0.  1.
</event>
<event>
 4    1  0.1976955E-002  0.9118800E+02  0.7818608E-02  0.1130116E+00
         25   -1    0    0    0    0  0.00000000000E+00  0.00000000000E+00  0.99999998245E-14  0.12500000000E+03  0.12500000000E+03 0.  0.
        -11    1    1    0    0    0 -0.29595442069E+02  0.97575193003E+01 -0.25693543820E+02  0.40388829748E+02  0.51100000000E-03 0. -1.
         11    1    1    0    0    0 -0.16202395355E+02  0.53282814686E+01 -0.14071095141E+02  0.22111171777E+02  0.51100000000E-03 0.  1.
         22    1    1    0    0    0  0.45797837424E+02 -0.15085800769E+02  0.39764638961E+02  0.62499998474E+02  0.00000000000E+00 0.  1.
</event>
<event>
 4    1  0.1976955E-002  0.9118800E+02  0.7818608E-02  0.1130116E+00
         25   -1    0    0    0    0  0.00000000000E+00  0.00000000000E+00  0.99999998245E-14  0.12500000000E+03  0.12500000000E+03 0.  0.
        -11    1    1    0    0    0  0.28880598582E+02 -0.42198387410E+01 -0.29546640165E+02  0.41531914942E+02  0.51100000000E-03 0.  1.
         11    1    1    0    0    0  0.14573322853E+02 -0.22091773189E+01 -0.14913097289E+02  0.20968134738E+02  0.51100000000E-03 0. -1.
         22    1    1    0    0    0 -0.43453921435E+02  0.64290160599E+01  0.44459737453E+02  0.62499950320E+02  0.00000000000E+00 0.  1.
</event>
<event>
 4    1  0.1976955E-002  0.9118800E+02  0.7818608E-02  0.1130116E+00
         25   -1    0    0    0    0  0.00000000000E+00  0.00000000000E+00  0.99999998245E-14  0.12500000000E+03  0.12500000000E+03 0.  0.
        -11    1    1    0    0    0  0.20448056252E+02 -0.19153162185E+02  0.28019214920E+02  0.39623768513E+02  0.51100000000E-03 0. -1.
         11    1    1    0    0    0  0.91017314356E+01 -0.10785384084E+02  0.18101813860E+02  0.22953032267E+02  0.51100000000E-03 0.  1.
         22    1    1    0    0    0 -0.29549787688E+02  0.29938546270E+02 -0.46121028780E+02  0.62423199220E+02  0.00000000000E+00 0. -1.
</event>
<event>
 4    1  0.1976955E-002  0.9118800E+02  0.7818608E-02  0.1130116E+00
         25   -1    0    0    0    0  0.00000000000E+00  0.00000000000E+00  0.99999998245E-14  0.12500000000E+03  0.12500000000E+03 0.  0.
        -11    1    1    0    0    0 -0.15280125219E+01  0.47277679321E+01  0.11836213720E+02  0.12836766235E+02  0.51100000000E-03 0.  1.
         11    1    1    0    0    0 -0.52871344778E+01  0.19097727244E+02  0.45539798581E+02  0.49664375884E+02  0.51100000000E-03 0. -1.
         22    1    1    0    0    0  0.68151469997E+01 -0.23825495177E+02 -0.57376012300E+02  0.62498857882E+02  0.00000000000E+00 0. -1.
</event>
<event>
 4    1  0.1976955E-002  0.9118800E+02  0.7818608E-02  0.1130116E+00
         25   -1    0    0    0    0  0.00000000000E+00  0.00000000000E+00  0.99999998245E-14  0.12500000000E+03  0.12500000000E+03 0.  0.
        -11    1    1    0    0    0 -0.29726234210E+02  0.15251919474E+02  0.47359035381E+02  0.57958159739E+02  0.51100000000E-03 0.  1.
         11    1    1    0    0    0  0.29691013013E+01 -0.16000237732E+02 -0.51648893534E+01  0.17073349182E+02  0.51100000000E-03 0. -1.
         22    1    1    0    0    0  0.26757132908E+02  0.74831825790E+00 -0.42194146027E+02  0.49968491078E+02  0.00000000000E+00 0.  1.
</event>
<event>
 4    1  0.1976955E-002  0.9118800E+02  0.7818608E-02  0.1130116E+00
         25   -1    0    0    0    0  0.00000000000E+00  0.00000000000E+00  0.99999998245E-14  0.12500000000E+03  0.12500000000E+03 0.  0.
        -11    1    1    0    0    0  0.26121273734E+02  0.27527510029E+01  0.11865624500E+01  0.26292708310E+02  0.51100000000E-03 0. -1.
         11    1    1    0    0    0  0.35974759964E+02  0.37656271627E+01  0.16139669051E+01  0.36207294732E+02  0.51100000000E-03 0.  1.
         22    1    1    0    0    0 -0.62096033698E+02 -0.65183781656E+01 -0.28005293551E+01  0.62499996957E+02  0.00000000000E+00 0. -1.
</event>
<event>
 4    1  0.1976955E-002  0.9118800E+02  0.7818608E-02  0.1130116E+00
         25   -1    0    0    0    0  0.00000000000E+00  0.00000000000E+00  0.99999998245E-14  0.12500000000E+03  0.12500000000E+03 0.  0.
        -11    1    1    0    0    0  0.56051565544E+00 -0.33441100340E+01 -0.23445124592E+01  0.41223765782E+01  0.51100000000E-03 0.  1.
         11    1    1    0    0    0  0.55692121351E+00 -0.43407784829E+02 -0.39074933029E+02  0.58407159977E+02  0.51100000000E-03 0. -1.
         22    1    1    0    0    0 -0.11174368689E+01  0.46751894863E+02  0.41419445489E+02  0.62470463445E+02  0.00000000000E+00 0. -1.
</event>
<event>
 4    1  0.1976955E-002  0.9118800E+02  0.7818608E-02  0.1130116E+00
         25   -1    0    0    0    0  0.00000000000E+00  0.00000000000E+00  0.99999998245E-14  0.12500000000E+03  0.12500000000E+03 0.  0.
        -11    1    1    0    0    0  0.31350481420E+01  0.13097105026E+02 -0.74773485743E+01  0.15403682316E+02  0.51100000000E-03 0. -1.
         11    1    1    0    0    0  0.95734564977E+01  0.40039438120E+02 -0.22874778822E+02  0.47096318123E+02  0.51100000000E-03 0.  1.
         22    1    1    0    0    0 -0.12708504640E+02 -0.53136543146E+02  0.30352127396E+02  0.62499999562E+02  0.00000000000E+00 0.  1.
</event>
<event>
 4    1  0.1976955E-002  0.9118800E+02  0.7818608E-02  0.1130116E+00
         25   -1    0    0    0    0  0.00000000000E+00  0.00000000000E+00  0.99999998245E-14  0.12500000000E+03  0.12500000000E+03 0.  0.
        -11    1    1    0    0    0  0.37193610420E+02 -0.48793850585E+01 -0.21957074257E+02  0.43465919579E+02  0.51100000000E-03 0.  1.
         11    1    1    0    0    0  0.16287805900E+02 -0.21323493531E+01 -0.96154401525E+01  0.19034080603E+02  0.51100000000E-03 0. -1.
         22    1    1    0    0    0 -0.53481416321E+02  0.70117344116E+01  0.31572514409E+02  0.62499999818E+02  0.00000000000E+00 0.  1.
</event>
<event>
 4    1  0.1976955E-002  0.9118800E+02  0.7818608E-02  0.1130116E+00
         25   -1    0    0    0    0  0.00000000000E+00  0.00000000000E+00  0.99999998245E-14  0.12500000000E+03  0.12500000000E+03 0.  0.
        -11    1    1    0    0    0  0.71023271765E+01 -0.40582084286E+01 -0.38312582746E+01  0.90327541314E+01  0.51100000000E-03 0.  1.
         11    1    1    0    0    0  0.41999328154E+02 -0.23888527237E+02 -0.22894231951E+02  0.53467290522E+02  0.51100000000E-03 0. -1.
         22    1    1    0    0    0 -0.49101655330E+02  0.27946735665E+02  0.26725490226E+02  0.62499955346E+02  0.00000000000E+00 0. -1.
</event>
<event>
 4    1  0.1976955E-002  0.9118800E+02  0.7818608E-02  0.1130116E+00
         25   -1    0    0    0    0  0.00000000000E+00  0.00000000000E+00  0.99999998245E-14  0.12500000000E+03  0.12500000000E+03 0.  0.
        -11    1    1    0    0    0 -0.56734814200E+00 -0.16825640831E+00  0.10147829190E+01  0.11747249751E+01  0.51100000000E-03 0.  1.
         11    1    1    0    0    0 -0.28545927574E+02 -0.90910131172E+01  0.53509692845E+02  0.61325392206E+02  0.51100000000E-03 0. -1.
         22    1    1    0    0    0  0.29113275716E+02  0.92592695255E+01 -0.54524475764E+02  0.62499882819E+02  0.00000000000E+00 0. -1.
</event>
<event>
 4    1  0.1976955E-002  0.9118800E+02  0.7818608E-02  0.1130116E+00
         25   -1    0    0    0    0  0.00000000000E+00  0.00000000000E+00  0.99999998245E-14  0.12500000000E+03  0.12500000000E+03 0.  0.
        -11    1    1    0    0    0 -0.45012937499E+02 -0.24047684190E+02 -0.27448791088E+01  0.51107631708E+02  0.51100000000E-03 0. -1.
         11    1    1    0    0    0 -0.10033385777E+02 -0.53612972347E+01 -0.61132438740E+00  0.11392368320E+02  0.51100000000E-03 0.  1.
         22    1    1    0    0    0  0.55046323275E+02  0.29408981425E+02  0.33562034962E+01  0.62499999972E+02  0.00000000000E+00 0. -1.
</event>
<event>
 4    1  0.1976955E-002  0.9118800E+02  0.7818608E-02  0.1130116E+00
         25   -1    0    0    0    0  0.00000000000E+00  0.00000000000E+00  0.99999998245E-14  0.12500000000E+03  0.12500000000E+03 0.  0.
        -11    1    1    0    0    0  0.41684290497E+02 -0.14572701523E+02 -0.40129077490E+02  0.59668136927E+02  0.51100000000E-03 0.  1.
         11    1    1    0    0    0  0.19714626327E+01 -0.49292484154E+00 -0.19776852732E+01  0.28356443911E+01  0.51100000000E-03 0. -1.
         22    1    1    0    0    0 -0.43655753130E+02  0.15065626365E+02  0.42106762763E+02  0.62496218682E+02  0.00000000000E+00 0.  1.
</event>
<event>
 4    1  0.1976955E-002  0.9118800E+02  0.7818608E-02  0.1130116E+00
         25   -1    0    0    0    0  0.00000000000E+00  0.00000000000E+00  0.99999998245E-14  0.12500000000E+03  0.12500000000E+03 0.  0.
        -11    1    1    0    0    0  0.12663650568E+02  0.46520618515E+00  0.19039568051E+01  0.12814426022E+02  0.51100000000E-03 0.  1.
         11    1    1    0    0    0  0.49026203508E+02  0.41232617440E+01  0.69753469817E+01  0.49691300884E+02  0.51100000000E-03 0. -1.
         22    1    1    0    0    0 -0.61689854075E+02 -0.45884679292E+01 -0.88793037868E+01  0.62494273094E+02  0.00000000000E+00 0. -1.
</event>
<event>
 4    1  0.1976955E-002  0.9118800E+02  0.7818608E-02  0.1130116E+00
         25   -1    0    0    0    0  0.00000000000E+00  0.00000000000E+00  0.99999998245E-14  0.12500000000E+03  0.12500000000E+03 0.  0.
        -11    1    1    0    0    0  0.12722374460E+01  0.11379206141E+01  0.80537957904E+00  0.18873494563E+01  0.51100000000E-03 0. -1.
         11    1    1    0    0    0  0.40841844445E+02  0.36578803512E+02  0.25842374414E+02  0.60612650822E+02  0.51100000000E-03 0.  1.
         22    1    1    0    0    0 -0.42114081891E+02 -0.37716724126E+02 -0.26647753993E+02  0.62499999722E+02  0.00000000000E+00 0.  1.
</event>
<event>
 4    1  0.1976955E-002  0.9118800E+02  0.7818608E-02  0.1130116E+00
         25   -1    0    0    0    0  0.00000000000E+00  0.00000000000E+00  0.99999998245E-14  0.12500000000E+03  0.12500000000E+03 0.  0.
        -11    1    1    0    0    0  0.44963146169E+01  0.68068943992E+00  0.13423501931E+01  0.47415279762E+01  0.51100000000E-03 0. -1.
         11    1    1    0    0    0  0.52740564832E+02  0.11371430636E+01  0.23606709427E+02  0.57793918395E+02  0.51100000000E-03 0.  1.
         22    1    1    0    0    0 -0.57236879449E+02 -0.18178325035E+01 -0.24949059620E+02  0.62464553629E+02  0.00000000000E+00 0.  1.
</event>
<event>
 4    1  0.1976955E-002  0.9118800E+02  0.7818608E-02  0.1130116E+00
         25   -1    0    0    0    0  0.00000000000E+00  0.00000000000E+00  0.99999998245E-14  0.12500000000E+03  0.12500000000E+03 0.  0.
        -11    1    1    0    0    0 -0.25897897238E+02 -0.54746352435E+01 -0.25588355704E+02  0.36816255382E+02  0.51100000000E-03 0.  1.
         11    1    1    0    0    0 -0.21074904756E+02  0.18443355823E+01 -0.15052436932E+02  0.25963995110E+02  0.51100000000E-03 0. -1.
         22    1    1    0    0    0  0.46972801994E+02  0.36302996611E+01  0.40640792636E+02  0.62219749509E+02  0.00000000000E+00 0.  1.
</event>
<event>
 4    1  0.1976955E-002  0.9118800E+02  0.7818608E-02  0.1130116E+00
         25   -1    0    0    0    0  0.00000000000E+00  0.00000000000E+00  0.99999998245E-14  0.12500000000E+03  0.12500000000E+03 0.  0.
        -11    1    1    0    0    0  0.79194083008E+01 -0.22059997986E+02 -0.44611790937E+02  0.50394170594E+02  0.51100000000E-03 0.  1.
         11    1    1    0    0    0  0.19011584037E+01 -0.52995932359E+01 -0.10716856557E+02  0.12105829441E+02  0.51100000000E-03 0. -1.
         22    1    1    0    0    0 -0.98205667045E+01  0.27359591222E+02  0.55328647493E+02  0.62499999965E+02  0.00000000000E+00 0.  1.
</event>
<event>
 4    1  0.1976955E-002  0.9118800E+02  0.7818608E-02  0.1130116E+00
         25   -1    0    0    0    0  0.00000000000E+00  0.00000000000E+00  0.99999998245E-14  0.12500000000E+03  0.12500000000E+03 0.  0.
        -11    1    1    0    0    0 -0.29559945422E+01  0.55744819648E+01 -0.26094094829E+01  0.68280136950E+01  0.51100000000E-03 0.  1.
         11    1    1    0    0    0  0.15481333602E+01  0.47884347854E+02 -0.29047237485E+02  0.56027220991E+02  0.51100000000E-03 0. -1.
         22    1    1    0    0    0  0.14078611820E+01 -0.53458829818E+02  0.31656646967E+02  0.62144765314E+02  0.00000000000E+00 0. -1.
</event>
<event>
 4    1  0.1976955E-002  0.9118800E+02  0.7818608E-02  0.1130116E+00
         25   -1    0    0    0    0  0.00000000000E+00  0.00000000000E+00  0.99999998245E-14  0.12500000000E+03  0.12500000000E+03 0.  0.
        -11    1    1    0    0    0  0.52307679206E+01  0.53654618474E+00 -0.41369275858E+01  0.66905145511E+01  0.51100000000E-03 0. -1.
         11    1    1    0    0    0  0.44087900097E+02  0.49141945960E+01 -0.33865173158E+02  0.55809875442E+02  0.51100000000E-03 0.  1.
         22    1    1    0    0    0 -0.49318668018E+02 -0.54507407807E+01  0.38002100744E+02  0.62499610007E+02  0.00000000000E+00 0.  1.
</event>
<event>
 4    1  0.1976955E-002  0.9118800E+02  0.7818608E-02  0.1130116E+00
         25   -1    0    0    0    0  0.00000000000E+00  0.00000000000E+00  0.99999998245E-14  0.12500000000E+03  0.12500000000E+03 0.  0.
        -11    1    1    0    0    0 -0.47881889381E+01  0.13037547793E+01 -0.41963204483E+01  0.64988949367E+01  0.51100000000E-03 0.  1.
         11    1    1    0    0    0 -0.41595176352E+02  0.12194690666E+02 -0.35458904558E+02  0.56001813264E+02  0.51100000000E-03 0. -1.
         22    1    1    0    0    0  0.46383365290E+02 -0.13498445446E+02  0.39655225007E+02  0.62499291799E+02  0.00000000000E+00 0. -1.
</event>
<event>
 4    1  0.1976955E-002  0.9118800E+02  0.7818608E-02  0.1130116E+00
         25   -1    0    0    0    0  0.00000000000E+00  0.00000000000E+00  0.99999998245E-14  0.12500000000E+03  0.12500000000E+03 0.  0.
        -11    1    1    0    0    0  0.69644410883E+01 -0.14703288345E+02  0.10147714241E+02  0.19174624700E+02  0.51100000000E-03 0. -1.
         11    1    1    0    0    0  0.12072481323E+02 -0.41814850280E+02  0.62618858243E+01  0.43970873582E+02  0.51100000000E-03 0.  1.
         22    1    1    0    0    0 -0.19036922411E+02  0.56518138624E+02 -0.16409600066E+02  0.61854501718E+02  0.00000000000E+00 0.  1.
</event>
<event>
 4    1  0.1976955E-002  0.9118800E+02  0.7818608E-02  0.1130116E+00
         25   -1    0    0    0    0  0.00000000000E+00  0.00000000000E+00  0.99999998245E-14  0.12500000000E+03  0.12500000000E+03 0.  0.
        -11    1    1    0    0    0  0.69714353894E+01 -0.29188505491E+02 -0.14715849391E+02  0.33423434709E+02  0.51100000000E-03 0. -1.
         11    1    1    0    0    0  0.60636515335E+01 -0.25392448831E+02 -0.12802434220E+02  0.29076565302E+02  0.51100000000E-03 0.  1.
         22    1    1    0    0    0 -0.13035086923E+02  0.54580954322E+02  0.27518283611E+02  0.62499999989E+02  0.00000000000E+00 0.  1.
</event>
<event>
 4    1  0.1976955E-002  0.9118800E+02  0.7818608E-02  0.1130116E+00
         25   -1    0    0    0    0  0.00000000000E+00  0.00000000000E+00  0.99999998245E-14  0.12500000000E+03  0.12500000000E+03 0.  0.
        -11    1    1    0    0    0 -0.31018031320E+02 -0.36782126016E+02  0.11480702776E+02  0.49465640577E+02  0.51100000000E-03 0. -1.
         11    1    1    0    0    0 -0.81737155061E+01 -0.96920077217E+01  0.30248779679E+01  0.13034359433E+02  0.51100000000E-03 0.  1.
         22    1    1    0    0    0  0.39191746826E+02  0.46474133738E+02 -0.14505580744E+02  0.62499999989E+02  0.00000000000E+00 0. -1.
</event>
<event>
 4    1  0.1976955E-002  0.9118800E+02  0.7818608E-02  0.1130116E+00
         25   -1    0    0    0    0  0.00000000000E+00  0.00000000000E+00  0.99999998245E-14  0.12500000000E+03  0.12500000000E+03 0.  0.
        -11    1    1    0    0    0 -0.12158581882E+02  0.35333315421E+02 -0.47569328373E+02  0.60490621538E+02  0.51100000000E-03 0. -1.
         11    1    1    0    0    0 -0.41986570546E+00  0.11779637595E+01 -0.15728553806E+01  0.20094178606E+01  0.51100000000E-03 0.  1.
         22    1    1    0    0    0  0.12578447588E+02 -0.36511279180E+02  0.49142183753E+02  0.62499960601E+02  0.00000000000E+00 0. -1.
</event>
<event>
 4    1  0.1976955E-002  0.9118800E+02  0.7818608E-02  0.1130116E+00
         25   -1    0    0    0    0  0.00000000000E+00  0.00000000000E+00  0.99999998245E-14  0.12500000000E+03  0.12500000000E+03 0.  0.
        -11    1    1    0    0    0  0.88257351366E+01  0.98437742535E+01 -0.83247494209E+01  0.15623538186E+02  0.51100000000E-03 0.  1.
         11    1    1    0    0    0  0.27976804916E+02  0.28500889025E+02 -0.24552727740E+02  0.46881112702E+02  0.51100000000E-03 0. -1.
         22    1    1    0    0    0 -0.36802540052E+02 -0.38344663278E+02  0.32877477161E+02  0.62495349112E+02  0.00000000000E+00 0. -1.
</event>
<event>
 4    1  0.1976955E-002  0.9118800E+02  0.7818608E-02  0.1130116E+00
         25   -1    0    0    0    0  0.00000000000E+00  0.00000000000E+00  0.99999998245E-14  0.12500000000E+03  0.12500000000E+03 0.  0.
        -11    1    1    0    0    0  0.18440271949E+02 -0.49538515040E+02  0.12695909280E+02  0.54362617805E+02  0.51100000000E-03 0.  1.
         11    1    1    0    0    0  0.30789814018E+01 -0.59032447389E+01  0.52920953555E+01  0.85049808014E+01  0.51100000000E-03 0. -1.
         22    1    1    0    0    0 -0.21519253351E+02  0.55441759779E+02 -0.17988004635E+02  0.62132401393E+02  0.00000000000E+00 0.  1.
</event>
<event>
 4    1  0.1976955E-002  0.9118800E+02  0.7818608E-02  0.1130116E+00
         25   -1    0    0    0    0  0.00000000000E+00  0.00000000000E+00  0.99999998245E-14  0.12500000000E+03  0.12500000000E+03 0.  0.
        -11    1    1    0    0    0  0.53450910365E+01 -0.27935175373E+01 -0.90296198767E+00  0.60982849254E+01  0.51100000000E-03 0.  1.
         11    1    1    0    0    0  0.49265260326E+02 -0.26073370444E+02 -0.86182695346E+01  0.56401782696E+02  0.51100000000E-03 0. -1.
         22    1    1    0    0    0 -0.54610351362E+02  0.28866887981E+02  0.95212315223E+01  0.62499932379E+02  0.00000000000E+00 0. -1.
</event>
<event>
 4    1  0.1976955E-002  0.9118800E+02  0.7818608E-02  0.1130116E+00
         25   -1    0    0    0    0  0.00000000000E+00  0.00000000000E+00  0.99999998245E-14  0.12500000000E+03  0.12500000000E+03 0.  0.
        -11    1    1    0    0    0  0.98640265224E+01 -0.11913840081E+02 -0.13049994898E+01  0.15522294568E+02  0.51100000000E-03 0. -1.
         11    1    1    0    0    0 -0.43181821309E+02 -0.55503826114E+01  0.37361712691E+02  0.57370497768E+02  0.51100000000E-03 0.  1.
         22    1    1    0    0    0  0.33317794787E+02  0.17464222693E+02 -0.36056713201E+02  0.52107207664E+02  0.00000000000E+00 0.  1.
</event>
<event>
 4    1  0.1976955E-002  0.9118800E+02  0.7818608E-02  0.1130116E+00
         25   -1    0    0    0    0  0.00000000000E+00  0.00000000000E+00  0.99999998245E-14  0.12500000000E+03  0.12500000000E+03 0.  0.
        -11    1    1    0    0    0 -0.18741045993E+02  0.28778204889E+02  0.16456610231E+02  0.38081910431E+02  0.51100000000E-03 0. -1.
         11    1    1    0    0    0 -0.11965313925E+02  0.18572369219E+02  0.10399697343E+02  0.24418340255E+02  0.51100000000E-03 0.  1.
         22    1    1    0    0    0  0.30706359918E+02 -0.47350574108E+02 -0.26856307573E+02  0.62499749314E+02  0.00000000000E+00 0. -1.
</event>
<event>
 4    1  0.1976955E-002  0.9118800E+02  0.7818608E-02  0.1130116E+00
         25   -1    0    0    0    0  0.00000000000E+00  0.00000000000E+00  0.99999998245E-14  0.12500000000E+03  0.12500000000E+03 0.  0.
        -11    1    1    0    0    0  0.15219714345E+01  0.77222802751E+00  0.73643860681E+01  0.75595578968E+01  0.51100000000E-03 0.  1.
         11    1    1    0    0    0  0.11019012987E+02  0.56794301186E+01  0.53523620822E+02  0.54940445574E+02  0.51100000000E-03 0. -1.
         22    1    1    0    0    0 -0.12540984421E+02 -0.64516581461E+01 -0.60888006890E+02  0.62499996529E+02  0.00000000000E+00 0. -1.
</event>
<event>
 4    1  0.1976955E-002  0.9118800E+02  0.7818608E-02  0.1130116E+00
         25   -1    0    0    0    0  0.00000000000E+00  0.00000000000E+00  0.99999998245E-14  0.12500000000E+03  0.12500000000E+03 0.  0.
        -11    1    1    0    0    0 -0.19175544134E+02  0.10513465549E+02 -0.49112768521E+02  0.53761496284E+02  0.51100000000E-03 0.  1.
         11    1    1    0    0    0 -0.31423372793E+01  0.16943479876E+01 -0.79760102408E+01  0.87385260944E+01  0.51100000000E-03 0. -1.
         22    1    1    0    0    0  0.22317881413E+02 -0.12207813537E+02  0.57088778762E+02  0.62499977621E+02  0.00000000000E+00 0.  1.
</event>
<event>
 4    1  0.1976955E-002  0.9118800E+02  0.7818608E-02  0.1130116E+00
         25   -1    0    0    0    0  0.00000000000E+00  0.00000000000E+00  0.99999998245E-14  0.12500000000E+03  0.12500000000E+03 0.  0.
        -11    1    1    0    0    0  0.27270337937E+02 -0.31452484680E+02 -0.21415219276E+02  0.46813905420E+02  0.51100000000E-03 0. -1.
         11    1    1    0    0    0  0.91271720489E+01 -0.10543763147E+02 -0.71817418033E+01  0.15686096599E+02  0.51100000000E-03 0.  1.
         22    1    1    0    0    0 -0.36397509986E+02  0.41996247827E+02  0.28596961080E+02  0.62499997982E+02  0.00000000000E+00 0. -1.
</event>
<event>
 4    1  0.1976955E-002  0.9118800E+02  0.7818608E-02  0.1130116E+00
         25   -1    0    0    0    0  0.00000000000E+00  0.00000000000E+00  0.99999998245E-14  0.12500000000E+03  0.12500000000E+03 0.  0.
        -11    1    1    0    0    0 -0.48529689853E+02 -0.24788188305E+02  0.30234347479E+02  0.62319345667E+02  0.51100000000E-03 0.  1.
         11    1    1    0    0    0 -0.12988961088E+00 -0.14981088924E+00  0.44111016010E-02  0.19832884936E+00  0.51100000000E-03 0. -1.
         22    1    1    0    0    0  0.48659579464E+02  0.24937999194E+02 -0.30238758580E+02  0.62482325484E+02  0.00000000000E+00 0.  1.
</event>
<event>
 4    1  0.1976955E-002  0.9118800E+02  0.7818608E-02  0.1130116E+00
         25   -1    0    0    0    0  0.00000000000E+00  0.00000000000E+00  0.99999998245E-14  0.12500000000E+03  0.12500000000E+03 0.  0.
        -11    1    1    0    0    0  0.49438963089E+00  0.30555995628E+01 -0.21641733536E+00  0.31028932498E+01  0.51100000000E-03 0.  1.
         11    1    1    0    0    0  0.94647551961E+01  0.58491880977E+02 -0.41393914798E+01  0.59397106775E+02  0.51100000000E-03 0.  1.
         22    1    1    0    0    0 -0.99591448270E+01 -0.61547480540E+02  0.43558088151E+01  0.62499999975E+02  0.00000000000E+00 0.  1.
</event>
<event>
 4    1  0.1976955E-002  0.9118800E+02  0.7818608E-02  0.1130116E+00
         25   -1    0    0    0    0  0.00000000000E+00  0.00000000000E+00  0.99999998245E-14  0.12500000000E+03  0.12500000000E+03 0.  0.
        -11    1    1    0    0    0  0.43991326872E+01 -0.44084629078E+02 -0.38974488884E+01  0.44474678160E+02  0.51100000000E-03 0. -1.
         11    1    1    0    0    0  0.17121627899E+01 -0.17874229559E+02 -0.15793807204E+01  0.18025371771E+02  0.51100000000E-03 0.  1.
         22    1    1    0    0    0 -0.61112954770E+01  0.61958858637E+02  0.54768296088E+01  0.62499950069E+02  0.00000000000E+00 0. -1.
</event>
<event>
 4    1  0.1976955E-002  0.9118800E+02  0.7818608E-02  0.1130116E+00
         25   -1    0    0    0    0  0.00000000000E+00  0.00000000000E+00  0.99999998245E-14  0.12500000000E+03  0.12500000000E+03 0.  0.
        -11    1    1    0    0    0  0.29478557856E+02  0.19660101052E+02  0.39968023641E+02  0.53412993369E+02  0.51100000000E-03 0.  1.
         11    1    1    0    0    0  0.17804580930E+01  0.59685238996E+01  0.71655481390E+01  0.94941239171E+01  0.51100000000E-03 0. -1.
         22    1    1    0    0    0 -0.31259015949E+02 -0.25628624952E+02 -0.47133571780E+02  0.62092882714E+02  0.00000000000E+00 0.  1.
</event>
<event>
 4    1  0.1976955E-002  0.9118800E+02  0.7818608E-02  0.1130116E+00
         25   -1    0    0    0    0  0.00000000000E+00  0.00000000000E+00  0.99999998245E-14  0.12500000000E+03  0.12500000000E+03 0.  0.
        -11    1    1    0    0    0 -0.11035371867E+02 -0.27239437140E+02 -0.52126855564E+01  0.29848592243E+02  0.51100000000E-03 0. -1.
         11    1    1    0    0    0 -0.12024146530E+02 -0.29900619238E+02 -0.52478261086E+01  0.32652209875E+02  0.51100000000E-03 0.  1.
         22    1    1    0    0    0  0.23059518397E+02  0.57140056378E+02  0.10460511665E+02  0.62499197882E+02  0.00000000000E+00 0.  1.
</event>
<event>
 4    1  0.1976955E-002  0.9118800E+02  0.7818608E-02  0.1130116E+00
         25   -1    0    0    0    0  0.00000000000E+00  0.00000000000E+00  0.99999998245E-14  0.12500000000E+03  0.12500000000E+03 0.  0.
        -11    1    1    0    0    0 -0.55862137828E+02  0.17743348454E+02 -0.17704447015E+02  0.61227871933E+02  0.51100000000E-03 0. -1.
         11    1    1    0    0    0 -0.11609062552E+01  0.36813467094E+00 -0.36753698308E+00  0.12721282028E+01  0.51100000000E-03 0. -1.
         22    1    1    0    0    0  0.57023044083E+02 -0.18111483124E+02  0.18071983998E+02  0.62499999865E+02  0.00000000000E+00 0. -1.
</event>
<event>
 4    1  0.1976955E-002  0.9118800E+02  0.7818608E-02  0.1130116E+00
         25   -1    0    0    0    0  0.00000000000E+00  0.00000000000E+00  0.99999998245E-14  0.12500000000E+03  0.12500000000E+03 0.  0.
        -11    1    1    0    0    0 -0.69919896335E+01 -0.25904277852E+01  0.14162680693E+02  0.16005616508E+02  0.51100000000E-03 0.  1.
         11    1    1    0    0    0 -0.94822705653E+01 -0.26323862696E+02  0.37958040600E+02  0.47155827305E+02  0.51100000000E-03 0. -1.
         22    1    1    0    0    0  0.16474260199E+02  0.28914290482E+02 -0.52120721293E+02  0.61838556187E+02  0.00000000000E+00 0. -1.
</event>
<event>
 4    1  0.1976955E-002  0.9118800E+02  0.7818608E-02  0.1130116E+00
         25   -1    0    0    0    0  0.00000000000E+00  0.00000000000E+00  0.99999998245E-14  0.12500000000E+03  0.12500000000E+03 0.  0.
        -11    1    1    0    0    0 -0.33411914934E+02 -0.32269878222E+02 -0.10441235419E+02  0.47610088189E+02  0.51100000000E-03 0. -1.
         11    1    1    0    0    0 -0.10427631950E+02 -0.10110430802E+02 -0.32792581278E+01  0.14889924553E+02  0.51100000000E-03 0.  1.
         22    1    1    0    0    0  0.43839546884E+02  0.42380309024E+02  0.13720493547E+02  0.62499987257E+02  0.00000000000E+00 0. -1.
</event>
<event>
 4    1  0.1976955E-002  0.9118800E+02  0.7818608E-02  0.1130116E+00
         25   -1    0    0    0    0  0.00000000000E+00  0.00000000000E+00  0.99999998245E-14  0.12500000000E+03  0.12500000000E+03 0.  0.
        -11    1    1    0    0    0 -0.10216976827E+02  0.43508668350E+01 -0.45763732957E+00  0.11114229163E+02  0.51100000000E-03 0.  1.
         11    1    1    0    0    0 -0.47244886421E+02  0.20101421466E+02 -0.20859315365E+01  0.51385771849E+02  0.51100000000E-03 0. -1.
         22    1    1    0    0    0  0.57461863247E+02 -0.24452288301E+02  0.25435688661E+01  0.62499998989E+02  0.00000000000E+00 0. -1.
</event>
<event>
 4    1  0.1976955E-002  0.9118800E+02  0.7818608E-02  0.1130116E+00
         25   -1    0    0    0    0  0.00000000000E+00  0.00000000000E+00  0.99999998245E-14  0.12500000000E+03  0.12500000000E+03 0.  0.
        -11    1    1    0    0    0 -0.13632342396E+02 -0.36149042931E+02 -0.40408852906E+02  0.55905898234E+02  0.51100000000E-03 0. -1.
         11    1    1    0    0    0 -0.18068437949E+01 -0.42661252994E+01 -0.46944299637E+01  0.65956184331E+01  0.51100000000E-03 0.  1.
         22    1    1    0    0    0  0.15439186190E+02  0.40415168230E+02  0.45103282869E+02  0.62498483333E+02  0.00000000000E+00 0. -1.
</event>
<event>
 4    1  0.1976955E-002  0.9118800E+02  0.7818608E-02  0.1130116E+00
         25   -1    0    0    0    0  0.00000000000E+00  0.00000000000E+00  0.99999998245E-14  0.12500000000E+03  0.12500000000E+03 0.  0.
        -11    1    1    0    0    0  0.41095366291E+02  0.39648264831E+02  0.28280003926E+01  0.57173522029E+02  0.51100000000E-03 0. -1.
         11    1    1    0    0    0  0.38269177661E+01  0.36941029767E+01  0.28255815145E+00  0.53264937586E+01  0.51100000000E-03 0.  1.
         22    1    1    0    0    0 -0.44922284057E+02 -0.43342367808E+02 -0.31105585441E+01  0.62499984212E+02  0.00000000000E+00 0. -1.
</event>
<event>
 4    1  0.1976955E-002  0.9118800E+02  0.7818608E-02  0.1130116E+00
         25   -1    0    0    0    0  0.00000000000E+00  0.00000000000E+00  0.99999998245E-14  0.12500000000E+03  0.12500000000E+03 0.  0.
        -11    1    1    0    0    0 -0.13145320214E+02 -0.13690723159E+02  0.18083345528E+01  0.19065818059E+02  0.51100000000E-03 0.  1.
         11    1    1    0    0    0 -0.31437006121E+02 -0.29949886805E+02  0.16569276451E+01  0.43451426708E+02  0.51100000000E-03 0. -1.
         22    1    1    0    0    0  0.44582326335E+02  0.43640609963E+02 -0.34652621979E+01  0.62482755233E+02  0.00000000000E+00 0. -1.
</event>
<event>
 4    1  0.1976955E-002  0.9118800E+02  0.7818608E-02  0.1130116E+00
         25   -1    0    0    0    0  0.00000000000E+00  0.00000000000E+00  0.99999998245E-14  0.12500000000E+03  0.12500000000E+03 0.  0.
        -11    1    1    0    0    0  0.41643922701E+02  0.75460498243E+00 -0.30419658238E+02  0.51576557991E+02  0.51100000000E-03 0.  1.
         11    1    1    0    0    0  0.88142729618E+01  0.16041366313E+00 -0.64501535724E+01  0.10923443677E+02  0.51100000000E-03 0. -1.
         22    1    1    0    0    0 -0.50458195663E+02 -0.91501864555E+00  0.36869811810E+02  0.62499998333E+02  0.00000000000E+00 0.  1.
</event>
<event>
 4    1  0.1976955E-002  0.9118800E+02  0.7818608E-02  0.1130116E+00
         25   -1    0    0    0    0  0.00000000000E+00  0.00000000000E+00  0.99999998245E-14  0.12500000000E+03  0.12500000000E+03 0.  0.
        -11    1    1    0    0    0 -0.26383638294E+01 -0.61296508394E+00  0.32849600187E+01  0.42576580976E+01  0.51100000000E-03 0. -1.
         11    1    1    0    0    0 -0.26290258168E+02 -0.75792761524E+01  0.51461570307E+02  0.58283070614E+02  0.51100000000E-03 0.  1.
         22    1    1    0    0    0  0.28928621997E+02  0.81922412364E+01 -0.54746530326E+02  0.62459271288E+02  0.00000000000E+00 0.  1.
</event>
<event>
 4    1  0.1976955E-002  0.9118800E+02  0.7818608E-02  0.1130116E+00
         25   -1    0    0    0    0  0.00000000000E+00  0.00000000000E+00  0.99999998245E-14  0.12500000000E+03  0.12500000000E+03 0.  0.
        -11    1    1    0    0    0  0.32695101946E+01  0.13109487027E+02 -0.13501715205E+02  0.19100907328E+02  0.51100000000E-03 0.  1.
         11    1    1    0    0    0  0.74243199640E+01  0.29788889204E+02 -0.30675442988E+02  0.43399092730E+02  0.51100000000E-03 0. -1.
         22    1    1    0    0    0 -0.10693830159E+02 -0.42898376231E+02  0.44177158194E+02  0.62499999942E+02  0.00000000000E+00 0.  1.
</event>
<event>
 4    1  0.1976955E-002  0.9118800E+02  0.7818608E-02  0.1130116E+00
         25   -1    0    0    0    0  0.00000000000E+00  0.00000000000E+00  0.99999998245E-14  0.12500000000E+03  0.12500000000E+03 0.  0.
        -11    1    1    0    0    0 -0.93025600078E+01 -0.20325996061E+02  0.10266510263E+02  0.24598474989E+02  0.51100000000E-03 0.  1.
         11    1    1    0    0    0 -0.17198446689E+02 -0.25449387067E+02  0.22595141748E+02  0.38131329658E+02  0.51100000000E-03 0. -1.
         22    1    1    0    0    0  0.26501006696E+02  0.45775383128E+02 -0.32861652011E+02  0.62270195353E+02  0.00000000000E+00 0. -1.
</event>
<event>
 4    1  0.1976955E-002  0.9118800E+02  0.7818608E-02  0.1130116E+00
         25   -1    0    0    0    0  0.00000000000E+00  0.00000000000E+00  0.99999998245E-14  0.12500000000E+03  0.12500000000E+03 0.  0.
        -11    1    1    0    0    0 -0.30410647316E+02 -0.42335838222E+02 -0.17098879611E+02  0.54858931382E+02  0.51100000000E-03 0. -1.
         11    1    1    0    0    0 -0.42285388221E+01 -0.59014512241E+01 -0.23829174658E+01  0.76410708039E+01  0.51100000000E-03 0.  1.
         22    1    1    0    0    0  0.34639186138E+02  0.48237289447E+02  0.19481797077E+02  0.62499997814E+02  0.00000000000E+00 0. -1.
</event>
<event>
 4    1  0.1976955E-002  0.9118800E+02  0.7818608E-02  0.1130116E+00
         25   -1    0    0    0    0  0.00000000000E+00  0.00000000000E+00  0.99999998245E-14  0.12500000000E+03  0.12500000000E+03 0.  0.
        -11    1    1    0    0    0 -0.16280658118E+02 -0.50077596013E+02 -0.25426968663E+02  0.58475261324E+02  0.51100000000E-03 0.  1.
         11    1    1    0    0    0 -0.11213194349E+01 -0.34551731691E+01 -0.17329493120E+01  0.40247599285E+01  0.51100000000E-03 0. -1.
         22    1    1    0    0    0  0.17401977553E+02  0.53532769182E+02  0.27159917975E+02  0.62499978748E+02  0.00000000000E+00 0.  1.
</event>
<event>
 4    1  0.1976955E-002  0.9118800E+02  0.7818608E-02  0.1130116E+00
         25   -1    0    0    0    0  0.00000000000E+00  0.00000000000E+00  0.99999998245E-14  0.12500000000E+03  0.12500000000E+03 0.  0.
        -11    1    1    0    0    0 -0.80143295806E+01 -0.62588037363E+01  0.47563514779E+01  0.11226084913E+02  0.51100000000E-03 0. -1.
         11    1    1    0    0    0 -0.36627895920E+02 -0.28540016737E+02  0.21745788976E+02  0.51273917866E+02  0.51100000000E-03 0.  1.
         22    1    1    0    0    0  0.44642225501E+02  0.34798820473E+02 -0.26502140454E+02  0.62499997221E+02  0.00000000000E+00 0.  1.
</event>
<event>
 4    1  0.1976955E-002  0.9118800E+02  0.7818608E-02  0.1130116E+00
         25   -1    0    0    0    0  0.00000000000E+00  0.00000000000E+00  0.99999998245E-14  0.12500000000E+03  0.12500000000E+03 0.  0.
        -11    1    1    0    0    0  0.22114102346E+02  0.10867965821E+02 -0.83466996362E+01  0.26015641425E+02  0.51100000000E-03 0. -1.
         11    1    1    0    0    0  0.14042205307E+01  0.10733031653E+02 -0.39780408971E+02  0.41226820662E+02  0.51100000000E-03 0.  1.
         22    1    1    0    0    0 -0.23518322877E+02 -0.21600997474E+02  0.48127108607E+02  0.57757537913E+02  0.00000000000E+00 0.  1.
</event>
<event>
 4    1  0.1976955E-002  0.9118800E+02  0.7818608E-02  0.1130116E+00
         25   -1    0    0    0    0  0.00000000000E+00  0.00000000000E+00  0.99999998245E-14  0.12500000000E+03  0.12500000000E+03 0.  0.
        -11    1    1    0    0    0 -0.10288145334E+02  0.13623509626E+02 -0.13077650068E+02  0.21505136142E+02  0.51100000000E-03 0. -1.
         11    1    1    0    0    0 -0.27757975378E+02  0.14320722066E+02 -0.27217852605E+02  0.41429455443E+02  0.51100000000E-03 0.  1.
         22    1    1    0    0    0  0.38046120712E+02 -0.27944231692E+02  0.40295502673E+02  0.62065408415E+02  0.00000000000E+00 0. -1.
</event>
<event>
 4    1  0.1976955E-002  0.9118800E+02  0.7818608E-02  0.1130116E+00
         25   -1    0    0    0    0  0.00000000000E+00  0.00000000000E+00  0.99999998245E-14  0.12500000000E+03  0.12500000000E+03 0.  0.
        -11    1    1    0    0    0 -0.49908225224E+01  0.38370383226E+01 -0.16424175470E+02  0.17589335197E+02  0.51100000000E-03 0. -1.
         11    1    1    0    0    0 -0.27750906765E+02 -0.16571071904E+02 -0.33379030564E+02  0.46463673251E+02  0.51100000000E-03 0.  1.
         22    1    1    0    0    0  0.32741729288E+02  0.12734033581E+02  0.49803206034E+02  0.60946991552E+02  0.00000000000E+00 0.  1.
</event>
<event>
 4    1  0.1976955E-002  0.9118800E+02  0.7818608E-02  0.1130116E+00
         25   -1    0    0    0    0  0.00000000000E+00  0.00000000000E+00  0.99999998245E-14  0.12500000000E+03  0.12500000000E+03 0.  0.
        -11    1    1    0    0    0  0.17296887726E+01 -0.97867910810E+01  0.47422450423E+01  0.11011902252E+02  0.51100000000E-03 0.  1.
         11    1    1    0    0    0  0.80623409278E+01 -0.45719818566E+02  0.22264815190E+02  0.51488106847E+02  0.51100000000E-03 0. -1.
         22    1    1    0    0    0 -0.97920297004E+01  0.55506609647E+02 -0.27007060232E+02  0.62499990901E+02  0.00000000000E+00 0. -1.
</event>
<event>
 4    1  0.1976955E-002  0.9118800E+02  0.7818608E-02  0.1130116E+00
         25   -1    0    0    0    0  0.00000000000E+00  0.00000000000E+00  0.99999998245E-14  0.12500000000E+03  0.12500000000E+03 0.  0.
        -11    1    1    0    0    0 -0.83232892418E+00  0.21891959780E+02 -0.62738637022E+00  0.21916758163E+02  0.51100000000E-03 0. -1.
         11    1    1    0    0    0 -0.14734767975E+01  0.40542071257E+02 -0.10820190148E+01  0.40583265530E+02  0.51100000000E-03 0.  1.
         22    1    1    0    0    0  0.23058057217E+01 -0.62434031037E+02  0.17094053851E+01  0.62499976307E+02  0.00000000000E+00 0.  1.
</event>
<event>
 4    1  0.1976955E-002  0.9118800E+02  0.7818608E-02  0.1130116E+00
         25   -1    0    0    0    0  0.00000000000E+00  0.00000000000E+00  0.99999998245E-14  0.12500000000E+03  0.12500000000E+03 0.  0.
        -11    1    1    0    0    0 -0.87283929936E+01 -0.14201929064E+02  0.44777051221E+01  0.17260633731E+02  0.51100000000E-03 0.  1.
         11    1    1    0    0    0 -0.13698768651E+02 -0.35645358460E+02  0.24994820849E+02  0.45639773355E+02  0.51100000000E-03 0. -1.
         22    1    1    0    0    0  0.22427161645E+02  0.49847287524E+02 -0.29472525971E+02  0.62099592914E+02  0.00000000000E+00 0. -1.
</event>
<event>
 4    1  0.1976955E-002  0.9118800E+02  0.7818608E-02  0.1130116E+00
         25   -1    0    0    0    0  0.00000000000E+00  0.00000000000E+00  0.99999998245E-14  0.12500000000E+03  0.12500000000E+03 0.  0.
        -11    1    1    0    0    0  0.15856356848E+02 -0.33097718075E+01 -0.16909805512E+02  0.23416237201E+02  0.51100000000E-03 0. -1.
         11    1    1    0    0    0  0.27509477710E+02  0.34871401180E+02  0.18032064869E+02  0.47936847496E+02  0.51100000000E-03 0.  1.
         22    1    1    0    0    0 -0.43365834558E+02 -0.31561629372E+02 -0.11222593572E+01  0.53646915304E+02  0.00000000000E+00 0.  1.
</event>
<event>
 4    1  0.1976955E-002  0.9118800E+02  0.7818608E-02  0.1130116E+00
         25   -1    0    0    0    0  0.00000000000E+00  0.00000000000E+00  0.99999998245E-14  0.12500000000E+03  0.12500000000E+03 0.  0.
        -11    1    1    0    0    0 -0.23155279544E+01 -0.15010488350E+02  0.26731194800E+02  0.30744645158E+02  0.51100000000E-03 0. -1.
         11    1    1    0    0    0 -0.20251305358E+01 -0.15681798539E+02  0.27539510597E+02  0.31756016805E+02  0.51100000000E-03 0.  1.
         22    1    1    0    0    0  0.43406584902E+01  0.30692286889E+02 -0.54270705398E+02  0.62499338036E+02  0.00000000000E+00 0. -1.
</event>
<event>
 4    1  0.1976955E-002  0.9118800E+02  0.7818608E-02  0.1130116E+00
         25   -1    0    0    0    0  0.00000000000E+00  0.00000000000E+00  0.99999998245E-14  0.12500000000E+03  0.12500000000E+03 0.  0.
        -11    1    1    0    0    0 -0.25287078991E+02 -0.23901463744E+02 -0.43949887734E+02  0.56056301743E+02  0.51100000000E-03 0.  1.
         11    1    1    0    0    0 -0.29052314493E+01 -0.27456731577E+01 -0.50539252404E+01  0.64436985854E+01  0.51100000000E-03 0. -1.
         22    1    1    0    0    0  0.28192310440E+02  0.26647136902E+02  0.49003812974E+02  0.62499999672E+02  0.00000000000E+00 0.  1.
</event>
<event>
 4    1  0.1976955E-002  0.9118800E+02  0.7818608E-02  0.1130116E+00
         25   -1    0    0    0    0  0.00000000000E+00  0.00000000000E+00  0.99999998245E-14  0.12500000000E+03  0.12500000000E+03 0.  0.
        -11    1    1    0    0    0 -0.53752112933E+00 -0.24136917247E+01 -0.62528912974E-01  0.24736100810E+01  0.51100000000E-03 0.  1.
         11    1    1    0    0    0 -0.12469813020E+02 -0.58715430906E+02 -0.44616192786E+00  0.60026636787E+02  0.51100000000E-03 0. -1.
         22    1    1    0    0    0  0.13007334149E+02  0.61129122630E+02  0.50869084083E+00  0.62499753132E+02  0.00000000000E+00 0. -1.
</event>
<event>
 4    1  0.1976955E-002  0.9118800E+02  0.7818608E-02  0.1130116E+00
         25   -1    0    0    0    0  0.00000000000E+00  0.00000000000E+00  0.99999998245E-14  0.12500000000E+03  0.12500000000E+03 0.  0.
        -11    1    1    0    0    0 -0.56703244666E+00 -0.72537167668E+00  0.62276434266E+00  0.11115419706E+01  0.51100000000E-03 0.  1.
         11    1    1    0    0    0 -0.16987877914E+02  0.71618404482E+00  0.59173859594E+02  0.61568226993E+02  0.51100000000E-03 0. -1.
         22    1    1    0    0    0  0.17554910361E+02  0.91876318649E-02 -0.59796623936E+02  0.62320231036E+02  0.00000000000E+00 0. -1.
</event>
<event>
 4    1  0.1976955E-002  0.9118800E+02  0.7818608E-02  0.1130116E+00
         25   -1    0    0    0    0  0.00000000000E+00  0.00000000000E+00  0.99999998245E-14  0.12500000000E+03  0.12500000000E+03 0.  0.
        -11    1    1    0    0    0  0.14764977318E+02 -0.27571630432E+01  0.69964222121E+01  0.16569744334E+02  0.51100000000E-03 0. -1.
         11    1    1    0    0    0  0.42810206591E+02 -0.65123346221E+01  0.15401828238E+02  0.45960206744E+02  0.51100000000E-03 0.  1.
         22    1    1    0    0    0 -0.57575183909E+02  0.92694976653E+01 -0.22398250450E+02  0.62470048922E+02  0.00000000000E+00 0.  1.
</event>
<event>
 4    1  0.1976955E-002  0.9118800E+02  0.7818608E-02  0.1130116E+00
         25   -1    0    0    0    0  0.00000000000E+00  0.00000000000E+00  0.99999998245E-14  0.12500000000E+03  0.12500000000E+03 0.  0.
        -11    1    1    0    0    0  0.17895007511E+01 -0.45866426097E-01  0.25461540534E+01  0.31124455645E+01  0.51100000000E-03 0. -1.
         11    1    1    0    0    0  0.34122760874E+02 -0.98415377192E+00  0.48595787558E+02  0.59387557088E+02  0.51100000000E-03 0.  1.
         22    1    1    0    0    0 -0.35912261625E+02  0.10300201980E+01 -0.51141941611E+02  0.62499997347E+02  0.00000000000E+00 0.  1.
</event>
<event>
 4    1  0.1976955E-002  0.9118800E+02  0.7818608E-02  0.1130116E+00
         25   -1    0    0    0    0  0.00000000000E+00  0.00000000000E+00  0.99999998245E-14  0.12500000000E+03  0.12500000000E+03 0.  0.
        -11    1    1    0    0    0  0.11301276535E+02  0.32355947147E+02  0.38090424293E+02  0.51239697405E+02  0.51100000000E-03 0.  1.
         11    1    1    0    0    0  0.57509008321E+01  0.48105385430E+01  0.87890195394E+01  0.11552532457E+02  0.51100000000E-03 0. -1.
         22    1    1    0    0    0 -0.17052177367E+02 -0.37166485690E+02 -0.46879443832E+02  0.62207770138E+02  0.00000000000E+00 0.  1.
</event>
<event>
 4    1  0.1976955E-002  0.9118800E+02  0.7818608E-02  0.1130116E+00
         25   -1    0    0    0    0  0.00000000000E+00  0.00000000000E+00  0.99999998245E-14  0.12500000000E+03  0.12500000000E+03 0.  0.
        -11    1    1    0    0    0 -0.24527014473E+01  0.20574145179E+01 -0.20843854381E+01  0.38201258885E+01  0.51100000000E-03 0. -1.
         11    1    1    0    0    0 -0.37635156225E+02  0.31656440615E+02 -0.32012381155E+02  0.58679875289E+02  0.51100000000E-03 0.  1.
         22    1    1    0    0    0  0.40087857672E+02 -0.33713855133E+02  0.34096766593E+02  0.62499998822E+02  0.00000000000E+00 0.  1.
</event>
<event>
 4    1  0.1976955E-002  0.9118800E+02  0.7818608E-02  0.1130116E+00
         25   -1    0    0    0    0  0.00000000000E+00  0.00000000000E+00  0.99999998245E-14  0.12500000000E+03  0.12500000000E+03 0.  0.
        -11    1    1    0    0    0  0.89909764315E+00 -0.99726644227E+01  0.23885915457E+02  0.25899794781E+02  0.51100000000E-03 0.  1.
         11    1    1    0    0    0 -0.12980761330E+01 -0.15810909842E+02  0.33015112937E+02  0.36628780408E+02  0.51100000000E-03 0. -1.
         22    1    1    0    0    0  0.39897848983E+00  0.25783574265E+02 -0.56901028393E+02  0.62471424811E+02  0.00000000000E+00 0. -1.
</event>
<event>
 4    1  0.1976955E-002  0.9118800E+02  0.7818608E-02  0.1130116E+00
         25   -1    0    0    0    0  0.00000000000E+00  0.00000000000E+00  0.99999998245E-14  0.12500000000E+03  0.12500000000E+03 0.  0.
        -11    1    1    0    0    0 -0.13690411618E+02  0.14669567117E+02  0.10967032292E+02  0.22866992964E+02  0.51100000000E-03 0.  1.
         11    1    1    0    0    0 -0.22890096217E+02  0.25990643121E+02  0.19274469507E+02  0.39635529638E+02  0.51100000000E-03 0. -1.
         22    1    1    0    0    0  0.36580507835E+02 -0.40660210238E+02 -0.30241501799E+02  0.62497477398E+02  0.00000000000E+00 0.  1.
</event>
<event>
 4    1  0.1976955E-002  0.9118800E+02  0.7818608E-02  0.1130116E+00
         25   -1    0    0    0    0  0.00000000000E+00  0.00000000000E+00  0.99999998245E-14  0.12500000000E+03  0.12500000000E+03 0.  0.
        -11    1    1    0    0    0 -0.11668232241E+01 -0.28345466852E+01  0.40034788317E+01  0.50422191904E+01  0.51100000000E-03 0.  1.
         11    1    1    0    0    0 -0.13510814880E+02 -0.29607390923E+02  0.47356867141E+02  0.57461400798E+02  0.51100000000E-03 0. -1.
         22    1    1    0    0    0  0.14677638104E+02  0.32441937609E+02 -0.51360345973E+02  0.62496380012E+02  0.00000000000E+00 0. -1.
</event>
<event>
 4    1  0.1976955E-002  0.9118800E+02  0.7818608E-02  0.1130116E+00
         25   -1    0    0    0    0  0.00000000000E+00  0.00000000000E+00  0.99999998245E-14  0.12500000000E+03  0.12500000000E+03 0.  0.
        -11    1    1    0    0    0  0.12113217345E+02  0.30166854448E+02  0.39302695960E+02  0.51004617945E+02  0.51100000000E-03 0. -1.
         11    1    1    0    0    0 -0.21469565798E+01  0.83941041149E+01  0.82521163396E+01  0.11965276043E+02  0.51100000000E-03 0.  1.
         22    1    1    0    0    0 -0.99662607653E+01 -0.38560958563E+02 -0.47554812300E+02  0.62030106012E+02  0.00000000000E+00 0. -1.
</event>
<event>
 4    1  0.1976955E-002  0.9118800E+02  0.7818608E-02  0.1130116E+00
         25   -1    0    0    0    0  0.00000000000E+00  0.00000000000E+00  0.99999998245E-14  0.12500000000E+03  0.12500000000E+03 0.  0.
        -11    1    1    0    0    0 -0.28060257524E+02 -0.21997610711E+02 -0.19057055915E+02  0.40428261275E+02  0.51100000000E-03 0.  1.
         11    1    1    0    0    0 -0.15318648242E+02 -0.12010854705E+02 -0.10403847191E+02  0.22071738747E+02  0.51100000000E-03 0. -1.
         22    1    1    0    0    0  0.43378905766E+02  0.34008465415E+02  0.29460903107E+02  0.62499999978E+02  0.00000000000E+00 0.  1.
</event>
<event>
 4    1  0.1976955E-002  0.9118800E+02  0.7818608E-02  0.1130116E+00
         25   -1    0    0    0    0  0.00000000000E+00  0.00000000000E+00  0.99999998245E-14  0.12500000000E+03  0.12500000000E+03 0.  0.
        -11    1    1    0    0    0  0.33326090604E+02 -0.41183299116E+02  0.11574470023E+01  0.52990868316E+02  0.51100000000E-03 0. -1.
         11    1    1    0    0    0 -0.39997338018E+01 -0.99625647427E+01 -0.69178329474E+01  0.12771334296E+02  0.51100000000E-03 0.  1.
         22    1    1    0    0    0 -0.29326356802E+02  0.51145863859E+02  0.57603859451E+01  0.59237797388E+02  0.00000000000E+00 0. -1.
</event>
<event>
 4    1  0.1976955E-002  0.9118800E+02  0.7818608E-02  0.1130116E+00
         25   -1    0    0    0    0  0.00000000000E+00  0.00000000000E+00  0.99999998245E-14  0.12500000000E+03  0.12500000000E+03 0.  0.
        -11    1    1    0    0    0  0.29613124112E+02 -0.51565736471E+02  0.11531614407E+02  0.60571779143E+02  0.51100000000E-03 0. -1.
         11    1    1    0    0    0  0.82044413098E+00 -0.17018069353E+01  0.39777141909E+00  0.19306728827E+01  0.51100000000E-03 0.  1.
         22    1    1    0    0    0 -0.30433568243E+02  0.53267543407E+02 -0.11929385826E+02  0.62497547974E+02  0.00000000000E+00 0. -1.
</event>
<event>
 4    1  0.1976955E-002  0.9118800E+02  0.7818608E-02  0.1130116E+00
         25   -1    0    0    0    0  0.00000000000E+00  0.00000000000E+00  0.99999998245E-14  0.12500000000E+03  0.12500000000E+03 0.  0.
        -11    1    1    0    0    0 -0.46955103139E+02  0.12189355435E+02  0.24564603377E+02  0.54376298477E+02  0.51100000000E-03 0.  1.
         11    1    1    0    0    0 -0.70123249669E+01  0.18271492342E+01  0.36719710835E+01  0.81237028297E+01  0.51100000000E-03 0. -1.
         22    1    1    0    0    0  0.53967428105E+02 -0.14016504669E+02 -0.28236574461E+02  0.62499998694E+02  0.00000000000E+00 0.  1.
</event>
<event>
 4    1  0.1976955E-002  0.9118800E+02  0.7818608E-02  0.1130116E+00
         25   -1    0    0    0    0  0.00000000000E+00  0.00000000000E+00  0.99999998245E-14  0.12500000000E+03  0.12500000000E+03 0.  0.
        -11    1    1    0    0    0 -0.10253719171E+02  0.14576917961E+02 -0.32309510190E+02  0.36898912491E+02  0.51100000000E-03 0. -1.
         11    1    1    0    0    0 -0.66272944472E+01  0.10394471664E+02 -0.22439764225E+02  0.25602911779E+02  0.51100000000E-03 0.  1.
         22    1    1    0    0    0  0.16881013618E+02 -0.24971389625E+02  0.54749274414E+02  0.62498175729E+02  0.00000000000E+00 0. -1.
</event>
<event>
 4    1  0.1976955E-002  0.9118800E+02  0.7818608E-02  0.1130116E+00
         25   -1    0    0    0    0  0.00000000000E+00  0.00000000000E+00  0.99999998245E-14  0.12500000000E+03  0.12500000000E+03 0.  0.
        -11    1    1    0    0    0  0.23297610273E+02  0.22423697618E+02  0.13830739258E+02  0.35169449924E+02  0.51100000000E-03 0.  1.
         11    1    1    0    0    0  0.17471041224E+02  0.17893119203E+02  0.11034288591E+02  0.27334163994E+02  0.51100000000E-03 0. -1.
         22    1    1    0    0    0 -0.40768651497E+02 -0.40316816821E+02 -0.24865027849E+02  0.62496386082E+02  0.00000000000E+00 0.  1.
</event>
<event>
 4    1  0.1976955E-002  0.9118800E+02  0.7818608E-02  0.1130116E+00
         25   -1    0    0    0    0  0.00000000000E+00  0.00000000000E+00  0.99999998245E-14  0.12500000000E+03  0.12500000000E+03 0.  0.
        -11    1    1    0    0    0 -0.54830652080E+01 -0.77332743536E+01 -0.18540097859E+01  0.96594455768E+01  0.51100000000E-03 0. -1.
         11    1    1    0    0    0 -0.36024558664E+02 -0.37398179736E+02 -0.10020185360E+02  0.52884750065E+02  0.51100000000E-03 0.  1.
         22    1    1    0    0    0  0.41507623872E+02  0.45131454089E+02  0.11874195146E+02  0.62455804359E+02  0.00000000000E+00 0.  1.
</event>
<event>
 4    1  0.1976955E-002  0.9118800E+02  0.7818608E-02  0.1130116E+00
         25   -1    0    0    0    0  0.00000000000E+00  0.00000000000E+00  0.99999998245E-14  0.12500000000E+03  0.12500000000E+03 0.  0.
        -11    1    1    0    0    0  0.69179266456E+01  0.48236582686E+01  0.32177545951E+01  0.90265903342E+01  0.51100000000E-03 0. -1.
         11    1    1    0    0    0  0.40971510403E+02  0.28595378085E+02  0.19053746898E+02  0.53473410062E+02  0.51100000000E-03 0.  1.
         22    1    1    0    0    0 -0.47889437049E+02 -0.33419036354E+02 -0.22271501494E+02  0.62499999604E+02  0.00000000000E+00 0.  1.
</event>
<event>
 4    1  0.1976955E-002  0.9118800E+02  0.7818608E-02  0.1130116E+00
         25   -1    0    0    0    0  0.00000000000E+00  0.00000000000E+00  0.99999998245E-14  0.12500000000E+03  0.12500000000E+03 0.  0.
        -11    1    1    0    0    0  0.18301293984E+02  0.51053554594E+02 -0.44642722625E+01  0.54418126807E+02  0.51100000000E-03 0. -1.
         11    1    1    0    0    0  0.27154708536E+01  0.75828010756E+01 -0.66635419537E+00  0.80818736864E+01  0.51100000000E-03 0.  1.
         22    1    1    0    0    0 -0.21016764838E+02 -0.58636355669E+02  0.51306264579E+01  0.62499999506E+02  0.00000000000E+00 0.  1.
</event>
<event>
 4    1  0.1976955E-002  0.9118800E+02  0.7818608E-02  0.1130116E+00
         25   -1    0    0    0    0  0.00000000000E+00  0.00000000000E+00  0.99999998245E-14  0.12500000000E+03  0.12500000000E+03 0.  0.
        -11    1    1    0    0    0 -0.50038763883E+01  0.41299519734E+01 -0.62177524010E+01  0.89864190528E+01  0.51100000000E-03 0.  1.
         11    1    1    0    0    0 -0.29781017743E+02  0.24620183903E+02 -0.37022168297E+02  0.53513581630E+02  0.51100000000E-03 0. -1.
         22    1    1    0    0    0  0.34784894131E+02 -0.28750135877E+02  0.43239920698E+02  0.62499999317E+02  0.00000000000E+00 0. -1.
</event>
<event>
 4    1  0.1976955E-002  0.9118800E+02  0.7818608E-02  0.1130116E+00
         25   -1    0    0    0    0  0.00000000000E+00  0.00000000000E+00  0.99999998245E-14  0.12500000000E+03  0.12500000000E+03 0.  0.
        -11    1    1    0    0    0 -0.11900635882E+02 -0.85644326562E+01 -0.46503256528E+01  0.15381812964E+02  0.51100000000E-03 0. -1.
         11    1    1    0    0    0 -0.35546091919E+02 -0.15049998618E+02 -0.27713832668E+02  0.47519297454E+02  0.51100000000E-03 0.  1.
         22    1    1    0    0    0  0.47446727802E+02  0.23614431274E+02  0.32364158320E+02  0.62098889582E+02  0.00000000000E+00 0.  1.
</event>
<event>
 4    1  0.1976955E-002  0.9118800E+02  0.7818608E-02  0.1130116E+00
         25   -1    0    0    0    0  0.00000000000E+00  0.00000000000E+00  0.99999998245E-14  0.12500000000E+03  0.12500000000E+03 0.  0.
        -11    1    1    0    0    0 -0.32803236632E+02  0.19657630726E+02 -0.41288781579E+02  0.56278221933E+02  0.51100000000E-03 0.  1.
         11    1    1    0    0    0 -0.40230895521E+01  0.18704927875E+01 -0.43765938462E+01  0.62320595928E+01  0.51100000000E-03 0. -1.
         22    1    1    0    0    0  0.36826326185E+02 -0.21528123513E+02  0.45665375426E+02  0.62489718475E+02  0.00000000000E+00 0.  1.
</event>
<event>
 4    1  0.1976955E-002  0.9118800E+02  0.7818608E-02  0.1130116E+00
         25   -1    0    0    0    0  0.00000000000E+00  0.00000000000E+00  0.99999998245E-14  0.12500000000E+03  0.12500000000E+03 0.  0.
        -11    1    1    0    0    0  0.21283495523E+02  0.10590127134E-02  0.16866720175E+02  0.27156462077E+02  0.51100000000E-03 0. -1.
         11    1    1    0    0    0  0.27590587576E+02 -0.11352441947E+00  0.22088952583E+02  0.35343673225E+02  0.51100000000E-03 0.  1.
         22    1    1    0    0    0 -0.48874083099E+02  0.11246540676E+00 -0.38955672758E+02  0.62499864698E+02  0.00000000000E+00 0.  1.
</event>
<event>
 4    1  0.1976955E-002  0.9118800E+02  0.7818608E-02  0.1130116E+00
         25   -1    0    0    0    0  0.00000000000E+00  0.00000000000E+00  0.99999998245E-14  0.12500000000E+03  0.12500000000E+03 0.  0.
        -11    1    1    0    0    0  0.10961605369E+02 -0.27793938223E+01  0.96655646651E+00  0.11349716029E+02  0.51100000000E-03 0. -1.
         11    1    1    0    0    0  0.49408773733E+02 -0.12481015343E+02  0.43987771055E+01  0.51150287449E+02  0.51100000000E-03 0.  1.
         22    1    1    0    0    0 -0.60370379102E+02  0.15260409165E+02 -0.53653335720E+01  0.62499996522E+02  0.00000000000E+00 0.  1.
</event>
<event>
 4    1  0.1976955E-002  0.9118800E+02  0.7818608E-02  0.1130116E+00
         25   -1    0    0    0    0  0.00000000000E+00  0.00000000000E+00  0.99999998245E-14  0.12500000000E+03  0.12500000000E+03 0.  0.
        -11    1    1    0    0    0  0.12889268106E+02  0.30056620106E+02 -0.68061247760E+01  0.33404445501E+02  0.51100000000E-03 0. -1.
         11    1    1    0    0    0  0.11226088396E+02  0.26179031823E+02 -0.59316546697E+01  0.29095554561E+02  0.51100000000E-03 0.  1.
         22    1    1    0    0    0 -0.24115356502E+02 -0.56235651928E+02  0.12737779446E+02  0.62499999938E+02  0.00000000000E+00 0. -1.
</event>
<event>
 4    1  0.1976955E-002  0.9118800E+02  0.7818608E-02  0.1130116E+00
         25   -1    0    0    0    0  0.00000000000E+00  0.00000000000E+00  0.99999998245E-14  0.12500000000E+03  0.12500000000E+03 0.  0.
        -11    1    1    0    0    0 -0.16207114517E+01  0.11217889431E+02  0.69464759799E+01  0.13293655543E+02  0.51100000000E-03 0. -1.
         11    1    1    0    0    0 -0.60033270002E+01  0.41521965509E+02  0.25712852476E+02  0.49206344484E+02  0.51100000000E-03 0.  1.
         22    1    1    0    0    0  0.76240384520E+01 -0.52739854940E+02 -0.32659328456E+02  0.62499999973E+02  0.00000000000E+00 0.  1.
</event>
<event>
 4    1  0.1976955E-002  0.9118800E+02  0.7818608E-02  0.1130116E+00
         25   -1    0    0    0    0  0.00000000000E+00  0.00000000000E+00  0.99999998245E-14  0.12500000000E+03  0.12500000000E+03 0.  0.
        -11    1    1    0    0    0 -0.11961354032E+02  0.16149962086E+01 -0.47163217882E+02  0.48683172907E+02  0.51100000000E-03 0.  1.
         11    1    1    0    0    0 -0.33959779470E+01  0.45569507395E+00 -0.13385230292E+02  0.13816827221E+02  0.51100000000E-03 0. -1.
         22    1    1    0    0    0  0.15357331979E+02 -0.20706912826E+01  0.60548448173E+02  0.62499999873E+02  0.00000000000E+00 0.  1.
</event>
<event>
 4    1  0.1976955E-002  0.9118800E+02  0.7818608E-02  0.1130116E+00
         25   -1    0    0    0    0  0.00000000000E+00  0.00000000000E+00  0.99999998245E-14  0.12500000000E+03  0.12500000000E+03 0.  0.
        -11    1    1    0    0    0  0.10860817374E+01  0.73527003634E+00 -0.67385824151E+01  0.68650337795E+01  0.51100000000E-03 0. -1.
         11    1    1    0    0    0  0.75690308828E+00 -0.15639760668E+02 -0.53659701819E+02  0.55897572537E+02  0.51100000000E-03 0.  1.
         22    1    1    0    0    0 -0.18429848256E+01  0.14904490632E+02  0.60398284234E+02  0.62237393683E+02  0.00000000000E+00 0.  1.
</event>
<event>
 4    1  0.1976955E-002  0.9118800E+02  0.7818608E-02  0.1130116E+00
         25   -1    0    0    0    0  0.00000000000E+00  0.00000000000E+00  0.99999998245E-14  0.12500000000E+03  0.12500000000E+03 0.  0.
        -11    1    1    0    0    0 -0.47705032034E+02  0.30137194762E+02  0.20643722005E+02  0.60084805466E+02  0.51100000000E-03 0.  1.
         11    1    1    0    0    0 -0.19177900599E+01  0.12084662832E+01  0.83358628596E+00  0.24151968509E+01  0.51100000000E-03 0. -1.
         22    1    1    0    0    0  0.49622822094E+02 -0.31345661045E+02 -0.21477308291E+02  0.62499997683E+02  0.00000000000E+00 0.  1.
</event>
<event>
 4    1  0.1976955E-002  0.9118800E+02  0.7818608E-02  0.1130116E+00
         25   -1    0    0    0    0  0.00000000000E+00  0.00000000000E+00  0.99999998245E-14  0.12500000000E+03  0.12500000000E+03 0.  0.
        -11    1    1    0    0    0 -0.46112363193E+02 -0.97161668721E+01 -0.14393427825E+02  0.49273975918E+02  0.51100000000E-03 0. -1.
         11    1    1    0    0    0 -0.12374405532E+02 -0.26165551744E+01 -0.38672312693E+01  0.13226025526E+02  0.51100000000E-03 0.  1.
         22    1    1    0    0    0  0.58486768725E+02  0.12332722047E+02  0.18260659095E+02  0.62499998556E+02  0.00000000000E+00 0. -1.
</event>
<event>
 4    1  0.1976955E-002  0.9118800E+02  0.7818608E-02  0.1130116E+00
         25   -1    0    0    0    0  0.00000000000E+00  0.00000000000E+00  0.99999998245E-14  0.12500000000E+03  0.12500000000E+03 0.  0.
        -11    1    1    0    0    0  0.41891094940E+02  0.42179700709E+02 -0.18891271587E+02  0.62376847705E+02  0.51100000000E-03 0. -1.
         11    1    1    0    0    0  0.11124596004E+00  0.64084974569E-01  0.48800198487E-03  0.12838631881E+00  0.51100000000E-03 0.  1.
         22    1    1    0    0    0 -0.42002340900E+02 -0.42243785684E+02  0.18890783585E+02  0.62494765976E+02  0.00000000000E+00 0. -1.
</event>
<event>
 4    1  0.1976955E-002  0.9118800E+02  0.7818608E-02  0.1130116E+00
         25   -1    0    0    0    0  0.00000000000E+00  0.00000000000E+00  0.99999998245E-14  0.12500000000E+03  0.12500000000E+03 0.  0.
        -11    1    1    0    0    0 -0.40470518384E+02 -0.18167846846E+02  0.11081156529E+02  0.45724452403E+02  0.51100000000E-03 0. -1.
         11    1    1    0    0    0 -0.17670112652E+02  0.75219764519E+01 -0.50760914448E+01  0.19864030696E+02  0.51100000000E-03 0.  1.
         22    1    1    0    0    0  0.58140631036E+02  0.10645870394E+02 -0.60050650847E+01  0.59411516900E+02  0.00000000000E+00 0. -1.
</event>
<event>
 4    1  0.1976955E-002  0.9118800E+02  0.7818608E-02  0.1130116E+00
         25   -1    0    0    0    0  0.00000000000E+00  0.00000000000E+00  0.99999998245E-14  0.12500000000E+03  0.12500000000E+03 0.  0.
        -11    1    1    0    0    0  0.22520107206E+02 -0.51119889399E+02  0.30334066291E+01  0.55942826857E+02  0.51100000000E-03 0.  1.
         11    1    1    0    0    0  0.26360270247E+01 -0.59933282907E+01  0.35763912927E+00  0.65571738183E+01  0.51100000000E-03 0. -1.
         22    1    1    0    0    0 -0.25156134230E+02  0.57113217690E+02 -0.33910457584E+01  0.62499999325E+02  0.00000000000E+00 0.  1.
</event>
<event>
 4    1  0.1976955E-002  0.9118800E+02  0.7818608E-02  0.1130116E+00
         25   -1    0    0    0    0  0.00000000000E+00  0.00000000000E+00  0.99999998245E-14  0.12500000000E+03  0.12500000000E+03 0.  0.
        -11    1    1    0    0    0 -0.18459616105E+02 -0.28669065169E+02 -0.26565486866E+02  0.43224967520E+02  0.51100000000E-03 0. -1.
         11    1    1    0    0    0 -0.82843603920E+01 -0.12875650753E+02 -0.11710001483E+02  0.19275298815E+02  0.51100000000E-03 0.  1.
         22    1    1    0    0    0  0.26743976497E+02  0.41544715922E+02  0.38275488348E+02  0.62499733665E+02  0.00000000000E+00 0. -1.
</event>
<event>
 4    1  0.1976955E-002  0.9118800E+02  0.7818608E-02  0.1130116E+00
         25   -1    0    0    0    0  0.00000000000E+00  0.00000000000E+00  0.99999998245E-14  0.12500000000E+03  0.12500000000E+03 0.  0.
        -11    1    1    0    0    0 -0.14544629631E+02  0.29746598785E+02  0.17897326904E+02  0.37639350432E+02  0.51100000000E-03 0. -1.
         11    1    1    0    0    0 -0.31031061275E+01  0.26434124542E+02 -0.51449272304E+01  0.27108347136E+02  0.51100000000E-03 0.  1.
         22    1    1    0    0    0  0.17647735759E+02 -0.56180723327E+02 -0.12752399673E+02  0.60252302432E+02  0.00000000000E+00 0. -1.
</event>
<event>
 4    1  0.1976955E-002  0.9118800E+02  0.7818608E-02  0.1130116E+00
         25   -1    0    0    0    0  0.00000000000E+00  0.00000000000E+00  0.99999998245E-14  0.12500000000E+03  0.12500000000E+03 0.  0.
        -11    1    1    0    0    0  0.37884448802E+01 -0.14129434492E+02 -0.67617936778E+01  0.16115678319E+02  0.51100000000E-03 0. -1.
         11    1    1    0    0    0  0.12499218489E+02 -0.40914401779E+02 -0.17942138361E+02  0.46391152874E+02  0.51100000000E-03 0.  1.
         22    1    1    0    0    0 -0.16287663369E+02  0.55043836271E+02  0.24703932039E+02  0.62493168807E+02  0.00000000000E+00 0.  1.
</event>
<event>
 4    1  0.1976955E-002  0.9118800E+02  0.7818608E-02  0.1130116E+00
         25   -1    0    0    0    0  0.00000000000E+00  0.00000000000E+00  0.99999998245E-14  0.12500000000E+03  0.12500000000E+03 0.  0.
        -11    1    1    0    0    0 -0.10163397555E+02 -0.98038109431E+01 -0.14558709203E+02  0.20282144186E+02  0.51100000000E-03 0. -1.
         11    1    1    0    0    0 -0.21194075316E+02 -0.21426295442E+02 -0.29569054326E+02  0.42220894577E+02  0.51100000000E-03 0.  1.
         22    1    1    0    0    0  0.31357472871E+02  0.31230106385E+02  0.44127763530E+02  0.62496961237E+02  0.00000000000E+00 0.  1.
</event>
<event>
 4    1  0.1976955E-002  0.9118800E+02  0.7818608E-02  0.1130116E+00
         25   -1    0    0    0    0  0.00000000000E+00  0.00000000000E+00  0.99999998245E-14  0.12500000000E+03  0.12500000000E+03 0.  0.
        -11    1    1    0    0    0  0.60104734062E+01  0.18407257451E+02  0.13640423323E+02  0.23685735499E+02  0.51100000000E-03 0.  1.
         11    1    1    0    0    0  0.99433084186E+01  0.30081765671E+02  0.22422511026E+02  0.38814314488E+02  0.51100000000E-03 0. -1.
         22    1    1    0    0    0 -0.15953781825E+02 -0.48489023121E+02 -0.36062934350E+02  0.62499950013E+02  0.00000000000E+00 0. -1.
</event>
<event>
 4    1  0.1976955E-002  0.9118800E+02  0.7818608E-02  0.1130116E+00
         25   -1    0    0    0    0  0.00000000000E+00  0.00000000000E+00  0.99999998245E-14  0.12500000000E+03  0.12500000000E+03 0.  0.
        -11    1    1    0    0    0  0.39785622128E+02  0.72138502784E+00  0.42393223656E+02  0.58142940558E+02  0.51100000000E-03 0. -1.
         11    1    1    0    0    0  0.29824442434E+01  0.54545091748E-01  0.31758493462E+01  0.43570595776E+01  0.51100000000E-03 0.  1.
         22    1    1    0    0    0 -0.42768066372E+02 -0.77593011959E+00 -0.45569073003E+02  0.62499999864E+02  0.00000000000E+00 0. -1.
</event>
<event>
 4    1  0.1976955E-002  0.9118800E+02  0.7818608E-02  0.1130116E+00
         25   -1    0    0    0    0  0.00000000000E+00  0.00000000000E+00  0.99999998245E-14  0.12500000000E+03  0.12500000000E+03 0.  0.
        -11    1    1    0    0    0 -0.94293138965E+01  0.61812889067E+01  0.22799735815E+02  0.25435177346E+02  0.51100000000E-03 0.  1.
         11    1    1    0    0    0 -0.13741082577E+02  0.90541101916E+01  0.33211553586E+02  0.37064829064E+02  0.51100000000E-03 0. -1.
         22    1    1    0    0    0  0.23170396473E+02 -0.15235399098E+02 -0.56011289401E+02  0.62499993590E+02  0.00000000000E+00 0. -1.
</event>
<event>
 4    1  0.1976955E-002  0.9118800E+02  0.7818608E-02  0.1130116E+00
         25   -1    0    0    0    0  0.00000000000E+00  0.00000000000E+00  0.99999998245E-14  0.12500000000E+03  0.12500000000E+03 0.  0.
        -11    1    1    0    0    0 -0.22937256502E+02  0.43010056596E+02  0.22444734227E+02  0.53663290982E+02  0.51100000000E-03 0.  1.
         11    1    1    0    0    0 -0.38755104135E+01  0.69355049357E+01  0.38721273950E+01  0.88382227005E+01  0.51100000000E-03 0. -1.
         22    1    1    0    0    0  0.26812766915E+02 -0.49945561532E+02 -0.26316861622E+02  0.62498486318E+02  0.00000000000E+00 0.  1.
</event>
<event>
 4    1  0.1976955E-002  0.9118800E+02  0.7818608E-02  0.1130116E+00
         25   -1    0    0    0    0  0.00000000000E+00  0.00000000000E+00  0.99999998245E-14  0.12500000000E+03  0.12500000000E+03 0.  0.
        -11    1    1    0    0    0  0.10920855702E+02  0.45450948652E+02 -0.29068725768E+02  0.55045841266E+02  0.51100000000E-03 0. -1.
         11    1    1    0    0    0  0.43805098132E+01  0.65040178874E+01 -0.11618699301E+01  0.79272351358E+01  0.51100000000E-03 0.  1.
         22    1    1    0    0    0 -0.15301365515E+02 -0.51954966540E+02  0.30230595698E+02  0.62026923598E+02  0.00000000000E+00 0. -1.
</event>
<event>
 4    1  0.1976955E-002  0.9118800E+02  0.7818608E-02  0.1130116E+00
         25   -1    0    0    0    0  0.00000000000E+00  0.00000000000E+00  0.99999998245E-14  0.12500000000E+03  0.12500000000E+03 0.  0.
        -11    1    1    0    0    0  0.24550916652E+01  0.27379052791E+00  0.20009144595E+01  0.31790085362E+01  0.51100000000E-03 0.  1.
         11    1    1    0    0    0  0.45886502622E+02  0.49773488435E+01  0.37264401537E+02  0.59320997518E+02  0.51100000000E-03 0. -1.
         22    1    1    0    0    0 -0.48341594287E+02 -0.52511393714E+01 -0.39265315997E+02  0.62499993946E+02  0.00000000000E+00 0. -1.
</event>
<event>
 4    1  0.1976955E-002  0.9118800E+02  0.7818608E-02  0.1130116E+00
         25   -1    0    0    0    0  0.00000000000E+00  0.00000000000E+00  0.99999998245E-14  0.12500000000E+03  0.12500000000E+03 0.  0.
        -11    1    1    0    0    0  0.89211451251E+01  0.74076137037E+01 -0.15184804455E+02  0.19105963931E+02  0.51100000000E-03 0.  1.
         11    1    1    0    0    0  0.20443963973E+02  0.16551132390E+02 -0.34513233579E+02  0.43394227020E+02  0.51100000000E-03 0. -1.
         22    1    1    0    0    0 -0.29365109098E+02 -0.23958746093E+02  0.49698038035E+02  0.62499809049E+02  0.00000000000E+00 0. -1.
</event>
<event>
 4    1  0.1976955E-002  0.9118800E+02  0.7818608E-02  0.1130116E+00
         25   -1    0    0    0    0  0.00000000000E+00  0.00000000000E+00  0.99999998245E-14  0.12500000000E+03  0.12500000000E+03 0.  0.
        -11    1    1    0    0    0 -0.71069320267E+00 -0.39307454301E+01 -0.17915324255E+01  0.43778342999E+01  0.51100000000E-03 0.  1.
         11    1    1    0    0    0 -0.95104712700E+01 -0.52157178353E+02 -0.23819447885E+02  0.58122168020E+02  0.51100000000E-03 0. -1.
         22    1    1    0    0    0  0.10221164473E+02  0.56087923784E+02  0.25610980310E+02  0.62499997680E+02  0.00000000000E+00 0. -1.
</event>
<event>
 4    1  0.1976955E-002  0.9118800E+02  0.7818608E-02  0.1130116E+00
         25   -1    0    0    0    0  0.00000000000E+00  0.00000000000E+00  0.99999998245E-14  0.12500000000E+03  0.12500000000E+03 0.  0.
        -11    1    1    0    0    0 -0.27757570190E+02 -0.41602093042E+02 -0.17151027002E+02  0.52871302006E+02  0.51100000000E-03 0.  1.
         11    1    1    0    0    0 -0.38035438642E+00 -0.98644407118E+01  0.81181326617E+01  0.12781077349E+02  0.51100000000E-03 0. -1.
         22    1    1    0    0    0  0.28137924577E+02  0.51466533754E+02  0.90328943408E+01  0.59347620645E+02  0.00000000000E+00 0.  1.
</event>
<event>
 4    1  0.1976955E-002  0.9118800E+02  0.7818608E-02  0.1130116E+00
         25   -1    0    0    0    0  0.00000000000E+00  0.00000000000E+00  0.99999998245E-14  0.12500000000E+03  0.12500000000E+03 0.  0.
        -11    1    1    0    0    0  0.27434195426E+02 -0.46166355222E+02 -0.14066678319E+02  0.55514312320E+02  0.51100000000E-03 0. -1.
         11    1    1    0    0    0  0.61945876040E+01  0.30176496075E+02  0.59692956039E+01  0.31378755890E+02  0.51100000000E-03 0.  1.
         22    1    1    0    0    0 -0.33628783030E+02  0.15989859146E+02  0.80973827146E+01  0.38106931790E+02  0.00000000000E+00 0. -1.
</event>
<event>
 4    1  0.1976955E-002  0.9118800E+02  0.7818608E-02  0.1130116E+00
         25   -1    0    0    0    0  0.00000000000E+00  0.00000000000E+00  0.99999998245E-14  0.12500000000E+03  0.12500000000E+03 0.  0.
        -11    1    1    0    0    0  0.27365618333E+02 -0.85645877955E+01  0.54357813810E+02  0.61457311634E+02  0.51100000000E-03 0. -1.
         11    1    1    0    0    0  0.39305668873E+00 -0.15944645630E+00  0.95413645823E+00  0.10441711426E+01  0.51100000000E-03 0.  1.
         22    1    1    0    0    0 -0.27758675021E+02  0.87240342518E+01 -0.55311950268E+02  0.62498517223E+02  0.00000000000E+00 0. -1.
</event>
<event>
 4    1  0.1976955E-002  0.9118800E+02  0.7818608E-02  0.1130116E+00
         25   -1    0    0    0    0  0.00000000000E+00  0.00000000000E+00  0.99999998245E-14  0.12500000000E+03  0.12500000000E+03 0.  0.
        -11    1    1    0    0    0  0.19431132244E+01 -0.68106877636E+01 -0.23879662898E+01  0.74741916003E+01  0.51100000000E-03 0.  1.
         11    1    1    0    0    0 -0.12856266068E+02 -0.53510985714E+02 -0.71184073585E+01  0.55492169654E+02  0.51100000000E-03 0. -1.
         22    1    1    0    0    0  0.10913152843E+02  0.60321673478E+02  0.95063736483E+01  0.62033638746E+02  0.00000000000E+00 0. -1.
</event>
<event>
 4    1  0.1976955E-002  0.9118800E+02  0.7818608E-02  0.1130116E+00
         25   -1    0    0    0    0  0.00000000000E+00  0.00000000000E+00  0.99999998245E-14  0.12500000000E+03  0.12500000000E+03 0.  0.
        -11    1    1    0    0    0 -0.15797752017E+02 -0.29894584648E+01  0.43104826218E+00  0.16083893607E+02  0.51100000000E-03 0. -1.
         11    1    1    0    0    0  0.56992608990E+02  0.11489225833E+01  0.23021596092E+02  0.61477405520E+02  0.51100000000E-03 0.  1.
         22    1    1    0    0    0 -0.41194856972E+02  0.18405358815E+01 -0.23452644354E+02  0.47438700873E+02  0.00000000000E+00 0.  1.
</event>
<event>
 4    1  0.1976955E-002  0.9118800E+02  0.7818608E-02  0.1130116E+00
         25   -1    0    0    0    0  0.00000000000E+00  0.00000000000E+00  0.99999998245E-14  0.12500000000E+03  0.12500000000E+03 0.  0.
        -11    1    1    0    0    0  0.30083354335E+01 -0.25904813519E+02  0.14698762981E+02  0.29935983013E+02  0.51100000000E-03 0.  1.
         11    1    1    0    0    0  0.33864415565E+01 -0.27922700240E+02  0.16411323911E+02  0.32564961660E+02  0.51100000000E-03 0. -1.
         22    1    1    0    0    0 -0.63947769900E+01  0.53827513760E+02 -0.31110086892E+02  0.62499055327E+02  0.00000000000E+00 0. -1.
</event>
<event>
 4    1  0.1976955E-002  0.9118800E+02  0.7818608E-02  0.1130116E+00
         25   -1    0    0    0    0  0.00000000000E+00  0.00000000000E+00  0.99999998245E-14  0.12500000000E+03  0.12500000000E+03 0.  0.
        -11    1    1    0    0    0  0.38281089070E+02 -0.31841101635E+01 -0.14985544349E+02  0.41232837370E+02  0.51100000000E-03 0. -1.
         11    1    1    0    0    0  0.19744612007E+02 -0.16446247964E+01 -0.77290176630E+01  0.21267162677E+02  0.51100000000E-03 0.  1.
         22    1    1    0    0    0 -0.58025701077E+02  0.48287349599E+01  0.22714562011E+02  0.62499999953E+02  0.00000000000E+00 0.  1.
</event>
<event>
 4    1  0.1976955E-002  0.9118800E+02  0.7818608E-02  0.1130116E+00
         25   -1    0    0    0    0  0.00000000000E+00  0.00000000000E+00  0.99999998245E-14  0.12500000000E+03  0.12500000000E+03 0.  0.
        -11    1    1    0    0    0  0.86722554213E+01  0.41605348248E+01 -0.10829366978E+02  0.14484241559E+02  0.51100000000E-03 0. -1.
         11    1    1    0    0    0  0.19513050968E+02  0.10441858142E+02 -0.42807263773E+02  0.48189764386E+02  0.51100000000E-03 0.  1.
         22    1    1    0    0    0 -0.28185306389E+02 -0.14602392967E+02  0.53636630752E+02  0.62325994055E+02  0.00000000000E+00 0.  1.
</event>
<event>
 4    1  0.1976955E-002  0.9118800E+02  0.7818608E-02  0.1130116E+00
         25   -1    0    0    0    0  0.00000000000E+00  0.00000000000E+00  0.99999998245E-14  0.12500000000E+03  0.12500000000E+03 0.  0.
        -11    1    1    0    0    0 -0.11174056108E+02  0.46989369361E+02 -0.26853044602E+02  0.55262522269E+02  0.51100000000E-03 0. -1.
         11    1    1    0    0    0 -0.14626193017E+01  0.61553974185E+01 -0.35146713075E+01  0.72374779628E+01  0.51100000000E-03 0.  1.
         22    1    1    0    0    0  0.12636675410E+02 -0.53144766780E+02  0.30367715909E+02  0.62499999768E+02  0.00000000000E+00 0. -1.
</event>
<event>
 4    1  0.1976955E-002  0.9118800E+02  0.7818608E-02  0.1130116E+00
         25   -1    0    0    0    0  0.00000000000E+00  0.00000000000E+00  0.99999998245E-14  0.12500000000E+03  0.12500000000E+03 0.  0.
        -11    1    1    0    0    0 -0.17042995381E+02 -0.90206955459E+01  0.98297844075E+01  0.21643966860E+02  0.51100000000E-03 0. -1.
         11    1    1    0    0    0 -0.32169717517E+02 -0.17024932625E+02  0.18560075272E+02  0.40856033218E+02  0.51100000000E-03 0.  1.
         22    1    1    0    0    0  0.49212712898E+02  0.26045628171E+02 -0.28389859679E+02  0.62499999921E+02  0.00000000000E+00 0.  1.
</event>
<event>
 4    1  0.1976955E-002  0.9118800E+02  0.7818608E-02  0.1130116E+00
         25   -1    0    0    0    0  0.00000000000E+00  0.00000000000E+00  0.99999998245E-14  0.12500000000E+03  0.12500000000E+03 0.  0.
        -11    1    1    0    0    0 -0.16230753500E+02  0.94245697033E+01  0.68643194251E+01  0.19984462832E+02  0.51100000000E-03 0. -1.
         11    1    1    0    0    0 -0.34540989767E+02  0.20030967721E+02  0.14603127662E+02  0.42515538097E+02  0.51100000000E-03 0.  1.
         22    1    1    0    0    0  0.50771743267E+02 -0.29455537425E+02 -0.21467447087E+02  0.62499999070E+02  0.00000000000E+00 0.  1.
</event>
<event>
 4    1  0.1976955E-002  0.9118800E+02  0.7818608E-02  0.1130116E+00
         25   -1    0    0    0    0  0.00000000000E+00  0.00000000000E+00  0.99999998245E-14  0.12500000000E+03  0.12500000000E+03 0.  0.
        -11    1    1    0    0    0 -0.29242918588E+01 -0.52341795553E+01  0.48771107858E+02  0.49138264932E+02  0.51100000000E-03 0.  1.
         11    1    1    0    0    0 -0.78321322382E+00 -0.14487606102E+01  0.13259862243E+02  0.13361746788E+02  0.51100000000E-03 0. -1.
         22    1    1    0    0    0  0.37075050826E+01  0.66829401655E+01 -0.62030970102E+02  0.62499988280E+02  0.00000000000E+00 0.  1.
</event>
<event>
 4    1  0.1976955E-002  0.9118800E+02  0.7818608E-02  0.1130116E+00
         25   -1    0    0    0    0  0.00000000000E+00  0.00000000000E+00  0.99999998245E-14  0.12500000000E+03  0.12500000000E+03 0.  0.
        -11    1    1    0    0    0 -0.21489941061E+02  0.42655559016E+02 -0.26902737946E+02  0.54818533281E+02  0.51100000000E-03 0. -1.
         11    1    1    0    0    0 -0.30980438889E+01  0.56541967005E+01 -0.41909406979E+01  0.76897204409E+01  0.51100000000E-03 0.  1.
         22    1    1    0    0    0  0.24587984950E+02 -0.48309755717E+02  0.31093678643E+02  0.62491746278E+02  0.00000000000E+00 0. -1.
</event>
<event>
 4    1  0.1976955E-002  0.9118800E+02  0.7818608E-02  0.1130116E+00
         25   -1    0    0    0    0  0.00000000000E+00  0.00000000000E+00  0.99999998245E-14  0.12500000000E+03  0.12500000000E+03 0.  0.
        -11    1    1    0    0    0  0.87987244282E+01  0.26708362150E+02  0.12761790434E+02  0.30880697137E+02  0.51100000000E-03 0. -1.
         11    1    1    0    0    0  0.90607931939E+01  0.27364359030E+02  0.12995237574E+02  0.31619334565E+02  0.51100000000E-03 0.  1.
         22    1    1    0    0    0 -0.17859517622E+02 -0.54072721180E+02 -0.25757028008E+02  0.62499968299E+02  0.00000000000E+00 0.  1.
</event>
<event>
 4    1  0.1976955E-002  0.9118800E+02  0.7818608E-02  0.1130116E+00
         25   -1    0    0    0    0  0.00000000000E+00  0.00000000000E+00  0.99999998245E-14  0.12500000000E+03  0.12500000000E+03 0.  0.
        -11    1    1    0    0    0 -0.48170528920E+02 -0.10801959478E+02  0.22538511871E+02  0.54268468769E+02  0.51100000000E-03 0. -1.
         11    1    1    0    0    0 -0.57345678710E+01  0.10532703727E+02  0.73737223936E+00  0.12015275051E+02  0.51100000000E-03 0.  1.
         22    1    1    0    0    0  0.53905096791E+02  0.26925575137E+00 -0.23275884110E+02  0.58716256180E+02  0.00000000000E+00 0. -1.
</event>
<event>
 4    1  0.1976955E-002  0.9118800E+02  0.7818608E-02  0.1130116E+00
         25   -1    0    0    0    0  0.00000000000E+00  0.00000000000E+00  0.99999998245E-14  0.12500000000E+03  0.12500000000E+03 0.  0.
        -11    1    1    0    0    0  0.37152534227E+01 -0.51824143596E+00  0.24340461900E+01  0.44717181594E+01  0.51100000000E-03 0.  1.
         11    1    1    0    0    0  0.48288007410E+02 -0.65326935073E+01  0.31509926837E+02  0.58028296835E+02  0.51100000000E-03 0. -1.
         22    1    1    0    0    0 -0.52003260833E+02  0.70509349433E+01 -0.33943973027E+02  0.62499985005E+02  0.00000000000E+00 0. -1.
</event>
<event>
 4    1  0.1976955E-002  0.9118800E+02  0.7818608E-02  0.1130116E+00
         25   -1    0    0    0    0  0.00000000000E+00  0.00000000000E+00  0.99999998245E-14  0.12500000000E+03  0.12500000000E+03 0.  0.
        -11    1    1    0    0    0  0.44654173415E+01  0.16259744708E+02 -0.27252670231E+02  0.32047266420E+02  0.51100000000E-03 0.  1.
         11    1    1    0    0    0  0.52580627179E+01  0.20022208602E+02 -0.22525179795E+02  0.30592806113E+02  0.51100000000E-03 0. -1.
         22    1    1    0    0    0 -0.97234800594E+01 -0.36281953310E+02  0.49777850026E+02  0.62359927467E+02  0.00000000000E+00 0. -1.
</event>
<event>
 4    1  0.1976955E-002  0.9118800E+02  0.7818608E-02  0.1130116E+00
         25   -1    0    0    0    0  0.00000000000E+00  0.00000000000E+00  0.99999998245E-14  0.12500000000E+03  0.12500000000E+03 0.  0.
        -11    1    1    0    0    0 -0.32787014163E+02 -0.41326531581E+02 -0.22569499056E+02  0.57378156106E+02  0.51100000000E-03 0. -1.
         11    1    1    0    0    0 -0.31056391623E+01 -0.45374785560E+01  0.16742441900E+01  0.57477647935E+01  0.51100000000E-03 0.  1.
         22    1    1    0    0    0  0.35892653325E+02  0.45864010137E+02  0.20895254866E+02  0.61874079100E+02  0.00000000000E+00 0. -1.
</event>
<event>
 4    1  0.1976955E-002  0.9118800E+02  0.7818608E-02  0.1130116E+00
         25   -1    0    0    0    0  0.00000000000E+00  0.00000000000E+00  0.99999998245E-14  0.12500000000E+03  0.12500000000E+03 0.  0.
        -11    1    1    0    0    0 -0.78546358410E+00  0.89950393926E+00 -0.27775559847E+00  0.12260541637E+01  0.51100000000E-03 0. -1.
         11    1    1    0    0    0 -0.23571425321E+02  0.56509349439E+02  0.35024236417E+01  0.61328505912E+02  0.51100000000E-03 0.  1.
         22    1    1    0    0    0  0.24356888905E+02 -0.57408853379E+02 -0.32246680432E+01  0.62445439925E+02  0.00000000000E+00 0.  1.
</event>
<event>
 4    1  0.1976955E-002  0.9118800E+02  0.7818608E-02  0.1130116E+00
         25   -1    0    0    0    0  0.00000000000E+00  0.00000000000E+00  0.99999998245E-14  0.12500000000E+03  0.12500000000E+03 0.  0.
        -11    1    1    0    0    0  0.89479082510E+01 -0.31843102736E+01  0.29860523512E+01  0.99559732267E+01  0.51100000000E-03 0.  1.
         11    1    1    0    0    0  0.33642538478E+02 -0.24677065368E+02  0.32595201525E+02  0.52945491906E+02  0.51100000000E-03 0. -1.
         22    1    1    0    0    0 -0.42590446729E+02  0.27861375642E+02 -0.35581253876E+02  0.62098534867E+02  0.00000000000E+00 0. -1.
</event>
<event>
 4    1  0.1976955E-002  0.9118800E+02  0.7818608E-02  0.1130116E+00
         25   -1    0    0    0    0  0.00000000000E+00  0.00000000000E+00  0.99999998245E-14  0.12500000000E+03  0.12500000000E+03 0.  0.
        -11    1    1    0    0    0 -0.18111529294E+02 -0.13100234442E+02 -0.25241065730E+02  0.33715798007E+02  0.51100000000E-03 0.  1.
         11    1    1    0    0    0 -0.15609371752E+02 -0.11150521457E+02 -0.21460473406E+02  0.28784345300E+02  0.51100000000E-03 0. -1.
         22    1    1    0    0    0  0.33720901046E+02  0.24250755899E+02  0.46701539136E+02  0.62499856693E+02  0.00000000000E+00 0. -1.
</event>
<event>
 4    1  0.1976955E-002  0.9118800E+02  0.7818608E-02  0.1130116E+00
         25   -1    0    0    0    0  0.00000000000E+00  0.00000000000E+00  0.99999998245E-14  0.12500000000E+03  0.12500000000E+03 0.  0.
        -11    1    1    0    0    0 -0.21688157819E+01 -0.16481658497E+01  0.65306793358E+01  0.70760147974E+01  0.51100000000E-03 0. -1.
         11    1    1    0    0    0 -0.16984243896E+02 -0.12904633107E+02  0.51154902430E+02  0.55423985234E+02  0.51100000000E-03 0. -1.
         22    1    1    0    0    0  0.19153059678E+02  0.14552798957E+02 -0.57685581765E+02  0.62499999969E+02  0.00000000000E+00 0. -1.
</event>
<event>
 4    1  0.1976955E-002  0.9118800E+02  0.7818608E-02  0.1130116E+00
         25   -1    0    0    0    0  0.00000000000E+00  0.00000000000E+00  0.99999998245E-14  0.12500000000E+03  0.12500000000E+03 0.  0.
        -11    1    1    0    0    0  0.49053866051E+01  0.70927555111E+01  0.39279007088E+02  0.40214554536E+02  0.51100000000E-03 0.  1.
         11    1    1    0    0    0 -0.53821170428E+01  0.50677793874E+01  0.21533530620E+02  0.22767136689E+02  0.51100000000E-03 0. -1.
         22    1    1    0    0    0  0.47673043771E+00 -0.12160534898E+02 -0.60812537707E+02  0.62018308775E+02  0.00000000000E+00 0.  1.
</event>
<event>
 4    1  0.1976955E-002  0.9118800E+02  0.7818608E-02  0.1130116E+00
         25   -1    0    0    0    0  0.00000000000E+00  0.00000000000E+00  0.99999998245E-14  0.12500000000E+03  0.12500000000E+03 0.  0.
        -11    1    1    0    0    0  0.42156032851E+02  0.43344936729E+01  0.45823671927E+02  0.62415766039E+02  0.51100000000E-03 0.  1.
         11    1    1    0    0    0  0.41803579846E-01  0.87084246152E-04  0.74562179409E-01  0.85482902331E-01  0.51100000000E-03 0. -1.
         22    1    1    0    0    0 -0.42197836431E+02 -0.43345807571E+01 -0.45898234106E+02  0.62498751058E+02  0.00000000000E+00 0.  1.
</event>
<event>
 4    1  0.1976955E-002  0.9118800E+02  0.7818608E-02  0.1130116E+00
         25   -1    0    0    0    0  0.00000000000E+00  0.00000000000E+00  0.99999998245E-14  0.12500000000E+03  0.12500000000E+03 0.  0.
        -11    1    1    0    0    0  0.25005333971E+02 -0.41368300246E+02 -0.35577047158E+02  0.60019407503E+02  0.51100000000E-03 0. -1.
         11    1    1    0    0    0  0.10359845194E+01 -0.17084740750E+01 -0.14701004325E+01  0.24805933025E+01  0.51100000000E-03 0.  1.
         22    1    1    0    0    0 -0.26041318491E+02  0.43076774321E+02  0.37047147591E+02  0.62499999194E+02  0.00000000000E+00 0. -1.
</event>
<event>
 4    1  0.1976955E-002  0.9118800E+02  0.7818608E-02  0.1130116E+00
         25   -1    0    0    0    0  0.00000000000E+00  0.00000000000E+00  0.99999998245E-14  0.12500000000E+03  0.12500000000E+03 0.  0.
        -11    1    1    0    0    0  0.25474486145E+02 -0.34059001281E+02 -0.40324640465E+02  0.58609228296E+02  0.51100000000E-03 0. -1.
         11    1    1    0    0    0  0.18356733150E+01 -0.23269934993E+01 -0.25251064948E+01  0.38936818484E+01  0.51100000000E-03 0.  1.
         22    1    1    0    0    0 -0.27310159460E+02  0.36385994780E+02  0.42849746960E+02  0.62497089855E+02  0.00000000000E+00 0. -1.
</event>
<event>
 4    1  0.1976955E-002  0.9118800E+02  0.7818608E-02  0.1130116E+00
         25   -1    0    0    0    0  0.00000000000E+00  0.00000000000E+00  0.99999998245E-14  0.12500000000E+03  0.12500000000E+03 0.  0.
        -11    1    1    0    0    0 -0.10342097824E+02  0.14294950812E+02 -0.40631898423E+02  0.44297356307E+02  0.51100000000E-03 0.  1.
         11    1    1    0    0    0 -0.42539749232E+01  0.58868986526E+01 -0.16690848827E+02  0.18202645775E+02  0.51100000000E-03 0. -1.
         22    1    1    0    0    0  0.14596072747E+02 -0.20181849465E+02  0.57322747250E+02  0.62499997918E+02  0.00000000000E+00 0.  1.
</event>
<event>
 4    1  0.1976955E-002  0.9118800E+02  0.7818608E-02  0.1130116E+00
         25   -1    0    0    0    0  0.00000000000E+00  0.00000000000E+00  0.99999998245E-14  0.12500000000E+03  0.12500000000E+03 0.  0.
        -11    1    1    0    0    0 -0.33645973300E+02  0.33604199292E+02  0.34494534500E+02  0.58746630882E+02  0.51100000000E-03 0. -1.
         11    1    1    0    0    0 -0.20779798357E+01  0.20344009824E+01  0.23777244471E+01  0.37563760943E+01  0.51100000000E-03 0.  1.
         22    1    1    0    0    0  0.35723953136E+02 -0.35638600274E+02 -0.36872258947E+02  0.62496993024E+02  0.00000000000E+00 0. -1.
</event>
<event>
 4    1  0.1976955E-002  0.9118800E+02  0.7818608E-02  0.1130116E+00
         25   -1    0    0    0    0  0.00000000000E+00  0.00000000000E+00  0.99999998245E-14  0.12500000000E+03  0.12500000000E+03 0.  0.
        -11    1    1    0    0    0 -0.58371919356E+01  0.27735664640E+01 -0.49168774159E+01  0.81204165169E+01  0.51100000000E-03 0.  1.
         11    1    1    0    0    0 -0.39093274886E+02  0.18572942324E+02 -0.32922648353E+02  0.54379583510E+02  0.51100000000E-03 0.  1.
         22    1    1    0    0    0  0.44930466822E+02 -0.21346508788E+02  0.37839525769E+02  0.62499999973E+02  0.00000000000E+00 0.  1.
</event>
<event>
 4    1  0.1976955E-002  0.9118800E+02  0.7818608E-02  0.1130116E+00
         25   -1    0    0    0    0  0.00000000000E+00  0.00000000000E+00  0.99999998245E-14  0.12500000000E+03  0.12500000000E+03 0.  0.
        -11    1    1    0    0    0  0.27708015769E+02 -0.94084210127E+01  0.11629582938E+02  0.31488088595E+02  0.51100000000E-03 0.  1.
         11    1    1    0    0    0  0.27327544363E+02 -0.92058682826E+01  0.11410421497E+02  0.31011939810E+02  0.51100000000E-03 0. -1.
         22    1    1    0    0    0 -0.55035560132E+02  0.18614289295E+02 -0.23040004435E+02  0.62499971595E+02  0.00000000000E+00 0.  1.
</event>
<event>
 4    1  0.1976955E-002  0.9118800E+02  0.7818608E-02  0.1130116E+00
         25   -1    0    0    0    0  0.00000000000E+00  0.00000000000E+00  0.99999998245E-14  0.12500000000E+03  0.12500000000E+03 0.  0.
        -11    1    1    0    0    0  0.35721854227E+02 -0.43265909413E+02  0.21009326051E+02  0.59911447722E+02  0.51100000000E-03 0. -1.
         11    1    1    0    0    0 -0.10953442969E+02  0.49979913420E+00 -0.91097318840E+01  0.14255347323E+02  0.51100000000E-03 0.  1.
         22    1    1    0    0    0 -0.24768411258E+02  0.42766110279E+02 -0.11899594167E+02  0.50833204955E+02  0.00000000000E+00 0. -1.
</event>
<event>
 4    1  0.1976955E-002  0.9118800E+02  0.7818608E-02  0.1130116E+00
         25   -1    0    0    0    0  0.00000000000E+00  0.00000000000E+00  0.99999998245E-14  0.12500000000E+03  0.12500000000E+03 0.  0.
        -11    1    1    0    0    0  0.34025912068E+02 -0.16337348766E+02 -0.29523835519E+02  0.47920022128E+02  0.51100000000E-03 0.  1.
         11    1    1    0    0    0  0.10352719272E+02 -0.49693250493E+01 -0.89834719240E+01  0.14579977910E+02  0.51100000000E-03 0. -1.
         22    1    1    0    0    0 -0.44378631341E+02  0.21306673815E+02  0.38507307443E+02  0.62499999962E+02  0.00000000000E+00 0.  1.
</event>
<event>
 4    1  0.1976955E-002  0.9118800E+02  0.7818608E-02  0.1130116E+00
         25   -1    0    0    0    0  0.00000000000E+00  0.00000000000E+00  0.99999998245E-14  0.12500000000E+03  0.12500000000E+03 0.  0.
        -11    1    1    0    0    0  0.18660228546E+01 -0.15714003897E+01 -0.20090386750E+01  0.31603128227E+01  0.51100000000E-03 0.  1.
         11    1    1    0    0    0  0.38502149793E+02 -0.21747599256E+02 -0.39594681622E+02  0.59355812058E+02  0.51100000000E-03 0. -1.
         22    1    1    0    0    0 -0.40368172648E+02  0.23318999646E+02  0.41603720296E+02  0.62483875119E+02  0.00000000000E+00 0. -1.
</event>
<event>
 4    1  0.1976955E-002  0.9118800E+02  0.7818608E-02  0.1130116E+00
         25   -1    0    0    0    0  0.00000000000E+00  0.00000000000E+00  0.99999998245E-14  0.12500000000E+03  0.12500000000E+03 0.  0.
        -11    1    1    0    0    0  0.57643218391E+00  0.25339887592E+01 -0.27647444402E+01  0.37943622883E+01  0.51100000000E-03 0.  1.
         11    1    1    0    0    0  0.90792666372E+01  0.39195475967E+02 -0.42750839626E+02  0.58705644600E+02  0.51100000000E-03 0. -1.
         22    1    1    0    0    0 -0.96556988211E+01 -0.41729464726E+02  0.45515584066E+02  0.62499993111E+02  0.00000000000E+00 0. -1.
</event>
<event>
 4    1  0.1976955E-002  0.9118800E+02  0.7818608E-02  0.1130116E+00
         25   -1    0    0    0    0  0.00000000000E+00  0.00000000000E+00  0.99999998245E-14  0.12500000000E+03  0.12500000000E+03 0.  0.
        -11    1    1    0    0    0  0.17024618389E+02 -0.16764721498E+02  0.61800307451E+01  0.24679673792E+02  0.51100000000E-03 0.  1.
         11    1    1    0    0    0  0.26659250788E+02 -0.23543310828E+02  0.12992272445E+02  0.37865581745E+02  0.51100000000E-03 0. -1.
         22    1    1    0    0    0 -0.43683869178E+02  0.40308032326E+02 -0.19172303190E+02  0.62454744463E+02  0.00000000000E+00 0. -1.
</event>
<event>
 4    1  0.1976955E-002  0.9118800E+02  0.7818608E-02  0.1130116E+00
         25   -1    0    0    0    0  0.00000000000E+00  0.00000000000E+00  0.99999998245E-14  0.12500000000E+03  0.12500000000E+03 0.  0.
        -11    1    1    0    0    0  0.12751793102E+02  0.53337045180E+00 -0.39915525101E+01  0.13372554096E+02  0.51100000000E-03 0.  1.
         11    1    1    0    0    0  0.46786663449E+02  0.17610456094E+01 -0.14880268431E+02  0.49127543671E+02  0.51100000000E-03 0. -1.
         22    1    1    0    0    0 -0.59538456551E+02 -0.22944160612E+01  0.18871820941E+02  0.62499902233E+02  0.00000000000E+00 0. -1.
</event>
<event>
 4    1  0.1976955E-002  0.9118800E+02  0.7818608E-02  0.1130116E+00
         25   -1    0    0    0    0  0.00000000000E+00  0.00000000000E+00  0.99999998245E-14  0.12500000000E+03  0.12500000000E+03 0.  0.
        -11    1    1    0    0    0  0.43929179006E+02  0.12825721069E+02  0.97472614989E+01  0.46789753110E+02  0.51100000000E-03 0. -1.
         11    1    1    0    0    0  0.14758007437E+02  0.42921280451E+01  0.32543722638E+01  0.15710254159E+02  0.51100000000E-03 0.  1.
         22    1    1    0    0    0 -0.58687186443E+02 -0.17117849114E+02 -0.13001633763E+02  0.62499992731E+02  0.00000000000E+00 0. -1.
</event>
<event>
 4    1  0.1976955E-002  0.9118800E+02  0.7818608E-02  0.1130116E+00
         25   -1    0    0    0    0  0.00000000000E+00  0.00000000000E+00  0.99999998245E-14  0.12500000000E+03  0.12500000000E+03 0.  0.
        -11    1    1    0    0    0 -0.12285828158E+02  0.40446292579E+02 -0.72137078951E+00  0.42277234216E+02  0.51100000000E-03 0.  1.
         11    1    1    0    0    0 -0.58764128960E+01  0.19347041456E+02 -0.34643169780E+00  0.20222765806E+02  0.51100000000E-03 0.  1.
         22    1    1    0    0    0  0.18162241054E+02 -0.59793334035E+02  0.10678024873E+01  0.62499999978E+02  0.00000000000E+00 0.  1.
</event>
<event>
 4    1  0.1976955E-002  0.9118800E+02  0.7818608E-02  0.1130116E+00
         25   -1    0    0    0    0  0.00000000000E+00  0.00000000000E+00  0.99999998245E-14  0.12500000000E+03  0.12500000000E+03 0.  0.
        -11    1    1    0    0    0 -0.13593797335E+01 -0.77092005532E+01  0.13336506846E+00  0.78292702682E+01  0.51100000000E-03 0.  1.
         11    1    1    0    0    0  0.29822038105E+01 -0.54040584619E+02  0.85442394341E+01  0.54793086729E+02  0.51100000000E-03 0. -1.
         22    1    1    0    0    0 -0.16228240771E+01  0.61749785172E+02 -0.86776045025E+01  0.62377643003E+02  0.00000000000E+00 0. -1.
</event>
<event>
 4    1  0.1976955E-002  0.9118800E+02  0.7818608E-02  0.1130116E+00
         25   -1    0    0    0    0  0.00000000000E+00  0.00000000000E+00  0.99999998245E-14  0.12500000000E+03  0.12500000000E+03 0.  0.
        -11    1    1    0    0    0 -0.19591122849E+02  0.27232114941E+02 -0.23188513498E+02  0.40781213041E+02  0.51100000000E-03 0.  1.
         11    1    1    0    0    0 -0.10435984466E+02  0.14496937299E+02 -0.12354544352E+02  0.21718787472E+02  0.51100000000E-03 0. -1.
         22    1    1    0    0    0  0.30027107315E+02 -0.41729052239E+02  0.35543057850E+02  0.62499999487E+02  0.00000000000E+00 0.  1.
</event>
<event>
 4    1  0.1976955E-002  0.9118800E+02  0.7818608E-02  0.1130116E+00
         25   -1    0    0    0    0  0.00000000000E+00  0.00000000000E+00  0.99999998245E-14  0.12500000000E+03  0.12500000000E+03 0.  0.
        -11    1    1    0    0    0  0.21776763037E+02 -0.13140207299E+02 -0.54902606415E+02  0.60507756921E+02  0.51100000000E-03 0.  1.
         11    1    1    0    0    0  0.86761877460E+00 -0.24438053985E+01 -0.50369616077E+00  0.26417148308E+01  0.51100000000E-03 0. -1.
         22    1    1    0    0    0 -0.22644381812E+02  0.15584012697E+02  0.55406302576E+02  0.61850528248E+02  0.00000000000E+00 0.  1.
</event>
<event>
 4    1  0.1976955E-002  0.9118800E+02  0.7818608E-02  0.1130116E+00
         25   -1    0    0    0    0  0.00000000000E+00  0.00000000000E+00  0.99999998245E-14  0.12500000000E+03  0.12500000000E+03 0.  0.
        -11    1    1    0    0    0  0.12185962305E+01 -0.54250817563E+01 -0.43443916558E+00  0.55772059748E+01  0.51100000000E-03 0.  1.
         11    1    1    0    0    0  0.14718235494E+02 -0.54606564788E+02 -0.64921681164E+01  0.56926721503E+02  0.51100000000E-03 0. -1.
         22    1    1    0    0    0 -0.15936831724E+02  0.60031646544E+02  0.69266072820E+01  0.62496072522E+02  0.00000000000E+00 0. -1.
</event>
<event>
 4    1  0.1976955E-002  0.9118800E+02  0.7818608E-02  0.1130116E+00
         25   -1    0    0    0    0  0.00000000000E+00  0.00000000000E+00  0.99999998245E-14  0.12500000000E+03  0.12500000000E+03 0.  0.
        -11    1    1    0    0    0  0.12102248610E+00  0.24066824737E+01 -0.38693773140E+01  0.45583821725E+01  0.51100000000E-03 0.  1.
         11    1    1    0    0    0  0.10380587082E+01  0.30597595356E+02 -0.49192985286E+02  0.57941696636E+02  0.51100000000E-03 0. -1.
         22    1    1    0    0    0 -0.11590811943E+01 -0.33004277830E+02  0.53062362600E+02  0.62499921192E+02  0.00000000000E+00 0. -1.
</event>
<event>
 4    1  0.1976955E-002  0.9118800E+02  0.7818608E-02  0.1130116E+00
         25   -1    0    0    0    0  0.00000000000E+00  0.00000000000E+00  0.99999998245E-14  0.12500000000E+03  0.12500000000E+03 0.  0.
        -11    1    1    0    0    0 -0.79289040195E+01 -0.37774272871E+02 -0.35115484093E+02  0.52181035188E+02  0.51100000000E-03 0.  1.
         11    1    1    0    0    0 -0.15692119103E+01 -0.74702775720E+01 -0.69435986708E+01  0.10318964860E+02  0.51100000000E-03 0. -1.
         22    1    1    0    0    0  0.94981159299E+01  0.45244550443E+02  0.42059082764E+02  0.62499999952E+02  0.00000000000E+00 0.  1.
</event>
<event>
 4    1  0.1976955E-002  0.9118800E+02  0.7818608E-02  0.1130116E+00
         25   -1    0    0    0    0  0.00000000000E+00  0.00000000000E+00  0.99999998245E-14  0.12500000000E+03  0.12500000000E+03 0.  0.
        -11    1    1    0    0    0 -0.38630924313E+02 -0.23162872731E+02 -0.28365652927E+02  0.53230416612E+02  0.51100000000E-03 0.  1.
         11    1    1    0    0    0 -0.67262060029E+01 -0.40375843957E+01 -0.49377373190E+01  0.92695838655E+01  0.51100000000E-03 0. -1.
         22    1    1    0    0    0  0.45357130316E+02  0.27200457127E+02  0.33303390246E+02  0.62499999522E+02  0.00000000000E+00 0.  1.
</event>
<event>
 4    1  0.1976955E-002  0.9118800E+02  0.7818608E-02  0.1130116E+00
         25   -1    0    0    0    0  0.00000000000E+00  0.00000000000E+00  0.99999998245E-14  0.12500000000E+03  0.12500000000E+03 0.  0.
        -11    1    1    0    0    0 -0.91693264936E+01  0.30783741299E+01 -0.18640238396E+01  0.98502548579E+01  0.51100000000E-03 0. -1.
         11    1    1    0    0    0 -0.49028858737E+02  0.16419106063E+02 -0.99287384927E+01  0.52649747210E+02  0.51100000000E-03 0.  1.
         22    1    1    0    0    0  0.58198185231E+02 -0.19497480193E+02  0.11792762332E+02  0.62499997932E+02  0.00000000000E+00 0.  1.
</event>
<event>
 4    1  0.1976955E-002  0.9118800E+02  0.7818608E-02  0.1130116E+00
         25   -1    0    0    0    0  0.00000000000E+00  0.00000000000E+00  0.99999998245E-14  0.12500000000E+03  0.12500000000E+03 0.  0.
        -11    1    1    0    0    0 -0.31791683206E+01  0.29874218141E+02  0.22642528438E+02  0.37619943050E+02  0.51100000000E-03 0. -1.
         11    1    1    0    0    0 -0.21775244809E+01  0.19920218934E+02  0.14747397010E+02  0.24880563781E+02  0.51100000000E-03 0.  1.
         22    1    1    0    0    0  0.53566928015E+01 -0.49794437075E+02 -0.37389925447E+02  0.62499493169E+02  0.00000000000E+00 0. -1.
</event>
<event>
 4    1  0.1976955E-002  0.9118800E+02  0.7818608E-02  0.1130116E+00
         25   -1    0    0    0    0  0.00000000000E+00  0.00000000000E+00  0.99999998245E-14  0.12500000000E+03  0.12500000000E+03 0.  0.
        -11    1    1    0    0    0  0.10324897309E+02  0.32216832004E+01 -0.55249359756E+01  0.12145273355E+02  0.51100000000E-03 0.  1.
         11    1    1    0    0    0  0.41806193799E+02  0.11577997260E+02 -0.25590932815E+02  0.50365699669E+02  0.51100000000E-03 0. -1.
         22    1    1    0    0    0 -0.52131091108E+02 -0.14799680460E+02  0.31115868790E+02  0.62489026976E+02  0.00000000000E+00 0. -1.
</event>
<event>
 4    1  0.1976955E-002  0.9118800E+02  0.7818608E-02  0.1130116E+00
         25   -1    0    0    0    0  0.00000000000E+00  0.00000000000E+00  0.99999998245E-14  0.12500000000E+03  0.12500000000E+03 0.  0.
        -11    1    1    0    0    0 -0.34369988166E+02 -0.34501652875E+02 -0.16951535348E+02  0.51565634763E+02  0.51100000000E-03 0. -1.
         11    1    1    0    0    0 -0.62219137924E+01 -0.82972815237E+01 -0.35875254829E+01  0.10973943287E+02  0.51100000000E-03 0.  1.
         22    1    1    0    0    0  0.40591901958E+02  0.42798934398E+02  0.20539060831E+02  0.62460421949E+02  0.00000000000E+00 0. -1.
</event>
<event>
 4    1  0.1976955E-002  0.9118800E+02  0.7818608E-02  0.1130116E+00
         25   -1    0    0    0    0  0.00000000000E+00  0.00000000000E+00  0.99999998245E-14  0.12500000000E+03  0.12500000000E+03 0.  0.
        -11    1    1    0    0    0  0.57384784008E+02 -0.18361957057E+01  0.12793183001E+02  0.58822194637E+02  0.51100000000E-03 0. -1.
         11    1    1    0    0    0  0.33750879765E+01 -0.91144640827E+00  0.13251682917E+01  0.37387196561E+01  0.51100000000E-03 0.  1.
         22    1    1    0    0    0 -0.60759871984E+02  0.27476421139E+01 -0.14118351293E+02  0.62439085707E+02  0.00000000000E+00 0. -1.
</event>
<event>
 4    1  0.1976955E-002  0.9118800E+02  0.7818608E-02  0.1130116E+00
         25   -1    0    0    0    0  0.00000000000E+00  0.00000000000E+00  0.99999998245E-14  0.12500000000E+03  0.12500000000E+03 0.  0.
        -11    1    1    0    0    0  0.11847691789E+02 -0.17135490568E+02  0.95662549656E+01  0.22923919212E+02  0.51100000000E-03 0. -1.
         11    1    1    0    0    0  0.17922764171E+02 -0.35565316199E+02  0.40619180774E+01  0.40032691273E+02  0.51100000000E-03 0.  1.
         22    1    1    0    0    0 -0.29770455960E+02  0.52700806767E+02 -0.13628173043E+02  0.62043389514E+02  0.00000000000E+00 0.  1.
</event>
<event>
 4    1  0.1976955E-002  0.9118800E+02  0.7818608E-02  0.1130116E+00
         25   -1    0    0    0    0  0.00000000000E+00  0.00000000000E+00  0.99999998245E-14  0.12500000000E+03  0.12500000000E+03 0.  0.
        -11    1    1    0    0    0 -0.50158126073E+02  0.10576616465E+02  0.27163684310E+02  0.58013517154E+02  0.51100000000E-03 0. -1.
         11    1    1    0    0    0 -0.38332048642E+01  0.87484878018E+00  0.21619258347E+01  0.44869525844E+01  0.51100000000E-03 0.  1.
         22    1    1    0    0    0  0.53991330937E+02 -0.11451465245E+02 -0.29325610144E+02  0.62499530262E+02  0.00000000000E+00 0. -1.
</event>
<event>
 4    1  0.1976955E-002  0.9118800E+02  0.7818608E-02  0.1130116E+00
         25   -1    0    0    0    0  0.00000000000E+00  0.00000000000E+00  0.99999998245E-14  0.12500000000E+03  0.12500000000E+03 0.  0.
        -11    1    1    0    0    0 -0.13403440993E+02 -0.95755307933E+01 -0.15561486888E+02  0.22660602262E+02  0.51100000000E-03 0.  1.
         11    1    1    0    0    0 -0.23567886235E+02 -0.16814678640E+02 -0.27367846520E+02  0.39839398876E+02  0.51100000000E-03 0. -1.
         22    1    1    0    0    0  0.36971327228E+02  0.26390209433E+02  0.42929333409E+02  0.62499998863E+02  0.00000000000E+00 0. -1.
</event>
<event>
 4    1  0.1976955E-002  0.9118800E+02  0.7818608E-02  0.1130116E+00
         25   -1    0    0    0    0  0.00000000000E+00  0.00000000000E+00  0.99999998245E-14  0.12500000000E+03  0.12500000000E+03 0.  0.
        -11    1    1    0    0    0 -0.46444258936E+01  0.13485223733E+02 -0.58730254833E+00  0.14274693536E+02  0.51100000000E-03 0. -1.
         11    1    1    0    0    0 -0.15689638512E+02  0.45558420497E+02 -0.19863911285E+01  0.48225306477E+02  0.51100000000E-03 0. -1.
         22    1    1    0    0    0  0.20334064405E+02 -0.59043644230E+02  0.25736936768E+01  0.62499999987E+02  0.00000000000E+00 0. -1.
</event>
<event>
 4    1  0.1976955E-002  0.9118800E+02  0.7818608E-02  0.1130116E+00
         25   -1    0    0    0    0  0.00000000000E+00  0.00000000000E+00  0.99999998245E-14  0.12500000000E+03  0.12500000000E+03 0.  0.
        -11    1    1    0    0    0 -0.10902707611E+02  0.64128079318E+01 -0.12623281484E+01  0.12711672252E+02  0.51100000000E-03 0.  1.
         11    1    1    0    0    0 -0.42699844332E+02  0.25123055507E+02 -0.49429708554E+01  0.49788327800E+02  0.51100000000E-03 0. -1.
         22    1    1    0    0    0  0.53602551944E+02 -0.31535863439E+02  0.62052990038E+01  0.62499999948E+02  0.00000000000E+00 0.  1.
</event>
<event>
 4    1  0.1976955E-002  0.9118800E+02  0.7818608E-02  0.1130116E+00
         25   -1    0    0    0    0  0.00000000000E+00  0.00000000000E+00  0.99999998245E-14  0.12500000000E+03  0.12500000000E+03 0.  0.
        -11    1    1    0    0    0 -0.35717759691E+02 -0.15254636004E+02  0.50560610300E+00  0.38842218201E+02  0.51100000000E-03 0.  1.
         11    1    1    0    0    0 -0.21754910793E+02 -0.92908026185E+01  0.30900338938E+00  0.23657781812E+02  0.51100000000E-03 0. -1.
         22    1    1    0    0    0  0.57472670484E+02  0.24545438622E+02 -0.81460949238E+00  0.62499999987E+02  0.00000000000E+00 0.  1.
</event>
<event>
 4    1  0.1976955E-002  0.9118800E+02  0.7818608E-02  0.1130116E+00
         25   -1    0    0    0    0  0.00000000000E+00  0.00000000000E+00  0.99999998245E-14  0.12500000000E+03  0.12500000000E+03 0.  0.
        -11    1    1    0    0    0  0.29477674270E+02  0.39385725713E+02  0.34052065506E+01  0.49312920237E+02  0.51100000000E-03 0. -1.
         11    1    1    0    0    0  0.66375977729E+01  0.11380645635E+02  0.11110384046E+01  0.13221618882E+02  0.51100000000E-03 0.  1.
         22    1    1    0    0    0 -0.36115272043E+02 -0.50766371348E+02 -0.45162449552E+01  0.62465460881E+02  0.00000000000E+00 0. -1.
</event>
<event>
 4    1  0.1976955E-002  0.9118800E+02  0.7818608E-02  0.1130116E+00
         25   -1    0    0    0    0  0.00000000000E+00  0.00000000000E+00  0.99999998245E-14  0.12500000000E+03  0.12500000000E+03 0.  0.
        -11    1    1    0    0    0 -0.13044178351E+02 -0.14880617419E+02 -0.19278119005E+02  0.27626603777E+02  0.51100000000E-03 0. -1.
         11    1    1    0    0    0 -0.16465330306E+02 -0.18784659949E+02 -0.24334814831E+02  0.34873396230E+02  0.51100000000E-03 0. -1.
         22    1    1    0    0    0  0.29509508657E+02  0.33665277368E+02  0.43612933836E+02  0.62499999993E+02  0.00000000000E+00 0. -1.
</event>
<event>
 4    1  0.1976955E-002  0.9118800E+02  0.7818608E-02  0.1130116E+00
         25   -1    0    0    0    0  0.00000000000E+00  0.00000000000E+00  0.99999998245E-14  0.12500000000E+03  0.12500000000E+03 0.  0.
        -11    1    1    0    0    0  0.11857649023E+00 -0.16006410364E+00  0.10546704855E+00  0.22539844889E+00  0.51100000000E-03 0.  1.
         11    1    1    0    0    0  0.46456894931E+02  0.62851274002E+01 -0.41161176618E+02  0.62385802663E+02  0.51100000000E-03 0. -1.
         22    1    1    0    0    0 -0.46575471421E+02 -0.61250632966E+01  0.41055709569E+02  0.62388798888E+02  0.00000000000E+00 0. -1.
</event>
<event>
 4    1  0.1976955E-002  0.9118800E+02  0.7818608E-02  0.1130116E+00
         25   -1    0    0    0    0  0.00000000000E+00  0.00000000000E+00  0.99999998245E-14  0.12500000000E+03  0.12500000000E+03 0.  0.
        -11    1    1    0    0    0  0.52619706021E+01  0.76862124612E+00 -0.26465997384E+02  0.26994964920E+02  0.51100000000E-03 0. -1.
         11    1    1    0    0    0  0.14468746191E+02 -0.15417329516E+02 -0.29839273863E+02  0.36570766066E+02  0.51100000000E-03 0.  1.
         22    1    1    0    0    0 -0.19730716793E+02  0.14648708270E+02  0.56305271247E+02  0.61434269014E+02  0.00000000000E+00 0.  1.
</event>
<event>
 4    1  0.1976955E-002  0.9118800E+02  0.7818608E-02  0.1130116E+00
         25   -1    0    0    0    0  0.00000000000E+00  0.00000000000E+00  0.99999998245E-14  0.12500000000E+03  0.12500000000E+03 0.  0.
        -11    1    1    0    0    0 -0.17448981912E+02 -0.45283129845E+02  0.18380785639E+02  0.51892986996E+02  0.51100000000E-03 0.  1.
         11    1    1    0    0    0 -0.34797888680E+01 -0.94915562094E+01  0.32327219990E+01  0.10613626224E+02  0.51100000000E-03 0. -1.
         22    1    1    0    0    0  0.20928770780E+02  0.54774686055E+02 -0.21613507639E+02  0.62493386780E+02  0.00000000000E+00 0.  1.
</event>
<event>
 4    1  0.1976955E-002  0.9118800E+02  0.7818608E-02  0.1130116E+00
         25   -1    0    0    0    0  0.00000000000E+00  0.00000000000E+00  0.99999998245E-14  0.12500000000E+03  0.12500000000E+03 0.  0.
        -11    1    1    0    0    0  0.23887668718E+02  0.59706441366E+01 -0.38071152199E+00  0.24625479685E+02  0.51100000000E-03 0.  1.
         11    1    1    0    0    0  0.36735919795E+02  0.91986763643E+01 -0.57956670325E+00  0.37874521091E+02  0.51100000000E-03 0. -1.
         22    1    1    0    0    0 -0.60623588513E+02 -0.15169320501E+02  0.96027822524E+00  0.62499999224E+02  0.00000000000E+00 0. -1.
</event>
<event>
 4    1  0.1976955E-002  0.9118800E+02  0.7818608E-02  0.1130116E+00
         25   -1    0    0    0    0  0.00000000000E+00  0.00000000000E+00  0.99999998245E-14  0.12500000000E+03  0.12500000000E+03 0.  0.
        -11    1    1    0    0    0 -0.66783845226E+01  0.94603314149E+01  0.57538971781E+02  0.58692690892E+02  0.51100000000E-03 0. -1.
         11    1    1    0    0    0 -0.43523670022E+00  0.61311747514E+00  0.37323264283E+01  0.38073093980E+01  0.51100000000E-03 0.  1.
         22    1    1    0    0    0  0.71136212228E+01 -0.10073448890E+02 -0.61271298209E+02  0.62499999710E+02  0.00000000000E+00 0. -1.
</event>
<event>
 4    1  0.1976955E-002  0.9118800E+02  0.7818608E-02  0.1130116E+00
         25   -1    0    0    0    0  0.00000000000E+00  0.00000000000E+00  0.99999998245E-14  0.12500000000E+03  0.12500000000E+03 0.  0.
        -11    1    1    0    0    0  0.33981699116E+01  0.22506406300E+02  0.40763625408E+01  0.23123637584E+02  0.51100000000E-03 0. -1.
         11    1    1    0    0    0  0.41777609386E+01  0.38163885632E+02  0.88144673813E+01  0.39390743691E+02  0.51100000000E-03 0.  1.
         22    1    1    0    0    0 -0.75759308502E+01 -0.60670291932E+02 -0.12890829922E+02  0.62485618725E+02  0.00000000000E+00 0.  1.
</event>
<event>
 4    1  0.1976955E-002  0.9118800E+02  0.7818608E-02  0.1130116E+00
         25   -1    0    0    0    0  0.00000000000E+00  0.00000000000E+00  0.99999998245E-14  0.12500000000E+03  0.12500000000E+03 0.  0.
        -11    1    1    0    0    0  0.35353298058E+02  0.42674649220E+02  0.63905312441E+01  0.55783691698E+02  0.51100000000E-03 0.  1.
         11    1    1    0    0    0  0.42299215268E+01  0.51202699988E+01  0.10130905702E+01  0.67183147997E+01  0.51100000000E-03 0. -1.
         22    1    1    0    0    0 -0.39583219585E+02 -0.47794919219E+02 -0.74036218143E+01  0.62497993502E+02  0.00000000000E+00 0.  1.
</event>
<event>
 4    1  0.1976955E-002  0.9118800E+02  0.7818608E-02  0.1130116E+00
         25   -1    0    0    0    0  0.00000000000E+00  0.00000000000E+00  0.99999998245E-14  0.12500000000E+03  0.12500000000E+03 0.  0.
        -11    1    1    0    0    0  0.42009527094E+01  0.31161825174E+02  0.33749330585E+02  0.46127265983E+02  0.51100000000E-03 0. -1.
         11    1    1    0    0    0  0.79130861662E+00  0.20502361254E+01  0.17479030048E+02  0.17616643527E+02  0.51100000000E-03 0.  1.
         22    1    1    0    0    0 -0.49922613260E+01 -0.33212061299E+02 -0.51228360633E+02  0.61256090490E+02  0.00000000000E+00 0. -1.
</event>
<event>
 4    1  0.1976955E-002  0.9118800E+02  0.7818608E-02  0.1130116E+00
         25   -1    0    0    0    0  0.00000000000E+00  0.00000000000E+00  0.99999998245E-14  0.12500000000E+03  0.12500000000E+03 0.  0.
        -11    1    1    0    0    0 -0.25116019679E+02 -0.17507571571E+01 -0.29065003024E+02  0.38453270292E+02  0.51100000000E-03 0. -1.
         11    1    1    0    0    0 -0.15905972142E+02 -0.11617082510E+01 -0.17997752247E+02  0.24047216098E+02  0.51100000000E-03 0.  1.
         22    1    1    0    0    0  0.41021991821E+02  0.29124654081E+01  0.47062755271E+02  0.62499513610E+02  0.00000000000E+00 0.  1.
</event>
<event>
 4    1  0.1976955E-002  0.9118800E+02  0.7818608E-02  0.1130116E+00
         25   -1    0    0    0    0  0.00000000000E+00  0.00000000000E+00  0.99999998245E-14  0.12500000000E+03  0.12500000000E+03 0.  0.
        -11    1    1    0    0    0 -0.77429436967E+01  0.35963035117E+01 -0.35197566076E+02  0.36218161659E+02  0.51100000000E-03 0. -1.
         11    1    1    0    0    0 -0.56186298420E+01  0.26053146223E+01 -0.25541698584E+02  0.26281838451E+02  0.51100000000E-03 0.  1.
         22    1    1    0    0    0  0.13361573539E+02 -0.62016181340E+01  0.60739264659E+02  0.62499999890E+02  0.00000000000E+00 0. -1.
</event>
<event>
 4    1  0.1976955E-002  0.9118800E+02  0.7818608E-02  0.1130116E+00
         25   -1    0    0    0    0  0.00000000000E+00  0.00000000000E+00  0.99999998245E-14  0.12500000000E+03  0.12500000000E+03 0.  0.
        -11    1    1    0    0    0 -0.31950914440E+02  0.18520041677E+02  0.98175426332E+00  0.36943425924E+02  0.51100000000E-03 0. -1.
         11    1    1    0    0    0 -0.20212915312E+02  0.15381314118E+02  0.37026051059E+01  0.25668191488E+02  0.51100000000E-03 0.  1.
         22    1    1    0    0    0  0.52163829753E+02 -0.33901355796E+02 -0.46843593693E+01  0.62388382588E+02  0.00000000000E+00 0. -1.
</event>
<event>
 4    1  0.1976955E-002  0.9118800E+02  0.7818608E-02  0.1130116E+00
         25   -1    0    0    0    0  0.00000000000E+00  0.00000000000E+00  0.99999998245E-14  0.12500000000E+03  0.12500000000E+03 0.  0.
        -11    1    1    0    0    0  0.18290108548E+02  0.41677291897E+02  0.36227885279E+02  0.58172024227E+02  0.51100000000E-03 0. -1.
         11    1    1    0    0    0  0.14150825422E+01  0.30038318759E+01  0.27775531683E+01  0.43290029341E+01  0.51100000000E-03 0.  1.
         22    1    1    0    0    0 -0.19705191090E+02 -0.44681123773E+02 -0.39005438447E+02  0.62498972839E+02  0.00000000000E+00 0. -1.
</event>
<event>
 4    1  0.1976955E-002  0.9118800E+02  0.7818608E-02  0.1130116E+00
         25   -1    0    0    0    0  0.00000000000E+00  0.00000000000E+00  0.99999998245E-14  0.12500000000E+03  0.12500000000E+03 0.  0.
        -11    1    1    0    0    0 -0.19613817512E+02 -0.75644757922E+01  0.42226075504E+02  0.47169530251E+02  0.51100000000E-03 0. -1.
         11    1    1    0    0    0 -0.64179550129E+01 -0.24502202657E+01  0.13705124670E+02  0.15330497982E+02  0.51100000000E-03 0.  1.
         22    1    1    0    0    0  0.26031772525E+02  0.10014696058E+02 -0.55931200174E+02  0.62499971767E+02  0.00000000000E+00 0. -1.
</event>
<event>
 4    1  0.1976955E-002  0.9118800E+02  0.7818608E-02  0.1130116E+00
         25   -1    0    0    0    0  0.00000000000E+00  0.00000000000E+00  0.99999998245E-14  0.12500000000E+03  0.12500000000E+03 0.  0.
        -11    1    1    0    0    0 -0.39516405555E+02 -0.20353728849E+02  0.35265074049E+02  0.56740162442E+02  0.51100000000E-03 0. -1.
         11    1    1    0    0    0 -0.40125631897E+01 -0.20712844348E+01  0.35755932038E+01  0.57598393711E+01  0.51100000000E-03 0.  1.
         22    1    1    0    0    0  0.43528968744E+02  0.22425013284E+02 -0.38840667252E+02  0.62499998187E+02  0.00000000000E+00 0. -1.
</event>
<event>
 4    1  0.1976955E-002  0.9118800E+02  0.7818608E-02  0.1130116E+00
         25   -1    0    0    0    0  0.00000000000E+00  0.00000000000E+00  0.99999998245E-14  0.12500000000E+03  0.12500000000E+03 0.  0.
        -11    1    1    0    0    0 -0.43574575731E+01  0.45122626674E+02 -0.27226485272E+02  0.52880245602E+02  0.51100000000E-03 0. -1.
         11    1    1    0    0    0 -0.84646504456E+01  0.47792547834E+01 -0.54152016168E+01  0.11127263467E+02  0.51100000000E-03 0.  1.
         22    1    1    0    0    0  0.12822108019E+02 -0.49901881457E+02  0.32641686889E+02  0.60992490931E+02  0.00000000000E+00 0. -1.
</event>
<event>
 4    1  0.1976955E-002  0.9118800E+02  0.7818608E-02  0.1130116E+00
         25   -1    0    0    0    0  0.00000000000E+00  0.00000000000E+00  0.99999998245E-14  0.12500000000E+03  0.12500000000E+03 0.  0.
        -11    1    1    0    0    0  0.15457276353E+01 -0.26732497936E+02 -0.25524427897E+00  0.26778365703E+02  0.51100000000E-03 0. -1.
         11    1    1    0    0    0  0.20674263435E+01 -0.35660086732E+02 -0.34515292873E+00  0.35721634456E+02  0.51100000000E-03 0. -1.
         22    1    1    0    0    0 -0.36131539788E+01  0.62392584668E+02  0.60039720770E+00  0.62499999841E+02  0.00000000000E+00 0. -1.
</event>
<event>
 4    1  0.1976955E-002  0.9118800E+02  0.7818608E-02  0.1130116E+00
         25   -1    0    0    0    0  0.00000000000E+00  0.00000000000E+00  0.99999998245E-14  0.12500000000E+03  0.12500000000E+03 0.  0.
        -11    1    1    0    0    0 -0.44739507093E+01  0.80606840083E+01  0.12690283041E+02  0.15685475624E+02  0.51100000000E-03 0. -1.
         11    1    1    0    0    0 -0.65521774896E+01  0.15841583823E+02  0.43776616615E+02  0.47013604099E+02  0.51100000000E-03 0.  1.
         22    1    1    0    0    0  0.11026128199E+02 -0.23902267831E+02 -0.56466899656E+02  0.62300920277E+02  0.00000000000E+00 0.  1.
</event>
<event>
 4    1  0.1976955E-002  0.9118800E+02  0.7818608E-02  0.1130116E+00
         25   -1    0    0    0    0  0.00000000000E+00  0.00000000000E+00  0.99999998245E-14  0.12500000000E+03  0.12500000000E+03 0.  0.
        -11    1    1    0    0    0 -0.37231424587E+02 -0.14511928425E+02  0.15668985230E+02  0.42921930779E+02  0.51100000000E-03 0.  1.
         11    1    1    0    0    0 -0.17438005782E+02 -0.70113165694E+01  0.55709654030E+01  0.19603016642E+02  0.51100000000E-03 0. -1.
         22    1    1    0    0    0  0.54669430368E+02  0.21523244995E+02 -0.21239950633E+02  0.62475052579E+02  0.00000000000E+00 0.  1.
</event>
<event>
 4    1  0.1976955E-002  0.9118800E+02  0.7818608E-02  0.1130116E+00
         25   -1    0    0    0    0  0.00000000000E+00  0.00000000000E+00  0.99999998245E-14  0.12500000000E+03  0.12500000000E+03 0.  0.
        -11    1    1    0    0    0  0.46226838548E+01 -0.34759707538E+01 -0.45533263033E+01  0.73610026076E+01  0.51100000000E-03 0.  1.
         11    1    1    0    0    0  0.34628438613E+02 -0.26037873526E+02 -0.34105856037E+02  0.55138997405E+02  0.51100000000E-03 0.  1.
         22    1    1    0    0    0 -0.39251122468E+02  0.29513844279E+02  0.38659182341E+02  0.62499999987E+02  0.00000000000E+00 0.  1.
</event>
<event>
 4    1  0.1976955E-002  0.9118800E+02  0.7818608E-02  0.1130116E+00
         25   -1    0    0    0    0  0.00000000000E+00  0.00000000000E+00  0.99999998245E-14  0.12500000000E+03  0.12500000000E+03 0.  0.
        -11    1    1    0    0    0  0.76513133096E+01  0.55530702227E+01  0.76752622716E+01  0.12177390339E+02  0.51100000000E-03 0. -1.
         11    1    1    0    0    0  0.30181032730E+02  0.23500674141E+02  0.32703431450E+02  0.50325846745E+02  0.51100000000E-03 0.  1.
         22    1    1    0    0    0 -0.37832346039E+02 -0.29053744364E+02 -0.40378693721E+02  0.62496762917E+02  0.00000000000E+00 0.  1.
</event>
<event>
 4    1  0.1976955E-002  0.9118800E+02  0.7818608E-02  0.1130116E+00
         25   -1    0    0    0    0  0.00000000000E+00  0.00000000000E+00  0.99999998245E-14  0.12500000000E+03  0.12500000000E+03 0.  0.
        -11    1    1    0    0    0 -0.47770341860E+01  0.15580400413E+01 -0.45975306675E+00  0.50456830586E+01  0.51100000000E-03 0.  1.
         11    1    1    0    0    0 -0.54394384065E+02  0.17741861249E+02 -0.52417439800E+01  0.57454316971E+02  0.51100000000E-03 0.  1.
         22    1    1    0    0    0  0.59171418251E+02 -0.19299901290E+02  0.57014970468E+01  0.62499999970E+02  0.00000000000E+00 0.  1.
</event>
<event>
 4    1  0.1976955E-002  0.9118800E+02  0.7818608E-02  0.1130116E+00
         25   -1    0    0    0    0  0.00000000000E+00  0.00000000000E+00  0.99999998245E-14  0.12500000000E+03  0.12500000000E+03 0.  0.
        -11    1    1    0    0    0 -0.27951324743E+02 -0.77396726222E+01  0.15516233757E+02  0.32892743842E+02  0.51100000000E-03 0.  1.
         11    1    1    0    0    0 -0.25317066355E+02 -0.68035175522E+01  0.13761269143E+02  0.29607671786E+02  0.51100000000E-03 0. -1.
         22    1    1    0    0    0  0.53268391098E+02  0.14543190174E+02 -0.29277502900E+02  0.62499584372E+02  0.00000000000E+00 0. -1.
</event>
<event>
 4    1  0.1976955E-002  0.9118800E+02  0.7818608E-02  0.1130116E+00
         25   -1    0    0    0    0  0.00000000000E+00  0.00000000000E+00  0.99999998245E-14  0.12500000000E+03  0.12500000000E+03 0.  0.
        -11    1    1    0    0    0 -0.11086136061E+02  0.25051677350E+02 -0.36812029857E+02  0.45886975203E+02  0.51100000000E-03 0.  1.
         11    1    1    0    0    0 -0.43862872762E+01  0.80587586115E+01 -0.13868792298E+02  0.16629086159E+02  0.51100000000E-03 0. -1.
         22    1    1    0    0    0  0.15472423337E+02 -0.33110435961E+02  0.50680822155E+02  0.62483938638E+02  0.00000000000E+00 0. -1.
</event>
<event>
 4    1  0.1976955E-002  0.9118800E+02  0.7818608E-02  0.1130116E+00
         25   -1    0    0    0    0  0.00000000000E+00  0.00000000000E+00  0.99999998245E-14  0.12500000000E+03  0.12500000000E+03 0.  0.
        -11    1    1    0    0    0  0.29268853408E+02  0.14110686564E+00  0.21221245258E+01  0.29346023644E+02  0.51100000000E-03 0. -1.
         11    1    1    0    0    0  0.33066693207E+02  0.15425224769E+00  0.23992002372E+01  0.33153976465E+02  0.51100000000E-03 0.  1.
         22    1    1    0    0    0 -0.62335546615E+02 -0.29535911332E+00 -0.45213247630E+01  0.62499999891E+02  0.00000000000E+00 0.  1.
</event>
<event>
 4    1  0.1976955E-002  0.9118800E+02  0.7818608E-02  0.1130116E+00
         25   -1    0    0    0    0  0.00000000000E+00  0.00000000000E+00  0.99999998245E-14  0.12500000000E+03  0.12500000000E+03 0.  0.
        -11    1    1    0    0    0  0.75732939752E+01 -0.44679119895E+02  0.27358555383E+02  0.52934573665E+02  0.51100000000E-03 0. -1.
         11    1    1    0    0    0  0.15106978665E+01 -0.80085564725E+01  0.50090273142E+01  0.95660618706E+01  0.51100000000E-03 0.  1.
         22    1    1    0    0    0 -0.90839918417E+01  0.52687676367E+02 -0.32367582697E+02  0.62499364464E+02  0.00000000000E+00 0. -1.
</event>
<event>
 4    1  0.1976955E-002  0.9118800E+02  0.7818608E-02  0.1130116E+00
         25   -1    0    0    0    0  0.00000000000E+00  0.00000000000E+00  0.99999998245E-14  0.12500000000E+03  0.12500000000E+03 0.  0.
        -11    1    1    0    0    0 -0.35900831818E+02  0.43282336332E+02 -0.12070151720E+02  0.57514510573E+02  0.51100000000E-03 0.  1.
         11    1    1    0    0    0 -0.30826687195E+01  0.37647292858E+01 -0.10864091199E+01  0.49856111027E+01  0.51100000000E-03 0. -1.
         22    1    1    0    0    0  0.38983500538E+02 -0.47047065618E+02  0.13156560840E+02  0.62499878325E+02  0.00000000000E+00 0.  1.
</event>
<event>
 4    1  0.1976955E-002  0.9118800E+02  0.7818608E-02  0.1130116E+00
         25   -1    0    0    0    0  0.00000000000E+00  0.00000000000E+00  0.99999998245E-14  0.12500000000E+03  0.12500000000E+03 0.  0.
        -11    1    1    0    0    0 -0.26403537822E+02 -0.29736042302E+02 -0.21604437582E+02  0.45256278512E+02  0.51100000000E-03 0. -1.
         11    1    1    0    0    0 -0.10043890146E+02 -0.11274359498E+02 -0.83282417903E+01  0.17243854643E+02  0.51100000000E-03 0.  1.
         22    1    1    0    0    0  0.36447427968E+02  0.41010401800E+02  0.29932679372E+02  0.62499866845E+02  0.00000000000E+00 0. -1.
</event>
<event>
 4    1  0.1976955E-002  0.9118800E+02  0.7818608E-02  0.1130116E+00
         25   -1    0    0    0    0  0.00000000000E+00  0.00000000000E+00  0.99999998245E-14  0.12500000000E+03  0.12500000000E+03 0.  0.
        -11    1    1    0    0    0  0.92147376048E+01 -0.39284155616E+02 -0.21984813875E+02  0.45950933755E+02  0.51100000000E-03 0.  1.
         11    1    1    0    0    0  0.49300293070E+01 -0.12466378614E+02 -0.98776869721E+01  0.16651861305E+02  0.51100000000E-03 0. -1.
         22    1    1    0    0    0 -0.14144766912E+02  0.51750534230E+02  0.31862500847E+02  0.62397204940E+02  0.00000000000E+00 0.  1.
</event>
<event>
 4    1  0.1976955E-002  0.9118800E+02  0.7818608E-02  0.1130116E+00
         25   -1    0    0    0    0  0.00000000000E+00  0.00000000000E+00  0.99999998245E-14  0.12500000000E+03  0.12500000000E+03 0.  0.
        -11    1    1    0    0    0  0.22472861413E+02  0.14070793081E+02 -0.30321487532E+02  0.40279142549E+02  0.51100000000E-03 0. -1.
         11    1    1    0    0    0  0.22334494175E+02 -0.15458852218E+02 -0.50371427332E+01  0.27625686401E+02  0.51100000000E-03 0.  1.
         22    1    1    0    0    0 -0.44807355589E+02  0.13880591368E+01  0.35358630265E+02  0.57095171050E+02  0.00000000000E+00 0. -1.
</event>
<event>
 4    1  0.1976955E-002  0.9118800E+02  0.7818608E-02  0.1130116E+00
         25   -1    0    0    0    0  0.00000000000E+00  0.00000000000E+00  0.99999998245E-14  0.12500000000E+03  0.12500000000E+03 0.  0.
        -11    1    1    0    0    0 -0.18723259006E+02  0.93488771343E+01  0.42540111833E+02  0.47409102992E+02  0.51100000000E-03 0. -1.
         11    1    1    0    0    0 -0.11465765239E+01  0.34423909710E+01  0.14976110447E+02  0.15409366558E+02  0.51100000000E-03 0.  1.
         22    1    1    0    0    0  0.19869835530E+02 -0.12791268105E+02 -0.57516222280E+02  0.62181530450E+02  0.00000000000E+00 0.  1.
</event>
<event>
 4    1  0.1976955E-002  0.9118800E+02  0.7818608E-02  0.1130116E+00
         25   -1    0    0    0    0  0.00000000000E+00  0.00000000000E+00  0.99999998245E-14  0.12500000000E+03  0.12500000000E+03 0.  0.
        -11    1    1    0    0    0  0.83109898787E+01 -0.53577095581E+01  0.98488996430E+01  0.13956304271E+02  0.51100000000E-03 0.  1.
         11    1    1    0    0    0  0.28918107093E+02 -0.18623199390E+02  0.34255071904E+02  0.48543696036E+02  0.51100000000E-03 0. -1.
         22    1    1    0    0    0 -0.37229096972E+02  0.23980908949E+02 -0.44103971547E+02  0.62499999693E+02  0.00000000000E+00 0. -1.
</event>
<event>
 4    1  0.1976955E-002  0.9118800E+02  0.7818608E-02  0.1130116E+00
         25   -1    0    0    0    0  0.00000000000E+00  0.00000000000E+00  0.99999998245E-14  0.12500000000E+03  0.12500000000E+03 0.  0.
        -11    1    1    0    0    0  0.89832605655E+01 -0.20152619800E+02  0.15593270146E+02  0.27018088927E+02  0.51100000000E-03 0.  1.
         11    1    1    0    0    0  0.17169348434E+02 -0.13943841273E+02 -0.42054880980E+02  0.47516631294E+02  0.51100000000E-03 0. -1.
         22    1    1    0    0    0 -0.26152608999E+02  0.34096461073E+02  0.26461610834E+02  0.50465279778E+02  0.00000000000E+00 0. -1.
</event>
<event>
 4    1  0.1976955E-002  0.9118800E+02  0.7818608E-02  0.1130116E+00
         25   -1    0    0    0    0  0.00000000000E+00  0.00000000000E+00  0.99999998245E-14  0.12500000000E+03  0.12500000000E+03 0.  0.
        -11    1    1    0    0    0 -0.51501977309E+02  0.49238531490E+01  0.16135919918E+02  0.54194703693E+02  0.51100000000E-03 0.  1.
         11    1    1    0    0    0 -0.79166653862E+01  0.10780757986E+01  0.22811544345E+01  0.83090013888E+01  0.51100000000E-03 0. -1.
         22    1    1    0    0    0  0.59418642695E+02 -0.60019289475E+01 -0.18417074352E+02  0.62496294918E+02  0.00000000000E+00 0.  1.
</event>
<event>
 4    1  0.1976955E-002  0.9118800E+02  0.7818608E-02  0.1130116E+00
         25   -1    0    0    0    0  0.00000000000E+00  0.00000000000E+00  0.99999998245E-14  0.12500000000E+03  0.12500000000E+03 0.  0.
        -11    1    1    0    0    0  0.31122895317E+01  0.27511218023E+01  0.16750070917E+01  0.44789135199E+01  0.51100000000E-03 0.  1.
         11    1    1    0    0    0  0.40349715888E+02  0.35640884561E+02  0.21635027968E+02  0.58021088063E+02  0.51100000000E-03 0. -1.
         22    1    1    0    0    0 -0.43462005420E+02 -0.38392006363E+02 -0.23310035060E+02  0.62499998417E+02  0.00000000000E+00 0. -1.
</event>
<event>
 4    1  0.1976955E-002  0.9118800E+02  0.7818608E-02  0.1130116E+00
         25   -1    0    0    0    0  0.00000000000E+00  0.00000000000E+00  0.99999998245E-14  0.12500000000E+03  0.12500000000E+03 0.  0.
        -11    1    1    0    0    0 -0.20025871464E+02  0.15901411303E+02 -0.88763430546E+01  0.27068060064E+02  0.51100000000E-03 0.  1.
         11    1    1    0    0    0 -0.78385256219E+01 -0.44597339241E+02 -0.19075107934E+02  0.49134762585E+02  0.51100000000E-03 0. -1.
         22    1    1    0    0    0  0.27864397086E+02  0.28695927938E+02  0.27951450988E+02  0.48797177352E+02  0.00000000000E+00 0. -1.
</event>
<event>
 4    1  0.1976955E-002  0.9118800E+02  0.7818608E-02  0.1130116E+00
         25   -1    0    0    0    0  0.00000000000E+00  0.00000000000E+00  0.99999998245E-14  0.12500000000E+03  0.12500000000E+03 0.  0.
        -11    1    1    0    0    0 -0.97090126940E+01 -0.44254690637E+02  0.31485565770E+02  0.55173212912E+02  0.51100000000E-03 0.  1.
         11    1    1    0    0    0 -0.12860169131E+01 -0.58771046370E+01  0.41818196443E+01  0.73267874415E+01  0.51100000000E-03 0. -1.
         22    1    1    0    0    0  0.10995029607E+02  0.50131795274E+02 -0.35667385415E+02  0.62499999646E+02  0.00000000000E+00 0.  1.
</event>
<event>
 4    1  0.1976955E-002  0.9118800E+02  0.7818608E-02  0.1130116E+00
         25   -1    0    0    0    0  0.00000000000E+00  0.00000000000E+00  0.99999998245E-14  0.12500000000E+03  0.12500000000E+03 0.  0.
        -11    1    1    0    0    0 -0.17576848480E+00 -0.14492175981E+01  0.58171568656E+00  0.15714705240E+01  0.51100000000E-03 0. -1.
         11    1    1    0    0    0 -0.68240683034E+01 -0.56203494007E+02  0.22514108604E+02  0.60928529715E+02  0.51100000000E-03 0.  1.
         22    1    1    0    0    0  0.69998367882E+01  0.57652711605E+02 -0.23095824291E+02  0.62499999761E+02  0.00000000000E+00 0.  1.
</event>
<event>
 4    1  0.1976955E-002  0.9118800E+02  0.7818608E-02  0.1130116E+00
         25   -1    0    0    0    0  0.00000000000E+00  0.00000000000E+00  0.99999998245E-14  0.12500000000E+03  0.12500000000E+03 0.  0.
        -11    1    1    0    0    0  0.46887430269E+02 -0.79505032777E+01 -0.16787444134E+02  0.50432726482E+02  0.51100000000E-03 0.  1.
         11    1    1    0    0    0  0.11215779818E+02 -0.18966850888E+01 -0.40284029224E+01  0.12067276479E+02  0.51100000000E-03 0. -1.
         22    1    1    0    0    0 -0.58103210087E+02  0.98471883665E+01  0.20815847056E+02  0.62499997039E+02  0.00000000000E+00 0.  1.
</event>
<event>
 4    1  0.1976955E-002  0.9118800E+02  0.7818608E-02  0.1130116E+00
         25   -1    0    0    0    0  0.00000000000E+00  0.00000000000E+00  0.99999998245E-14  0.12500000000E+03  0.12500000000E+03 0.  0.
        -11    1    1    0    0    0  0.61675031475E+01  0.10704347078E+02  0.36186830377E+01  0.12873073007E+02  0.51100000000E-03 0.  1.
         11    1    1    0    0    0  0.23777967523E+02  0.41264396141E+02  0.13953127110E+02  0.49626927014E+02  0.51100000000E-03 0. -1.
         22    1    1    0    0    0 -0.29945470670E+02 -0.51968743220E+02 -0.17571810148E+02  0.62499999979E+02  0.00000000000E+00 0. -1.
</event>
<event>
 4    1  0.1976955E-002  0.9118800E+02  0.7818608E-02  0.1130116E+00
         25   -1    0    0    0    0  0.00000000000E+00  0.00000000000E+00  0.99999998245E-14  0.12500000000E+03  0.12500000000E+03 0.  0.
        -11    1    1    0    0    0  0.40342151747E+02  0.24589333785E+02 -0.20557002161E+02  0.51523925333E+02  0.51100000000E-03 0.  1.
         11    1    1    0    0    0  0.85804187716E+01  0.51992565090E+01 -0.44521064856E+01  0.10976206401E+02  0.51100000000E-03 0. -1.
         22    1    1    0    0    0 -0.48922570519E+02 -0.29788590294E+02  0.25009108647E+02  0.62499868266E+02  0.00000000000E+00 0.  1.
</event>
<event>
 4    1  0.1976955E-002  0.9118800E+02  0.7818608E-02  0.1130116E+00
         25   -1    0    0    0    0  0.00000000000E+00  0.00000000000E+00  0.99999998245E-14  0.12500000000E+03  0.12500000000E+03 0.  0.
        -11    1    1    0    0    0 -0.11209888516E+02 -0.12394256475E+02  0.51854730003E+01  0.17497666262E+02  0.51100000000E-03 0. -1.
         11    1    1    0    0    0 -0.28910208928E+02 -0.31827559624E+02  0.13282241771E+02  0.45002351923E+02  0.51100000000E-03 0.  1.
         22    1    1    0    0    0  0.40120097444E+02  0.44221816099E+02 -0.18467714771E+02  0.62499981815E+02  0.00000000000E+00 0.  1.
</event>
<event>
 4    1  0.1976955E-002  0.9118800E+02  0.7818608E-02  0.1130116E+00
         25   -1    0    0    0    0  0.00000000000E+00  0.00000000000E+00  0.99999998245E-14  0.12500000000E+03  0.12500000000E+03 0.  0.
        -11    1    1    0    0    0 -0.10130855956E+02  0.16437108209E+02  0.32024001279E+01  0.19572126495E+02  0.51100000000E-03 0.  1.
         11    1    1    0    0    0 -0.22209051060E+02  0.36043187662E+02  0.71028166738E+01  0.42927885235E+02  0.51100000000E-03 0. -1.
         22    1    1    0    0    0  0.32339907016E+02 -0.52480295871E+02 -0.10305216802E+02  0.62499988270E+02  0.00000000000E+00 0. -1.
</event>
<event>
 4    1  0.1976955E-002  0.9118800E+02  0.7818608E-02  0.1130116E+00
         25   -1    0    0    0    0  0.00000000000E+00  0.00000000000E+00  0.99999998245E-14  0.12500000000E+03  0.12500000000E+03 0.  0.
        -11    1    1    0    0    0  0.42627288602E+02  0.38958708602E+02  0.17120612404E+02  0.60232732620E+02  0.51100000000E-03 0.  1.
         11    1    1    0    0    0  0.16088729634E+01  0.14693033557E+01  0.62716303950E+00  0.22673019875E+01  0.51100000000E-03 0. -1.
         22    1    1    0    0    0 -0.44236161565E+02 -0.40428011958E+02 -0.17747775443E+02  0.62499965393E+02  0.00000000000E+00 0.  1.
</event>
<event>
 4    1  0.1976955E-002  0.9118800E+02  0.7818608E-02  0.1130116E+00
         25   -1    0    0    0    0  0.00000000000E+00  0.00000000000E+00  0.99999998245E-14  0.12500000000E+03  0.12500000000E+03 0.  0.
        -11    1    1    0    0    0  0.36924621093E+02 -0.23521877565E+02 -0.42460206776E+02  0.60988322872E+02  0.51100000000E-03 0. -1.
         11    1    1    0    0    0  0.91534196296E+00 -0.58180324489E+00 -0.10530064473E+01  0.15116774670E+01  0.51100000000E-03 0.  1.
         22    1    1    0    0    0 -0.37839963056E+02  0.24103680809E+02  0.43513213223E+02  0.62499999661E+02  0.00000000000E+00 0. -1.
</event>
<event>
 4    1  0.1976955E-002  0.9118800E+02  0.7818608E-02  0.1130116E+00
         25   -1    0    0    0    0  0.00000000000E+00  0.00000000000E+00  0.99999998245E-14  0.12500000000E+03  0.12500000000E+03 0.  0.
        -11    1    1    0    0    0 -0.26847850599E+02  0.33229078812E+02 -0.35427264143E+02  0.55498376601E+02  0.51100000000E-03 0.  1.
         11    1    1    0    0    0 -0.67621514451E+01 -0.11455685239E+01 -0.45295508187E+01  0.82192366002E+01  0.51100000000E-03 0. -1.
         22    1    1    0    0    0  0.33610002045E+02 -0.32083510288E+02  0.39956814962E+02  0.61282386798E+02  0.00000000000E+00 0.  1.
</event>
<event>
 4    1  0.1976955E-002  0.9118800E+02  0.7818608E-02  0.1130116E+00
         25   -1    0    0    0    0  0.00000000000E+00  0.00000000000E+00  0.99999998245E-14  0.12500000000E+03  0.12500000000E+03 0.  0.
        -11    1    1    0    0    0 -0.11906932628E+02  0.63578579532E+01 -0.18145314179E+02  0.22615256560E+02  0.51100000000E-03 0. -1.
         11    1    1    0    0    0 -0.20999205931E+02  0.11212959895E+02 -0.32001494341E+02  0.39884743444E+02  0.51100000000E-03 0. -1.
         22    1    1    0    0    0  0.32906138558E+02 -0.17570817848E+02  0.50146808520E+02  0.62499999995E+02  0.00000000000E+00 0. -1.
</event>
<event>
 4    1  0.1976955E-002  0.9118800E+02  0.7818608E-02  0.1130116E+00
         25   -1    0    0    0    0  0.00000000000E+00  0.00000000000E+00  0.99999998245E-14  0.12500000000E+03  0.12500000000E+03 0.  0.
        -11    1    1    0    0    0 -0.75258413666E+00  0.20877370748E+02  0.10814438808E+02  0.23524095716E+02  0.51100000000E-03 0.  1.
         11    1    1    0    0    0 -0.11842988543E+02  0.17075649143E+02 -0.44549786573E+02  0.49158088401E+02  0.51100000000E-03 0. -1.
         22    1    1    0    0    0  0.12595572680E+02 -0.37953019891E+02  0.33735347765E+02  0.52317815883E+02  0.00000000000E+00 0.  1.
</event>
<event>
 4    1  0.1976955E-002  0.9118800E+02  0.7818608E-02  0.1130116E+00
         25   -1    0    0    0    0  0.00000000000E+00  0.00000000000E+00  0.99999998245E-14  0.12500000000E+03  0.12500000000E+03 0.  0.
        -11    1    1    0    0    0  0.49610755925E+02 -0.16094571780E+02 -0.25823236844E+02  0.58198813610E+02  0.51100000000E-03 0. -1.
         11    1    1    0    0    0  0.37661473454E+01 -0.10222834158E+01 -0.18146662019E+01  0.43037126873E+01  0.51100000000E-03 0.  1.
         22    1    1    0    0    0 -0.53376903270E+02  0.17116855196E+02  0.27637903046E+02  0.62497473703E+02  0.00000000000E+00 0. -1.
</event>
<event>
 4    1  0.1976955E-002  0.9118800E+02  0.7818608E-02  0.1130116E+00
         25   -1    0    0    0    0  0.00000000000E+00  0.00000000000E+00  0.99999998245E-14  0.12500000000E+03  0.12500000000E+03 0.  0.
        -11    1    1    0    0    0  0.23388411583E+02  0.31100277955E+02 -0.44602429851E+02  0.59191400001E+02  0.51100000000E-03 0. -1.
         11    1    1    0    0    0  0.13075253122E+01  0.17379459324E+01 -0.24933422266E+01  0.33086000402E+01  0.51100000000E-03 0. -1.
         22    1    1    0    0    0 -0.24695936895E+02 -0.32838223888E+02  0.47095772077E+02  0.62499999958E+02  0.00000000000E+00 0. -1.
</event>
<event>
 4    1  0.1976955E-002  0.9118800E+02  0.7818608E-02  0.1130116E+00
         25   -1    0    0    0    0  0.00000000000E+00  0.00000000000E+00  0.99999998245E-14  0.12500000000E+03  0.12500000000E+03 0.  0.
        -11    1    1    0    0    0  0.20488816891E+02 -0.32297913779E+02 -0.30359099048E+02  0.48832588989E+02  0.51100000000E-03 0. -1.
         11    1    1    0    0    0 -0.13722395841E+02 -0.10442041831E+02 -0.73741100562E+01  0.18754143132E+02  0.51100000000E-03 0.  1.
         22    1    1    0    0    0 -0.67664210502E+01  0.42739955610E+02  0.37733209104E+02  0.57413267880E+02  0.00000000000E+00 0. -1.
</event>
<event>
 4    1  0.1976955E-002  0.9118800E+02  0.7818608E-02  0.1130116E+00
         25   -1    0    0    0    0  0.00000000000E+00  0.00000000000E+00  0.99999998245E-14  0.12500000000E+03  0.12500000000E+03 0.  0.
        -11    1    1    0    0    0 -0.14408489158E+02 -0.11117942113E+02 -0.49352131733E+02  0.52600818468E+02  0.51100000000E-03 0.  1.
         11    1    1    0    0    0 -0.14420560369E+02  0.67681693227E+01  0.10303953498E+01  0.15963157337E+02  0.51100000000E-03 0. -1.
         22    1    1    0    0    0  0.28829049527E+02  0.43497727907E+01  0.48321736383E+02  0.56436024195E+02  0.00000000000E+00 0.  1.
</event>
<event>
 4    1  0.1976955E-002  0.9118800E+02  0.7818608E-02  0.1130116E+00
         25   -1    0    0    0    0  0.00000000000E+00  0.00000000000E+00  0.99999998245E-14  0.12500000000E+03  0.12500000000E+03 0.  0.
        -11    1    1    0    0    0 -0.27978308748E+02  0.29778943984E+02 -0.57167192859E+01  0.41258358485E+02  0.51100000000E-03 0.  1.
         11    1    1    0    0    0 -0.14405703754E+02  0.15329979065E+02 -0.29452976294E+01  0.21241641584E+02  0.51100000000E-03 0. -1.
         22    1    1    0    0    0  0.42384012502E+02 -0.45108923049E+02  0.86620169152E+01  0.62499999932E+02  0.00000000000E+00 0.  1.
</event>
<event>
 4    1  0.1976955E-002  0.9118800E+02  0.7818608E-02  0.1130116E+00
         25   -1    0    0    0    0  0.00000000000E+00  0.00000000000E+00  0.99999998245E-14  0.12500000000E+03  0.12500000000E+03 0.  0.
        -11    1    1    0    0    0 -0.60699016393E+01 -0.36258769207E+01  0.20026101340E+02  0.21237594602E+02  0.51100000000E-03 0. -1.
         11    1    1    0    0    0 -0.11702896426E+02 -0.70756112010E+01  0.38930266730E+02  0.41262425117E+02  0.51100000000E-03 0.  1.
         22    1    1    0    0    0  0.17772798066E+02  0.10701488122E+02 -0.58956368070E+02  0.62499980281E+02  0.00000000000E+00 0.  1.
</event>
<event>
 4    1  0.1976955E-002  0.9118800E+02  0.7818608E-02  0.1130116E+00
         25   -1    0    0    0    0  0.00000000000E+00  0.00000000000E+00  0.99999998245E-14  0.12500000000E+03  0.12500000000E+03 0.  0.
        -11    1    1    0    0    0 -0.27735866261E+02  0.37931820584E+02 -0.31533988827E+02  0.56590579973E+02  0.51100000000E-03 0. -1.
         11    1    1    0    0    0 -0.21109181311E+01  0.32322893012E+01 -0.46196123882E+01  0.60203395553E+01  0.51100000000E-03 0.  1.
         22    1    1    0    0    0  0.29846784392E+02 -0.41164109885E+02  0.36153601215E+02  0.62389080471E+02  0.00000000000E+00 0. -1.
</event>
<event>
 4    1  0.1976955E-002  0.9118800E+02  0.7818608E-02  0.1130116E+00
         25   -1    0    0    0    0  0.00000000000E+00  0.00000000000E+00  0.99999998245E-14  0.12500000000E+03  0.12500000000E+03 0.  0.
        -11    1    1    0    0    0 -0.12902865752E+02  0.13886609110E+02 -0.29274711088E+02  0.34875931052E+02  0.51100000000E-03 0. -1.
         11    1    1    0    0    0 -0.10220160579E+02  0.10999076400E+02 -0.23187449651E+02  0.27624068953E+02  0.51100000000E-03 0. -1.
         22    1    1    0    0    0  0.23123026331E+02 -0.24885685510E+02  0.52462160739E+02  0.62499999995E+02  0.00000000000E+00 0. -1.
</event>
<event>
 4    1  0.1976955E-002  0.9118800E+02  0.7818608E-02  0.1130116E+00
         25   -1    0    0    0    0  0.00000000000E+00  0.00000000000E+00  0.99999998245E-14  0.12500000000E+03  0.12500000000E+03 0.  0.
        -11    1    1    0    0    0 -0.13005119530E+01  0.54373027841E+01  0.29427718243E+01  0.63178714119E+01  0.51100000000E-03 0. -1.
         11    1    1    0    0    0 -0.13322419906E+02  0.48734678114E+02  0.24579809048E+02  0.56184719774E+02  0.51100000000E-03 0.  1.
         22    1    1    0    0    0  0.14622931859E+02 -0.54171980898E+02 -0.27522580872E+02  0.62497408814E+02  0.00000000000E+00 0.  1.
</event>
<event>
 4    1  0.1976955E-002  0.9118800E+02  0.7818608E-02  0.1130116E+00
         25   -1    0    0    0    0  0.00000000000E+00  0.00000000000E+00  0.99999998245E-14  0.12500000000E+03  0.12500000000E+03 0.  0.
        -11    1    1    0    0    0 -0.21610001036E+01  0.13915192961E+02  0.46002248262E+01  0.14814337154E+02  0.51100000000E-03 0.  1.
         11    1    1    0    0    0 -0.68111655400E+01  0.44877491892E+02  0.14613316694E+02  0.47685745035E+02  0.51100000000E-03 0. -1.
         22    1    1    0    0    0  0.89721656436E+01 -0.58792684853E+02 -0.19213541520E+02  0.62499917811E+02  0.00000000000E+00 0.  1.
</event>
<event>
 4    1  0.1976955E-002  0.9118800E+02  0.7818608E-02  0.1130116E+00
         25   -1    0    0    0    0  0.00000000000E+00  0.00000000000E+00  0.99999998245E-14  0.12500000000E+03  0.12500000000E+03 0.  0.
        -11    1    1    0    0    0  0.84783831172E+01  0.51530388393E+02 -0.19124211071E+02  0.55614740470E+02  0.51100000000E-03 0. -1.
         11    1    1    0    0    0  0.97388692078E+00  0.63831169657E+01 -0.23910172053E+01  0.68854630541E+01  0.51100000000E-03 0.  1.
         22    1    1    0    0    0 -0.94522700380E+01 -0.57913505359E+02  0.21515228276E+02  0.62499796476E+02  0.00000000000E+00 0. -1.
</event>
<event>
 4    1  0.1976955E-002  0.9118800E+02  0.7818608E-02  0.1130116E+00
         25   -1    0    0    0    0  0.00000000000E+00  0.00000000000E+00  0.99999998245E-14  0.12500000000E+03  0.12500000000E+03 0.  0.
        -11    1    1    0    0    0 -0.53205370617E+01 -0.38662108243E+01  0.22637833399E+01  0.69556032114E+01  0.51100000000E-03 0.  1.
         11    1    1    0    0    0 -0.89236202688E+01  0.18619311311E+02  0.54185221981E+02  0.57985757163E+02  0.51100000000E-03 0. -1.
         22    1    1    0    0    0  0.14244157330E+02 -0.14753100487E+02 -0.56449005321E+02  0.60058639626E+02  0.00000000000E+00 0. -1.
</event>
<event>
 4    1  0.1976955E-002  0.9118800E+02  0.7818608E-02  0.1130116E+00
         25   -1    0    0    0    0  0.00000000000E+00  0.00000000000E+00  0.99999998245E-14  0.12500000000E+03  0.12500000000E+03 0.  0.
        -11    1    1    0    0    0  0.86913153196E+00 -0.15975641698E+02 -0.44342248681E+02  0.47140338731E+02  0.51100000000E-03 0.  1.
         11    1    1    0    0    0  0.28251042975E+00 -0.52055250618E+01 -0.14447902654E+02  0.15359661281E+02  0.51100000000E-03 0. -1.
         22    1    1    0    0    0 -0.11516419617E+01  0.21181166760E+02  0.58790151335E+02  0.62499999988E+02  0.00000000000E+00 0.  1.
</event>
<event>
 4    1  0.1976955E-002  0.9118800E+02  0.7818608E-02  0.1130116E+00
         25   -1    0    0    0    0  0.00000000000E+00  0.00000000000E+00  0.99999998245E-14  0.12500000000E+03  0.12500000000E+03 0.  0.
        -11    1    1    0    0    0 -0.15492559742E+02  0.20292627283E+02  0.22922756014E+02  0.34311264520E+02  0.51100000000E-03 0. -1.
         11    1    1    0    0    0 -0.16848640851E+02  0.15092144886E+02  0.17006605192E+02  0.28299720073E+02  0.51100000000E-03 0.  1.
         22    1    1    0    0    0  0.32341200592E+02 -0.35384772169E+02 -0.39929361206E+02  0.62389015408E+02  0.00000000000E+00 0. -1.
</event>
<event>
 4    1  0.1976955E-002  0.9118800E+02  0.7818608E-02  0.1130116E+00
         25   -1    0    0    0    0  0.00000000000E+00  0.00000000000E+00  0.99999998245E-14  0.12500000000E+03  0.12500000000E+03 0.  0.
        -11    1    1    0    0    0  0.26988246820E+02  0.40173843059E+01  0.27026027700E+02  0.38404570256E+02  0.51100000000E-03 0.  1.
         11    1    1    0    0    0  0.25872054632E+02  0.92803895551E+01 -0.12440537595E+02  0.30170446087E+02  0.51100000000E-03 0. -1.
         22    1    1    0    0    0 -0.52860301451E+02 -0.13297773861E+02 -0.14585490105E+02  0.56424983658E+02  0.00000000000E+00 0. -1.
</event>
<event>
 4    1  0.1976955E-002  0.9118800E+02  0.7818608E-02  0.1130116E+00
         25   -1    0    0    0    0  0.00000000000E+00  0.00000000000E+00  0.99999998245E-14  0.12500000000E+03  0.12500000000E+03 0.  0.
        -11    1    1    0    0    0  0.12948113880E+02 -0.19768010289E+02  0.41450605036E+02  0.47713525776E+02  0.51100000000E-03 0.  1.
         11    1    1    0    0    0  0.40248474773E+01 -0.61622368002E+01  0.12824507185E+02  0.14786498720E+02  0.51100000000E-03 0. -1.
         22    1    1    0    0    0 -0.16972961358E+02  0.25930247089E+02 -0.54275112221E+02  0.62499975504E+02  0.00000000000E+00 0.  1.
</event>
<event>
 4    1  0.1976955E-002  0.9118800E+02  0.7818608E-02  0.1130116E+00
         25   -1    0    0    0    0  0.00000000000E+00  0.00000000000E+00  0.99999998245E-14  0.12500000000E+03  0.12500000000E+03 0.  0.
        -11    1    1    0    0    0  0.10702974395E+02 -0.23492378337E+02 -0.21163533620E+02  0.33381741362E+02  0.51100000000E-03 0. -1.
         11    1    1    0    0    0  0.93368820272E+01 -0.20491832265E+02 -0.18460239185E+02  0.29118258646E+02  0.51100000000E-03 0. -1.
         22    1    1    0    0    0 -0.20039856422E+02  0.43984210602E+02  0.39623772805E+02  0.62499999992E+02  0.00000000000E+00 0. -1.
</event>
<event>
 4    1  0.1976955E-002  0.9118800E+02  0.7818608E-02  0.1130116E+00
         25   -1    0    0    0    0  0.00000000000E+00  0.00000000000E+00  0.99999998245E-14  0.12500000000E+03  0.12500000000E+03 0.  0.
        -11    1    1    0    0    0  0.29458955113E+02 -0.67540911557E+01  0.38100525248E+02  0.48632271262E+02  0.51100000000E-03 0. -1.
         11    1    1    0    0    0  0.81626435020E+01 -0.18281107556E+01  0.11062737299E+02  0.13869206707E+02  0.51100000000E-03 0.  1.
         22    1    1    0    0    0 -0.37621598615E+02  0.85822019112E+01 -0.49163262546E+02  0.62498522032E+02  0.00000000000E+00 0.  1.
</event>
<event>
 4    1  0.1976955E-002  0.9118800E+02  0.7818608E-02  0.1130116E+00
         25   -1    0    0    0    0  0.00000000000E+00  0.00000000000E+00  0.99999998245E-14  0.12500000000E+03  0.12500000000E+03 0.  0.
        -11    1    1    0    0    0 -0.32776097225E+02  0.96116570196E+01 -0.32111397890E+01  0.34306966042E+02  0.51100000000E-03 0.  1.
         11    1    1    0    0    0 -0.26935358626E+02  0.78972579690E+01 -0.26394955479E+01  0.28193033976E+02  0.51100000000E-03 0. -1.
         22    1    1    0    0    0  0.59711455851E+02 -0.17508914989E+02  0.58506353369E+01  0.62499999983E+02  0.00000000000E+00 0.  1.
</event>
<event>
 4    1  0.1976955E-002  0.9118800E+02  0.7818608E-02  0.1130116E+00
         25   -1    0    0    0    0  0.00000000000E+00  0.00000000000E+00  0.99999998245E-14  0.12500000000E+03  0.12500000000E+03 0.  0.
        -11    1    1    0    0    0 -0.34100322337E+02 -0.19112507901E+02 -0.25066372855E+02  0.46437517054E+02  0.51100000000E-03 0.  1.
         11    1    1    0    0    0 -0.11297290191E+02 -0.61773126890E+01 -0.96290679633E+01  0.16078150012E+02  0.51100000000E-03 0. -1.
         22    1    1    0    0    0  0.45397612528E+02  0.25289820590E+02  0.34695440818E+02  0.62484332934E+02  0.00000000000E+00 0. -1.
</event>
<event>
 4    1  0.1976955E-002  0.9118800E+02  0.7818608E-02  0.1130116E+00
         25   -1    0    0    0    0  0.00000000000E+00  0.00000000000E+00  0.99999998245E-14  0.12500000000E+03  0.12500000000E+03 0.  0.
        -11    1    1    0    0    0  0.38592483922E+02  0.20238869701E+02  0.27148658155E+02  0.51342392834E+02  0.51100000000E-03 0.  1.
         11    1    1    0    0    0  0.83890750847E+01  0.43983835775E+01  0.58965960703E+01  0.11157607465E+02  0.51100000000E-03 0. -1.
         22    1    1    0    0    0 -0.46981559006E+02 -0.24637253279E+02 -0.33045254225E+02  0.62499999701E+02  0.00000000000E+00 0.  1.
</event>
<event>
 4    1  0.1976955E-002  0.9118800E+02  0.7818608E-02  0.1130116E+00
         25   -1    0    0    0    0  0.00000000000E+00  0.00000000000E+00  0.99999998245E-14  0.12500000000E+03  0.12500000000E+03 0.  0.
        -11    1    1    0    0    0  0.23405094784E+01  0.81425916025E+00 -0.46419666157E+01  0.52620202319E+01  0.51100000000E-03 0. -1.
         11    1    1    0    0    0  0.26710840739E+02  0.10832871830E+02 -0.49453432778E+02  0.57240389052E+02  0.51100000000E-03 0.  1.
         22    1    1    0    0    0 -0.29051350218E+02 -0.11647130990E+02  0.54095399393E+02  0.62497590716E+02  0.00000000000E+00 0.  1.
</event>
<event>
 4    1  0.1976955E-002  0.9118800E+02  0.7818608E-02  0.1130116E+00
         25   -1    0    0    0    0  0.00000000000E+00  0.00000000000E+00  0.99999998245E-14  0.12500000000E+03  0.12500000000E+03 0.  0.
        -11    1    1    0    0    0  0.11137725487E+02  0.25676845369E+02 -0.45585552200E+02  0.53491979649E+02  0.51100000000E-03 0. -1.
         11    1    1    0    0    0  0.18761595847E+01  0.43247447639E+01 -0.76760041046E+01  0.90080203893E+01  0.51100000000E-03 0.  1.
         22    1    1    0    0    0 -0.13013885071E+02 -0.30001590133E+02  0.53261556305E+02  0.62499999961E+02  0.00000000000E+00 0. -1.
</event>
<event>
 4    1  0.1976955E-002  0.9118800E+02  0.7818608E-02  0.1130116E+00
         25   -1    0    0    0    0  0.00000000000E+00  0.00000000000E+00  0.99999998245E-14  0.12500000000E+03  0.12500000000E+03 0.  0.
        -11    1    1    0    0    0 -0.17219557409E+02  0.52779938154E+01  0.52425621989E+02  0.55432988529E+02  0.51100000000E-03 0. -1.
         11    1    1    0    0    0 -0.19776326108E+01 -0.37224185436E-02  0.68016136510E+01  0.70832897102E+01  0.51100000000E-03 0.  1.
         22    1    1    0    0    0  0.19197190020E+02 -0.52742713969E+01 -0.59227235640E+02  0.62483721760E+02  0.00000000000E+00 0. -1.
</event>
<event>
 4    1  0.1976955E-002  0.9118800E+02  0.7818608E-02  0.1130116E+00
         25   -1    0    0    0    0  0.00000000000E+00  0.00000000000E+00  0.99999998245E-14  0.12500000000E+03  0.12500000000E+03 0.  0.
        -11    1    1    0    0    0  0.15290316614E+01 -0.48205309929E+01 -0.36731703902E+01  0.62504110146E+01  0.51100000000E-03 0. -1.
         11    1    1    0    0    0  0.13863053813E+02 -0.43349686757E+02 -0.33055063731E+02  0.56249594145E+02  0.51100000000E-03 0.  1.
         22    1    1    0    0    0 -0.15392085474E+02  0.48170217750E+02  0.36728234121E+02  0.62499994840E+02  0.00000000000E+00 0.  1.
</event>
<event>
 4    1  0.1976955E-002  0.9118800E+02  0.7818608E-02  0.1130116E+00
         25   -1    0    0    0    0  0.00000000000E+00  0.00000000000E+00  0.99999998245E-14  0.12500000000E+03  0.12500000000E+03 0.  0.
        -11    1    1    0    0    0 -0.13001529525E+01 -0.42392069347E+02 -0.30551262367E+02  0.52270044707E+02  0.51100000000E-03 0.  1.
         11    1    1    0    0    0 -0.43304259256E+01 -0.36862569455E+01 -0.97290601698E+01  0.11269236488E+02  0.51100000000E-03 0. -1.
         22    1    1    0    0    0  0.56305788781E+01  0.46078326292E+02  0.40280322537E+02  0.61460718805E+02  0.00000000000E+00 0.  1.
</event>
<event>
 4    1  0.1976955E-002  0.9118800E+02  0.7818608E-02  0.1130116E+00
         25   -1    0    0    0    0  0.00000000000E+00  0.00000000000E+00  0.99999998245E-14  0.12500000000E+03  0.12500000000E+03 0.  0.
        -11    1    1    0    0    0  0.50690311542E+01  0.47707212130E+02  0.24165714554E+02  0.53718292287E+02  0.51100000000E-03 0.  1.
         11    1    1    0    0    0  0.83026440568E+00  0.78043745787E+01  0.39396513803E+01  0.87817113826E+01  0.51100000000E-03 0. -1.
         22    1    1    0    0    0 -0.58992955598E+01 -0.55511586709E+02 -0.28105365934E+02  0.62499996331E+02  0.00000000000E+00 0.  1.
</event>
<event>
 4    1  0.1976955E-002  0.9118800E+02  0.7818608E-02  0.1130116E+00
         25   -1    0    0    0    0  0.00000000000E+00  0.00000000000E+00  0.99999998245E-14  0.12500000000E+03  0.12500000000E+03 0.  0.
        -11    1    1    0    0    0 -0.27595125388E+02 -0.21170902256E+01 -0.69556540914E+01  0.28536890866E+02  0.51100000000E-03 0. -1.
         11    1    1    0    0    0 -0.32921632705E+02 -0.28982126699E+01 -0.78319143357E+01  0.33964281519E+02  0.51100000000E-03 0.  1.
         22    1    1    0    0    0  0.60516758093E+02  0.50153028955E+01  0.14787568427E+02  0.62498827615E+02  0.00000000000E+00 0.  1.
</event>
<event>
 4    1  0.1976955E-002  0.9118800E+02  0.7818608E-02  0.1130116E+00
         25   -1    0    0    0    0  0.00000000000E+00  0.00000000000E+00  0.99999998245E-14  0.12500000000E+03  0.12500000000E+03 0.  0.
        -11    1    1    0    0    0  0.66497452573E+01  0.97119191529E+01 -0.88067539292E+01  0.14700319747E+02  0.51100000000E-03 0.  1.
         11    1    1    0    0    0  0.20561678772E+02  0.32035480328E+02 -0.28912290610E+02  0.47801414021E+02  0.51100000000E-03 0. -1.
         22    1    1    0    0    0 -0.27211424030E+02 -0.41747399481E+02  0.37719044540E+02  0.62498266233E+02  0.00000000000E+00 0. -1.
</event>
<event>
 4    1  0.1976955E-002  0.9118800E+02  0.7818608E-02  0.1130116E+00
         25   -1    0    0    0    0  0.00000000000E+00  0.00000000000E+00  0.99999998245E-14  0.12500000000E+03  0.12500000000E+03 0.  0.
        -11    1    1    0    0    0 -0.47877853640E+01 -0.35906639319E+02 -0.47522393956E+02  0.59754393675E+02  0.51100000000E-03 0.  1.
         11    1    1    0    0    0  0.28699962306E+01  0.10590334049E+01 -0.27048421733E+01  0.40834546110E+01  0.51100000000E-03 0. -1.
         22    1    1    0    0    0  0.19177891334E+01  0.34847605914E+02  0.50227236129E+02  0.61162151714E+02  0.00000000000E+00 0.  1.
</event>
<event>
 4    1  0.1976955E-002  0.9118800E+02  0.7818608E-02  0.1130116E+00
         25   -1    0    0    0    0  0.00000000000E+00  0.00000000000E+00  0.99999998245E-14  0.12500000000E+03  0.12500000000E+03 0.  0.
        -11    1    1    0    0    0  0.17218057414E+02 -0.37364415168E+02  0.34264052796E+02  0.53540511169E+02  0.51100000000E-03 0.  1.
         11    1    1    0    0    0 -0.84185691201E+01  0.27737505776E+00  0.99808267913E+01  0.13060097498E+02  0.51100000000E-03 0. -1.
         22    1    1    0    0    0 -0.87994882938E+01  0.37087040110E+02 -0.44244879587E+02  0.58399391333E+02  0.00000000000E+00 0.  1.
</event>
<event>
 4    1  0.1976955E-002  0.9118800E+02  0.7818608E-02  0.1130116E+00
         25   -1    0    0    0    0  0.00000000000E+00  0.00000000000E+00  0.99999998245E-14  0.12500000000E+03  0.12500000000E+03 0.  0.
        -11    1    1    0    0    0 -0.17301719187E+02 -0.29775795446E+01 -0.34315263734E+02  0.38545463963E+02  0.51100000000E-03 0.  1.
         11    1    1    0    0    0 -0.10753624210E+02 -0.18513833480E+01 -0.21324908995E+02  0.23954536061E+02  0.51100000000E-03 0. -1.
         22    1    1    0    0    0  0.28055343397E+02  0.48289628926E+01  0.55640172729E+02  0.62499999976E+02  0.00000000000E+00 0.  1.
</event>
<event>
 4    1  0.1976955E-002  0.9118800E+02  0.7818608E-02  0.1130116E+00
         25   -1    0    0    0    0  0.00000000000E+00  0.00000000000E+00  0.99999998245E-14  0.12500000000E+03  0.12500000000E+03 0.  0.
        -11    1    1    0    0    0 -0.49761032591E+02 -0.15555762536E+02  0.13213918844E+02  0.53784289194E+02  0.51100000000E-03 0.  1.
         11    1    1    0    0    0 -0.81218191131E+01 -0.28553028287E+01  0.14499320446E+01  0.87303495431E+01  0.51100000000E-03 0. -1.
         22    1    1    0    0    0  0.57882851704E+02  0.18411065365E+02 -0.14663850888E+02  0.62485361263E+02  0.00000000000E+00 0.  1.
</event>
<event>
 4    1  0.1976955E-002  0.9118800E+02  0.7818608E-02  0.1130116E+00
         25   -1    0    0    0    0  0.00000000000E+00  0.00000000000E+00  0.99999998245E-14  0.12500000000E+03  0.12500000000E+03 0.  0.
        -11    1    1    0    0    0  0.18952194042E+01  0.35954945473E+01  0.39131503348E+02  0.39342013067E+02  0.51100000000E-03 0.  1.
         11    1    1    0    0    0 -0.48514319387E+00  0.14974428221E+01  0.23124544541E+02  0.23178055558E+02  0.51100000000E-03 0. -1.
         22    1    1    0    0    0 -0.14100762104E+01 -0.50929373694E+01 -0.62256047889E+02  0.62479931376E+02  0.00000000000E+00 0.  1.
</event>
<event>
 4    1  0.1976955E-002  0.9118800E+02  0.7818608E-02  0.1130116E+00
         25   -1    0    0    0    0  0.00000000000E+00  0.00000000000E+00  0.99999998245E-14  0.12500000000E+03  0.12500000000E+03 0.  0.
        -11    1    1    0    0    0  0.17668359622E+02  0.43529142930E+02  0.70015427242E+01  0.47497145353E+02  0.51100000000E-03 0.  1.
         11    1    1    0    0    0  0.55816444602E+01  0.13749308389E+02  0.22107491723E+01  0.15002854669E+02  0.51100000000E-03 0. -1.
         22    1    1    0    0    0 -0.23250004082E+02 -0.57278451318E+02 -0.92122918965E+01  0.62499999978E+02  0.00000000000E+00 0.  1.
</event>
<event>
 4    1  0.1976955E-002  0.9118800E+02  0.7818608E-02  0.1130116E+00
         25   -1    0    0    0    0  0.00000000000E+00  0.00000000000E+00  0.99999998245E-14  0.12500000000E+03  0.12500000000E+03 0.  0.
        -11    1    1    0    0    0 -0.35597814899E+01  0.32400536025E+02 -0.18239234858E+02  0.37351525637E+02  0.51100000000E-03 0.  1.
         11    1    1    0    0    0 -0.23855048934E+01  0.21821327099E+02 -0.12271303392E+02  0.25148475842E+02  0.51100000000E-03 0. -1.
         22    1    1    0    0    0  0.59452863833E+01 -0.54221863124E+02  0.30510538251E+02  0.62499998521E+02  0.00000000000E+00 0.  1.
</event>
<event>
 4    1  0.1976955E-002  0.9118800E+02  0.7818608E-02  0.1130116E+00
         25   -1    0    0    0    0  0.00000000000E+00  0.00000000000E+00  0.99999998245E-14  0.12500000000E+03  0.12500000000E+03 0.  0.
        -11    1    1    0    0    0 -0.24301694642E+02  0.32611951374E+00  0.35332935377E+01  0.24559374582E+02  0.51100000000E-03 0.  1.
         11    1    1    0    0    0 -0.37542577483E+02  0.50748136509E+00  0.54578749037E+01  0.37940625458E+02  0.51100000000E-03 0. -1.
         22    1    1    0    0    0  0.61844272125E+02 -0.83360087883E+00 -0.89911684414E+01  0.62499999960E+02  0.00000000000E+00 0.  1.
</event>
<event>
 4    1  0.1976955E-002  0.9118800E+02  0.7818608E-02  0.1130116E+00
         25   -1    0    0    0    0  0.00000000000E+00  0.00000000000E+00  0.99999998245E-14  0.12500000000E+03  0.12500000000E+03 0.  0.
        -11    1    1    0    0    0  0.80002153417E+01 -0.14227830338E+01  0.16190377374E+02  0.18115078715E+02  0.51100000000E-03 0.  1.
         11    1    1    0    0    0  0.19604034237E+02 -0.34867005801E+01  0.39667946750E+02  0.44384921301E+02  0.51100000000E-03 0.  1.
         22    1    1    0    0    0 -0.27604249578E+02  0.49094836139E+01 -0.55858324124E+02  0.62499999984E+02  0.00000000000E+00 0.  1.
</event>
<event>
 4    1  0.1976955E-002  0.9118800E+02  0.7818608E-02  0.1130116E+00
         25   -1    0    0    0    0  0.00000000000E+00  0.00000000000E+00  0.99999998245E-14  0.12500000000E+03  0.12500000000E+03 0.  0.
        -11    1    1    0    0    0 -0.88750024353E+01  0.12905901117E+01  0.49945091612E+01  0.10265301412E+02  0.51100000000E-03 0.  1.
         11    1    1    0    0    0 -0.47089980062E+02  0.67500823785E+01  0.21608612697E+02  0.52249038052E+02  0.51100000000E-03 0. -1.
         22    1    1    0    0    0  0.55964982497E+02 -0.80406724901E+01 -0.26603121858E+02  0.62485660536E+02  0.00000000000E+00 0. -1.
</event>
<event>
 4    1  0.1976955E-002  0.9118800E+02  0.7818608E-02  0.1130116E+00
         25   -1    0    0    0    0  0.00000000000E+00  0.00000000000E+00  0.99999998245E-14  0.12500000000E+03  0.12500000000E+03 0.  0.
        -11    1    1    0    0    0  0.11268462344E+02  0.22686917842E+01 -0.31349629606E+02  0.33390484913E+02  0.51100000000E-03 0.  1.
         11    1    1    0    0    0  0.10377928102E+02  0.56292769930E+01 -0.26678342250E+02  0.29174031203E+02  0.51100000000E-03 0. -1.
         22    1    1    0    0    0 -0.21646390447E+02 -0.78979687772E+01  0.58027971856E+02  0.62435483884E+02  0.00000000000E+00 0.  1.
</event>
<event>
 4    1  0.1976955E-002  0.9118800E+02  0.7818608E-02  0.1130116E+00
         25   -1    0    0    0    0  0.00000000000E+00  0.00000000000E+00  0.99999998245E-14  0.12500000000E+03  0.12500000000E+03 0.  0.
        -11    1    1    0    0    0 -0.47619633420E+01  0.55053144673E+02  0.26062333941E+02  0.61096401563E+02  0.51100000000E-03 0. -1.
         11    1    1    0    0    0 -0.13518448597E+01  0.11725401693E+01 -0.85861472657E+00  0.19848310969E+01  0.51100000000E-03 0.  1.
         22    1    1    0    0    0  0.61138082017E+01 -0.56225684842E+02 -0.25203719215E+02  0.61918767340E+02  0.00000000000E+00 0. -1.
</event>
<event>
 4    1  0.1976955E-002  0.9118800E+02  0.7818608E-02  0.1130116E+00
         25   -1    0    0    0    0  0.00000000000E+00  0.00000000000E+00  0.99999998245E-14  0.12500000000E+03  0.12500000000E+03 0.  0.
        -11    1    1    0    0    0  0.30247413178E+02  0.30620279077E+02  0.34486942346E+02  0.55153029721E+02  0.51100000000E-03 0.  1.
         11    1    1    0    0    0  0.40704433158E+01  0.40170346165E+01  0.46125357910E+01  0.73471465605E+01  0.51100000000E-03 0. -1.
         22    1    1    0    0    0 -0.34317856494E+02 -0.34637313694E+02 -0.39099478137E+02  0.62499823719E+02  0.00000000000E+00 0.  1.
</event>
<event>
 4    1  0.1976955E-002  0.9118800E+02  0.7818608E-02  0.1130116E+00
         25   -1    0    0    0    0  0.00000000000E+00  0.00000000000E+00  0.99999998245E-14  0.12500000000E+03  0.12500000000E+03 0.  0.
        -11    1    1    0    0    0 -0.55317936929E+01  0.30638360125E+02 -0.56694650593E+01  0.31645737263E+02  0.51100000000E-03 0. -1.
         11    1    1    0    0    0 -0.54695894802E+01  0.29857218499E+02 -0.55332770892E+01  0.30854287565E+02  0.51100000000E-03 0.  1.
         22    1    1    0    0    0  0.11001383173E+02 -0.60495578624E+02  0.11202742148E+02  0.62499975171E+02  0.00000000000E+00 0. -1.
</event>
<event>
 4    1  0.1976955E-002  0.9118800E+02  0.7818608E-02  0.1130116E+00
         25   -1    0    0    0    0  0.00000000000E+00  0.00000000000E+00  0.99999998245E-14  0.12500000000E+03  0.12500000000E+03 0.  0.
        -11    1    1    0    0    0 -0.61430905045E+00  0.89863788456E+00  0.83027492095E+01  0.83738026221E+01  0.51100000000E-03 0.  1.
         11    1    1    0    0    0  0.83996909848E+01 -0.23586170085E+01  0.53556188060E+02  0.54262170640E+02  0.51100000000E-03 0. -1.
         22    1    1    0    0    0 -0.77853819343E+01  0.14599791239E+01 -0.61858937269E+02  0.62364026738E+02  0.00000000000E+00 0. -1.
</event>
<event>
 4    1  0.1976955E-002  0.9118800E+02  0.7818608E-02  0.1130116E+00
         25   -1    0    0    0    0  0.00000000000E+00  0.00000000000E+00  0.99999998245E-14  0.12500000000E+03  0.12500000000E+03 0.  0.
        -11    1    1    0    0    0  0.15068056724E+02  0.20308442429E+02 -0.47862213689E+02  0.54131974533E+02  0.51100000000E-03 0.  1.
         11    1    1    0    0    0  0.23375365419E+01  0.30776305225E+01 -0.74222559070E+01  0.83681401594E+01  0.51100000000E-03 0. -1.
         22    1    1    0    0    0 -0.17405593266E+02 -0.23386072951E+02  0.55284469596E+02  0.62499885308E+02  0.00000000000E+00 0.  1.
</event>
<event>
 4    1  0.1976955E-002  0.9118800E+02  0.7818608E-02  0.1130116E+00
         25   -1    0    0    0    0  0.00000000000E+00  0.00000000000E+00  0.99999998245E-14  0.12500000000E+03  0.12500000000E+03 0.  0.
        -11    1    1    0    0    0  0.51599018825E+01  0.18960654924E+01 -0.99865781406E+01  0.11399622582E+02  0.51100000000E-03 0. -1.
         11    1    1    0    0    0  0.23194128566E+02  0.82992230481E+01 -0.44770614248E+02  0.51100416863E+02  0.51100000000E-03 0.  1.
         22    1    1    0    0    0 -0.28354030448E+02 -0.10195288541E+02  0.54757192389E+02  0.62499960555E+02  0.00000000000E+00 0.  1.
</event>
<event>
 4    1  0.1976955E-002  0.9118800E+02  0.7818608E-02  0.1130116E+00
         25   -1    0    0    0    0  0.00000000000E+00  0.00000000000E+00  0.99999998245E-14  0.12500000000E+03  0.12500000000E+03 0.  0.
        -11    1    1    0    0    0  0.11571260422E+02 -0.12013767355E+02  0.57367857152E+01  0.17639030144E+02  0.51100000000E-03 0.  1.
         11    1    1    0    0    0  0.29388349093E+02 -0.30626486157E+02  0.14520728233E+02  0.44860988235E+02  0.51100000000E-03 0. -1.
         22    1    1    0    0    0 -0.40959609515E+02  0.42640253513E+02 -0.20257513948E+02  0.62499981621E+02  0.00000000000E+00 0. -1.
</event>
<event>
 4    1  0.1976955E-002  0.9118800E+02  0.7818608E-02  0.1130116E+00
         25   -1    0    0    0    0  0.00000000000E+00  0.00000000000E+00  0.99999998245E-14  0.12500000000E+03  0.12500000000E+03 0.  0.
        -11    1    1    0    0    0  0.12429929554E+02  0.45889480241E+02  0.18186129744E+02  0.50902680292E+02  0.51100000000E-03 0. -1.
         11    1    1    0    0    0  0.27701460614E+01  0.10481488602E+02  0.41188100462E+01  0.11597409580E+02  0.51100000000E-03 0.  1.
         22    1    1    0    0    0 -0.15200075616E+02 -0.56370968843E+02 -0.22304939790E+02  0.62499910128E+02  0.00000000000E+00 0. -1.
</event>
<event>
 4    1  0.1976955E-002  0.9118800E+02  0.7818608E-02  0.1130116E+00
         25   -1    0    0    0    0  0.00000000000E+00  0.00000000000E+00  0.99999998245E-14  0.12500000000E+03  0.12500000000E+03 0.  0.
        -11    1    1    0    0    0  0.36938571560E+01 -0.45167288507E+01  0.29741358387E+02  0.30308312707E+02  0.51100000000E-03 0. -1.
         11    1    1    0    0    0  0.35931918075E+01 -0.51360172273E+01  0.31576404343E+02  0.32192530373E+02  0.51100000000E-03 0.  1.
         22    1    1    0    0    0 -0.72870489635E+01  0.96527460780E+01 -0.61317762730E+02  0.62499156920E+02  0.00000000000E+00 0.  1.
</event>
<event>
 4    1  0.1976955E-002  0.9118800E+02  0.7818608E-02  0.1130116E+00
         25   -1    0    0    0    0  0.00000000000E+00  0.00000000000E+00  0.99999998245E-14  0.12500000000E+03  0.12500000000E+03 0.  0.
        -11    1    1    0    0    0 -0.12754923417E+02 -0.29889483758E+02  0.67707751449E+01  0.33195070523E+02  0.51100000000E-03 0. -1.
         11    1    1    0    0    0 -0.94348440269E+01 -0.26958579338E+02  0.66397314969E+01  0.29323494272E+02  0.51100000000E-03 0.  1.
         22    1    1    0    0    0  0.22189767444E+02  0.56848063095E+02 -0.13410506642E+02  0.62481435205E+02  0.00000000000E+00 0. -1.
</event>
<event>
 4    1  0.1976955E-002  0.9118800E+02  0.7818608E-02  0.1130116E+00
         25   -1    0    0    0    0  0.00000000000E+00  0.00000000000E+00  0.99999998245E-14  0.12500000000E+03  0.12500000000E+03 0.  0.
        -11    1    1    0    0    0 -0.12290721961E+02 -0.14159646749E+01 -0.10986073888E+02  0.16545713101E+02  0.51100000000E-03 0. -1.
         11    1    1    0    0    0 -0.34120590403E+02 -0.39410192840E+01 -0.30529497884E+02  0.45954287763E+02  0.51100000000E-03 0.  1.
         22    1    1    0    0    0  0.46411312364E+02  0.53569839589E+01  0.41515571772E+02  0.62499999136E+02  0.00000000000E+00 0.  1.
</event>
<event>
 4    1  0.1976955E-002  0.9118800E+02  0.7818608E-02  0.1130116E+00
         25   -1    0    0    0    0  0.00000000000E+00  0.00000000000E+00  0.99999998245E-14  0.12500000000E+03  0.12500000000E+03 0.  0.
        -11    1    1    0    0    0  0.21905603610E+02  0.11341033441E+02 -0.47459405545E+01  0.25119682742E+02  0.51100000000E-03 0.  1.
         11    1    1    0    0    0  0.32655239186E+02  0.16719343118E+02 -0.71690274684E+01  0.37380423161E+02  0.51100000000E-03 0. -1.
         22    1    1    0    0    0 -0.54560842796E+02 -0.28060376559E+02  0.11914968023E+02  0.62499894098E+02  0.00000000000E+00 0.  1.
</event>
<event>
 4    1  0.1976955E-002  0.9118800E+02  0.7818608E-02  0.1130116E+00
         25   -1    0    0    0    0  0.00000000000E+00  0.00000000000E+00  0.99999998245E-14  0.12500000000E+03  0.12500000000E+03 0.  0.
        -11    1    1    0    0    0  0.24920404471E+01  0.28419144407E+02 -0.47662808077E+02  0.55548189066E+02  0.51100000000E-03 0. -1.
         11    1    1    0    0    0  0.31436814272E+00  0.35525639412E+01 -0.59672564652E+01  0.69518118407E+01  0.51100000000E-03 0.  1.
         22    1    1    0    0    0 -0.28064085898E+01 -0.31971708348E+02  0.53630064542E+02  0.62499999094E+02  0.00000000000E+00 0. -1.
</event>
<event>
 4    1  0.1976955E-002  0.9118800E+02  0.7818608E-02  0.1130116E+00
         25   -1    0    0    0    0  0.00000000000E+00  0.00000000000E+00  0.99999998245E-14  0.12500000000E+03  0.12500000000E+03 0.  0.
        -11    1    1    0    0    0  0.15865573954E+02 -0.47135056589E+02  0.18008399802E+02  0.52893595645E+02  0.51100000000E-03 0. -1.
         11    1    1    0    0    0  0.28785343591E+01 -0.85647420698E+01  0.32622505432E+01  0.96064064897E+01  0.51100000000E-03 0.  1.
         22    1    1    0    0    0 -0.18744108313E+02  0.55699798659E+02 -0.21270650345E+02  0.62499997866E+02  0.00000000000E+00 0. -1.
</event>
<event>
 4    1  0.1976955E-002  0.9118800E+02  0.7818608E-02  0.1130116E+00
         25   -1    0    0    0    0  0.00000000000E+00  0.00000000000E+00  0.99999998245E-14  0.12500000000E+03  0.12500000000E+03 0.  0.
        -11    1    1    0    0    0 -0.17336474600E+02  0.11653358802E+02  0.18749878389E+01  0.20973070890E+02  0.51100000000E-03 0. -1.
         11    1    1    0    0    0 -0.34638754213E+02  0.22108864228E+02  0.60788957966E+01  0.41540319513E+02  0.51100000000E-03 0.  1.
         22    1    1    0    0    0  0.51975228813E+02 -0.33762223029E+02 -0.79538836354E+01  0.62486609597E+02  0.00000000000E+00 0.  1.
</event>
<event>
 4    1  0.1976955E-002  0.9118800E+02  0.7818608E-02  0.1130116E+00
         25   -1    0    0    0    0  0.00000000000E+00  0.00000000000E+00  0.99999998245E-14  0.12500000000E+03  0.12500000000E+03 0.  0.
        -11    1    1    0    0    0 -0.29119667947E+01  0.45467489291E+02  0.28761277571E+02  0.53879339461E+02  0.51100000000E-03 0. -1.
         11    1    1    0    0    0 -0.48197799634E+00  0.71274340223E+01  0.48285403737E+01  0.86224950526E+01  0.51100000000E-03 0.  1.
         22    1    1    0    0    0  0.33939447910E+01 -0.52594923313E+02 -0.33589817944E+02  0.62498165486E+02  0.00000000000E+00 0. -1.
</event>
<event>
 4    1  0.1976955E-002  0.9118800E+02  0.7818608E-02  0.1130116E+00
         25   -1    0    0    0    0  0.00000000000E+00  0.00000000000E+00  0.99999998245E-14  0.12500000000E+03  0.12500000000E+03 0.  0.
        -11    1    1    0    0    0  0.20643418370E+02  0.12372834455E+02  0.55605568540E+02  0.60590568634E+02  0.51100000000E-03 0.  1.
         11    1    1    0    0    0  0.53705381112E+00  0.17188891650E+00  0.18331512514E+01  0.19179198021E+01  0.51100000000E-03 0. -1.
         22    1    1    0    0    0 -0.21180472181E+02 -0.12544723371E+02 -0.57438719792E+02  0.62491511564E+02  0.00000000000E+00 0.  1.
</event>
<event>
 4    1  0.1976955E-002  0.9118800E+02  0.7818608E-02  0.1130116E+00
         25   -1    0    0    0    0  0.00000000000E+00  0.00000000000E+00  0.99999998245E-14  0.12500000000E+03  0.12500000000E+03 0.  0.
        -11    1    1    0    0    0 -0.34785881358E+01 -0.20118038666E+01  0.37084104022E+01  0.54681110256E+01  0.51100000000E-03 0. -1.
         11    1    1    0    0    0 -0.34807045387E+02 -0.22660465700E+02  0.39087526919E+02  0.57033866038E+02  0.51100000000E-03 0.  1.
         22    1    1    0    0    0  0.38285633523E+02  0.24672269567E+02 -0.42795937321E+02  0.62498022937E+02  0.00000000000E+00 0.  1.
</event>
<event>
 4    1  0.1976955E-002  0.9118800E+02  0.7818608E-02  0.1130116E+00
         25   -1    0    0    0    0  0.00000000000E+00  0.00000000000E+00  0.99999998245E-14  0.12500000000E+03  0.12500000000E+03 0.  0.
        -11    1    1    0    0    0 -0.45678681999E+01 -0.92154232422E+01 -0.27712652869E+01  0.10652199631E+02  0.51100000000E-03 0.  1.
         11    1    1    0    0    0 -0.22226287979E+02 -0.44858684052E+02 -0.13486474617E+02  0.51847800435E+02  0.51100000000E-03 0. -1.
         22    1    1    0    0    0  0.26794156179E+02  0.54074107294E+02  0.16257739904E+02  0.62499999934E+02  0.00000000000E+00 0. -1.
</event>
<event>
 4    1  0.1976955E-002  0.9118800E+02  0.7818608E-02  0.1130116E+00
         25   -1    0    0    0    0  0.00000000000E+00  0.00000000000E+00  0.99999998245E-14  0.12500000000E+03  0.12500000000E+03 0.  0.
        -11    1    1    0    0    0  0.35437056262E+02  0.22702949680E+02 -0.36402450060E+02  0.55644831308E+02  0.51100000000E-03 0.  1.
         11    1    1    0    0    0  0.43209172140E+01  0.28107843571E+01 -0.45192938247E+01  0.68552790758E+01  0.51100000000E-03 0. -1.
         22    1    1    0    0    0 -0.39757973476E+02 -0.25513734037E+02  0.40921743885E+02  0.62499889616E+02  0.00000000000E+00 0.  1.
</event>
<event>
 4    1  0.1976955E-002  0.9118800E+02  0.7818608E-02  0.1130116E+00
         25   -1    0    0    0    0  0.00000000000E+00  0.00000000000E+00  0.99999998245E-14  0.12500000000E+03  0.12500000000E+03 0.  0.
        -11    1    1    0    0    0 -0.13164781515E+02  0.54047055709E+00  0.15212762636E+02  0.20125400071E+02  0.51100000000E-03 0.  1.
         11    1    1    0    0    0 -0.44824731906E+02 -0.36601763884E+01 -0.54369545045E+00  0.44977206301E+02  0.51100000000E-03 0. -1.
         22    1    1    0    0    0  0.57989513421E+02  0.31197058314E+01 -0.14669067185E+02  0.59897393628E+02  0.00000000000E+00 0. -1.
</event>
<event>
 4    1  0.1976955E-002  0.9118800E+02  0.7818608E-02  0.1130116E+00
         25   -1    0    0    0    0  0.00000000000E+00  0.00000000000E+00  0.99999998245E-14  0.12500000000E+03  0.12500000000E+03 0.  0.
        -11    1    1    0    0    0  0.13882090938E+00 -0.32942111929E+02 -0.48973389863E+02  0.59021986789E+02  0.51100000000E-03 0. -1.
         11    1    1    0    0    0  0.56491656855E-02 -0.19396478990E+01 -0.28869212942E+01  0.34780139023E+01  0.51100000000E-03 0.  1.
         22    1    1    0    0    0 -0.14447007507E+00  0.34881759828E+02  0.51860311157E+02  0.62499999309E+02  0.00000000000E+00 0. -1.
</event>
<event>
 4    1  0.1976955E-002  0.9118800E+02  0.7818608E-02  0.1130116E+00
         25   -1    0    0    0    0  0.00000000000E+00  0.00000000000E+00  0.99999998245E-14  0.12500000000E+03  0.12500000000E+03 0.  0.
        -11    1    1    0    0    0 -0.24419705129E+02  0.23072934052E+02 -0.36559645510E+02  0.49651686421E+02  0.51100000000E-03 0.  1.
         11    1    1    0    0    0 -0.61198936699E+01  0.61981769948E+01 -0.94469611722E+01  0.12849730434E+02  0.51100000000E-03 0. -1.
         22    1    1    0    0    0  0.30539598798E+02 -0.29271111047E+02  0.46006606682E+02  0.62498583145E+02  0.00000000000E+00 0.  1.
</event>
<event>
 4    1  0.1976955E-002  0.9118800E+02  0.7818608E-02  0.1130116E+00
         25   -1    0    0    0    0  0.00000000000E+00  0.00000000000E+00  0.99999998245E-14  0.12500000000E+03  0.12500000000E+03 0.  0.
        -11    1    1    0    0    0  0.17286233277E+02 -0.21605167382E+02 -0.55930949000E+02  0.62400866779E+02  0.51100000000E-03 0. -1.
         11    1    1    0    0    0  0.28095993896E-01 -0.33335001043E-01 -0.89035736662E-01  0.99137433352E-01  0.51100000000E-03 0. -1.
         22    1    1    0    0    0 -0.17314329271E+02  0.21638502383E+02  0.56019984737E+02  0.62499995787E+02  0.00000000000E+00 0. -1.
</event>
<event>
 4    1  0.1976955E-002  0.9118800E+02  0.7818608E-02  0.1130116E+00
         25   -1    0    0    0    0  0.00000000000E+00  0.00000000000E+00  0.99999998245E-14  0.12500000000E+03  0.12500000000E+03 0.  0.
        -11    1    1    0    0    0  0.85860075826E+01  0.78989049700E+01  0.13021477087E+01  0.11739157331E+02  0.51100000000E-03 0. -1.
         11    1    1    0    0    0  0.40329739786E+02  0.29233380094E+02  0.10032212378E+02  0.50810665301E+02  0.51100000000E-03 0.  1.
         22    1    1    0    0    0 -0.48915747368E+02 -0.37132285064E+02 -0.11334360087E+02  0.62450177367E+02  0.00000000000E+00 0.  1.
</event>
<event>
 4    1  0.1976955E-002  0.9118800E+02  0.7818608E-02  0.1130116E+00
         25   -1    0    0    0    0  0.00000000000E+00  0.00000000000E+00  0.99999998245E-14  0.12500000000E+03  0.12500000000E+03 0.  0.
        -11    1    1    0    0    0  0.20466543481E+00  0.28262315565E+00  0.12555832837E+01  0.13031705306E+01  0.51100000000E-03 0.  1.
         11    1    1    0    0    0  0.18160039231E+02  0.19547204975E+02  0.55086304048E+02  0.61207688579E+02  0.51100000000E-03 0. -1.
         22    1    1    0    0    0 -0.18364704666E+02 -0.19829828130E+02 -0.56341887332E+02  0.62489140891E+02  0.00000000000E+00 0. -1.
</event>
<event>
 4    1  0.1976955E-002  0.9118800E+02  0.7818608E-02  0.1130116E+00
         25   -1    0    0    0    0  0.00000000000E+00  0.00000000000E+00  0.99999998245E-14  0.12500000000E+03  0.12500000000E+03 0.  0.
        -11    1    1    0    0    0 -0.14351298606E+01 -0.18922361793E+01  0.29977751160E+00  0.23937464971E+01  0.51100000000E-03 0.  1.
         11    1    1    0    0    0 -0.36034913201E+02 -0.47513900422E+02  0.75283471403E+01  0.60106253532E+02  0.51100000000E-03 0.  1.
         22    1    1    0    0    0  0.37470043061E+02  0.49406136601E+02 -0.78281246519E+01  0.62499999971E+02  0.00000000000E+00 0.  1.
</event>
<event>
 4    1  0.1976955E-002  0.9118800E+02  0.7818608E-02  0.1130116E+00
         25   -1    0    0    0    0  0.00000000000E+00  0.00000000000E+00  0.99999998245E-14  0.12500000000E+03  0.12500000000E+03 0.  0.
        -11    1    1    0    0    0  0.98470662158E-01 -0.79171112637E+00  0.14250311333E+01  0.16331616487E+01  0.51100000000E-03 0. -1.
         11    1    1    0    0    0  0.49949134037E+01 -0.27900161406E+02  0.53865275965E+02  0.60867364996E+02  0.51100000000E-03 0.  1.
         22    1    1    0    0    0 -0.50933840659E+01  0.28691872533E+02 -0.55290307099E+02  0.62499473356E+02  0.00000000000E+00 0.  1.
</event>
<event>
 4    1  0.1976955E-002  0.9118800E+02  0.7818608E-02  0.1130116E+00
         25   -1    0    0    0    0  0.00000000000E+00  0.00000000000E+00  0.99999998245E-14  0.12500000000E+03  0.12500000000E+03 0.  0.
        -11    1    1    0    0    0 -0.23024604697E+01  0.48322709607E+01 -0.56182973696E+01  0.77599892040E+01  0.51100000000E-03 0. -1.
         11    1    1    0    0    0 -0.16282638471E+02  0.34098611706E+02 -0.39605925071E+02  0.54740012211E+02  0.51100000000E-03 0.  1.
         22    1    1    0    0    0  0.18585098940E+02 -0.38930882667E+02  0.45224222440E+02  0.62499998585E+02  0.00000000000E+00 0.  1.
</event>
<event>
 4    1  0.1976955E-002  0.9118800E+02  0.7818608E-02  0.1130116E+00
         25   -1    0    0    0    0  0.00000000000E+00  0.00000000000E+00  0.99999998245E-14  0.12500000000E+03  0.12500000000E+03 0.  0.
        -11    1    1    0    0    0  0.46451277575E+02  0.22298164506E+02 -0.33724664369E+02  0.61581509528E+02  0.51100000000E-03 0.  1.
         11    1    1    0    0    0  0.69267388390E+00  0.33273771033E+00 -0.50310352081E+00  0.91849055906E+00  0.51100000000E-03 0.  1.
         22    1    1    0    0    0 -0.47143951459E+02 -0.22630902217E+02  0.34227767890E+02  0.62499999912E+02  0.00000000000E+00 0.  1.
</event>
<event>
 4    1  0.1976955E-002  0.9118800E+02  0.7818608E-02  0.1130116E+00
         25   -1    0    0    0    0  0.00000000000E+00  0.00000000000E+00  0.99999998245E-14  0.12500000000E+03  0.12500000000E+03 0.  0.
        -11    1    1    0    0    0  0.29121132456E+02 -0.30119811583E+02  0.38257923087E+02  0.56735457031E+02  0.51100000000E-03 0. -1.
         11    1    1    0    0    0  0.29791834846E+01 -0.30308731381E+01  0.38947190231E+01  0.57645956271E+01  0.51100000000E-03 0.  1.
         22    1    1    0    0    0 -0.32100315940E+02  0.33150684721E+02 -0.42152642110E+02  0.62499947342E+02  0.00000000000E+00 0. -1.
</event>
<event>
 4    1  0.1976955E-002  0.9118800E+02  0.7818608E-02  0.1130116E+00
         25   -1    0    0    0    0  0.00000000000E+00  0.00000000000E+00  0.99999998245E-14  0.12500000000E+03  0.12500000000E+03 0.  0.
        -11    1    1    0    0    0 -0.41412741463E+01  0.98661734020E+01  0.14482019910E+00  0.10701051458E+02  0.51100000000E-03 0.  1.
         11    1    1    0    0    0 -0.20042195424E+02  0.47759262689E+02  0.70306638475E+00  0.51798948567E+02  0.51100000000E-03 0. -1.
         22    1    1    0    0    0  0.24183469571E+02 -0.57625436091E+02 -0.84788658385E+00  0.62499999975E+02  0.00000000000E+00 0. -1.
</event>
<event>
 4    1  0.1976955E-002  0.9118800E+02  0.7818608E-02  0.1130116E+00
         25   -1    0    0    0    0  0.00000000000E+00  0.00000000000E+00  0.99999998245E-14  0.12500000000E+03  0.12500000000E+03 0.  0.
        -11    1    1    0    0    0 -0.34545363422E+02  0.25572368522E+02 -0.31136371814E+02  0.53073551001E+02  0.51100000000E-03 0. -1.
         11    1    1    0    0    0 -0.61361101525E+01  0.45411696965E+01 -0.55302686158E+01  0.94264490260E+01  0.51100000000E-03 0.  1.
         22    1    1    0    0    0  0.40681473575E+02 -0.30113538219E+02  0.36666640430E+02  0.62499999973E+02  0.00000000000E+00 0. -1.
</event>
<event>
 4    1  0.1976955E-002  0.9118800E+02  0.7818608E-02  0.1130116E+00
         25   -1    0    0    0    0  0.00000000000E+00  0.00000000000E+00  0.99999998245E-14  0.12500000000E+03  0.12500000000E+03 0.  0.
        -11    1    1    0    0    0  0.76524378366E+00  0.18417291992E+01  0.16775199408E+01  0.26060771103E+01  0.51100000000E-03 0. -1.
         11    1    1    0    0    0 -0.27595158964E+02  0.30975230119E+02  0.43729555851E+02  0.60276294962E+02  0.51100000000E-03 0.  1.
         22    1    1    0    0    0  0.26829915180E+02 -0.32816959318E+02 -0.45407075792E+02  0.62117627928E+02  0.00000000000E+00 0.  1.
</event>
<event>
 4    1  0.1976955E-002  0.9118800E+02  0.7818608E-02  0.1130116E+00
         25   -1    0    0    0    0  0.00000000000E+00  0.00000000000E+00  0.99999998245E-14  0.12500000000E+03  0.12500000000E+03 0.  0.
        -11    1    1    0    0    0  0.23099603409E+02 -0.43255982002E+01  0.21409052432E+02  0.31790721976E+02  0.51100000000E-03 0.  1.
         11    1    1    0    0    0  0.22274249572E+02 -0.41446086711E+01  0.20730197598E+02  0.30709299369E+02  0.51100000000E-03 0. -1.
         22    1    1    0    0    0 -0.45373852981E+02  0.84702068713E+01 -0.42139250030E+02  0.62499978655E+02  0.00000000000E+00 0.  1.
</event>
<event>
 4    1  0.1976955E-002  0.9118800E+02  0.7818608E-02  0.1130116E+00
         25   -1    0    0    0    0  0.00000000000E+00  0.00000000000E+00  0.99999998245E-14  0.12500000000E+03  0.12500000000E+03 0.  0.
        -11    1    1    0    0    0  0.19802680125E+01  0.37702875191E+02 -0.19505255870E+02  0.42495685262E+02  0.51100000000E-03 0. -1.
         11    1    1    0    0    0  0.21357342877E+02 -0.34978638716E+01 -0.16829136865E+02  0.27415159936E+02  0.51100000000E-03 0.  1.
         22    1    1    0    0    0 -0.23337610889E+02 -0.34205011319E+02  0.36334392736E+02  0.55089154802E+02  0.00000000000E+00 0. -1.
</event>
<event>
 4    1  0.1976955E-002  0.9118800E+02  0.7818608E-02  0.1130116E+00
         25   -1    0    0    0    0  0.00000000000E+00  0.00000000000E+00  0.99999998245E-14  0.12500000000E+03  0.12500000000E+03 0.  0.
        -11    1    1    0    0    0 -0.23596450634E+02 -0.21113372151E+02 -0.43744825188E+02  0.54001636059E+02  0.51100000000E-03 0. -1.
         11    1    1    0    0    0 -0.32695972881E+01 -0.32732692459E+01 -0.71366190769E+01  0.85050508577E+01  0.51100000000E-03 0.  1.
         22    1    1    0    0    0  0.26866047922E+02  0.24386641397E+02  0.50881444265E+02  0.62493313083E+02  0.00000000000E+00 0. -1.
</event>
<event>
 4    1  0.1976955E-002  0.9118800E+02  0.7818608E-02  0.1130116E+00
         25   -1    0    0    0    0  0.00000000000E+00  0.00000000000E+00  0.99999998245E-14  0.12500000000E+03  0.12500000000E+03 0.  0.
        -11    1    1    0    0    0 -0.80014398578E+01  0.18985919444E+02  0.16294811133E+02  0.26268023280E+02  0.51100000000E-03 0.  1.
         11    1    1    0    0    0 -0.11037965319E+02  0.26188628655E+02  0.22473877930E+02  0.36231976743E+02  0.51100000000E-03 0. -1.
         22    1    1    0    0    0  0.19039405177E+02 -0.45174548099E+02 -0.38768689063E+02  0.62499999977E+02  0.00000000000E+00 0. -1.
</event>
<event>
 4    1  0.1976955E-002  0.9118800E+02  0.7818608E-02  0.1130116E+00
         25   -1    0    0    0    0  0.00000000000E+00  0.00000000000E+00  0.99999998245E-14  0.12500000000E+03  0.12500000000E+03 0.  0.
        -11    1    1    0    0    0  0.33570727867E+02  0.84070373298E+01  0.17053132774E+02  0.38580842187E+02  0.51100000000E-03 0. -1.
         11    1    1    0    0    0  0.21080389128E+02  0.32108411343E+01  0.10896095433E+02  0.23946131264E+02  0.51100000000E-03 0.  1.
         22    1    1    0    0    0 -0.54651116995E+02 -0.11617878464E+02 -0.27949228207E+02  0.62473026549E+02  0.00000000000E+00 0. -1.
</event>
<event>
 4    1  0.1976955E-002  0.9118800E+02  0.7818608E-02  0.1130116E+00
         25   -1    0    0    0    0  0.00000000000E+00  0.00000000000E+00  0.99999998245E-14  0.12500000000E+03  0.12500000000E+03 0.  0.
        -11    1    1    0    0    0  0.39326568428E+00 -0.93109459880E+01 -0.43796813721E+01  0.10297086106E+02  0.51100000000E-03 0. -1.
         11    1    1    0    0    0  0.19074067154E+02 -0.42387806097E+02 -0.24309762121E+02  0.52454844182E+02  0.51100000000E-03 0.  1.
         22    1    1    0    0    0 -0.19467332838E+02  0.51698752085E+02  0.28689443493E+02  0.62248069712E+02  0.00000000000E+00 0.  1.
</event>
<event>
 4    1  0.1976955E-002  0.9118800E+02  0.7818608E-02  0.1130116E+00
         25   -1    0    0    0    0  0.00000000000E+00  0.00000000000E+00  0.99999998245E-14  0.12500000000E+03  0.12500000000E+03 0.  0.
        -11    1    1    0    0    0  0.74613225784E-02  0.81380215371E-01 -0.50692047087E-01  0.96168370826E-01  0.51100000000E-03 0.  1.
         11    1    1    0    0    0  0.64839941688E+01  0.57423284139E+02 -0.23555214056E+02  0.62404517874E+02  0.51100000000E-03 0. -1.
         22    1    1    0    0    0 -0.64914554913E+01 -0.57504664354E+02  0.23605906103E+02  0.62499313755E+02  0.00000000000E+00 0. -1.
</event>
<event>
 4    1  0.1976955E-002  0.9118800E+02  0.7818608E-02  0.1130116E+00
         25   -1    0    0    0    0  0.00000000000E+00  0.00000000000E+00  0.99999998245E-14  0.12500000000E+03  0.12500000000E+03 0.  0.
        -11    1    1    0    0    0  0.70475132892E+01 -0.12976375937E+02 -0.48783847048E+01  0.15551604856E+02  0.51100000000E-03 0. -1.
         11    1    1    0    0    0  0.21289279513E+02 -0.39176568059E+02 -0.14700850674E+02  0.46948396329E+02  0.51100000000E-03 0.  1.
         22    1    1    0    0    0 -0.28336792802E+02  0.52152943996E+02  0.19579235379E+02  0.62499998814E+02  0.00000000000E+00 0.  1.
</event>
<event>
 4    1  0.1976955E-002  0.9118800E+02  0.7818608E-02  0.1130116E+00
         25   -1    0    0    0    0  0.00000000000E+00  0.00000000000E+00  0.99999998245E-14  0.12500000000E+03  0.12500000000E+03 0.  0.
        -11    1    1    0    0    0  0.68349426426E+00 -0.80815222304E-01 -0.96037494587E-01  0.69492371590E+00  0.51100000000E-03 0.  1.
         11    1    1    0    0    0  0.60793482073E+02 -0.70789755015E+01 -0.85969873854E+01  0.61805077049E+02  0.51100000000E-03 0. -1.
         22    1    1    0    0    0 -0.61476976337E+02  0.71597907238E+01  0.86930248799E+01  0.62499999235E+02  0.00000000000E+00 0. -1.
</event>
<event>
 4    1  0.1976955E-002  0.9118800E+02  0.7818608E-02  0.1130116E+00
         25   -1    0    0    0    0  0.00000000000E+00  0.00000000000E+00  0.99999998245E-14  0.12500000000E+03  0.12500000000E+03 0.  0.
        -11    1    1    0    0    0  0.30337455947E+01 -0.93502745019E+00 -0.29788537517E+01  0.43533273024E+01  0.51100000000E-03 0. -1.
         11    1    1    0    0    0  0.40522498578E+02 -0.12457225261E+02 -0.39796736463E+02  0.58146673039E+02  0.51100000000E-03 0.  1.
         22    1    1    0    0    0 -0.43556244173E+02  0.13392252711E+02  0.42775590214E+02  0.62499999658E+02  0.00000000000E+00 0.  1.
</event>
<event>
 4    1  0.1976955E-002  0.9118800E+02  0.7818608E-02  0.1130116E+00
         25   -1    0    0    0    0  0.00000000000E+00  0.00000000000E+00  0.99999998245E-14  0.12500000000E+03  0.12500000000E+03 0.  0.
        -11    1    1    0    0    0 -0.70977051803E+01 -0.10459762135E+02  0.31284624171E+02  0.33741839792E+02  0.51100000000E-03 0. -1.
         11    1    1    0    0    0 -0.40856009894E+01 -0.12674186811E+02  0.25590571164E+02  0.28847954512E+02  0.51100000000E-03 0.  1.
         22    1    1    0    0    0  0.11183306170E+02  0.23133948946E+02 -0.56875195335E+02  0.62410205697E+02  0.00000000000E+00 0. -1.
</event>
<event>
 4    1  0.1976955E-002  0.9118800E+02  0.7818608E-02  0.1130116E+00
         25   -1    0    0    0    0  0.00000000000E+00  0.00000000000E+00  0.99999998245E-14  0.12500000000E+03  0.12500000000E+03 0.  0.
        -11    1    1    0    0    0 -0.18871456970E+01 -0.21412879976E+01 -0.19347284244E+01  0.34481310166E+01  0.51100000000E-03 0.  1.
         11    1    1    0    0    0 -0.32411204590E+02 -0.36591024549E+02 -0.33132074865E+02  0.59051872499E+02  0.51100000000E-03 0. -1.
         22    1    1    0    0    0  0.34298350287E+02  0.38732312547E+02  0.35066803289E+02  0.62499996484E+02  0.00000000000E+00 0. -1.
</event>
<event>
 4    1  0.1976955E-002  0.9118800E+02  0.7818608E-02  0.1130116E+00
         25   -1    0    0    0    0  0.00000000000E+00  0.00000000000E+00  0.99999998245E-14  0.12500000000E+03  0.12500000000E+03 0.  0.
        -11    1    1    0    0    0  0.13286988522E+02  0.68701025161E+01 -0.69267690549E+01  0.16484007472E+02  0.51100000000E-03 0. -1.
         11    1    1    0    0    0  0.36725584181E+02  0.14672246106E+02 -0.23633906870E+02  0.46071736383E+02  0.51100000000E-03 0.  1.
         22    1    1    0    0    0 -0.50012572702E+02 -0.21542348622E+02  0.30560675924E+02  0.62444256144E+02  0.00000000000E+00 0.  1.
</event>
<event>
 4    1  0.1976955E-002  0.9118800E+02  0.7818608E-02  0.1130116E+00
         25   -1    0    0    0    0  0.00000000000E+00  0.00000000000E+00  0.99999998245E-14  0.12500000000E+03  0.12500000000E+03 0.  0.
        -11    1    1    0    0    0  0.85139935477E+01 -0.15249565546E+02 -0.16155333359E+02  0.23791429795E+02  0.51100000000E-03 0. -1.
         11    1    1    0    0    0  0.13862962588E+02 -0.24866753994E+02 -0.26226274694E+02  0.38708586521E+02  0.51100000000E-03 0.  1.
         22    1    1    0    0    0 -0.22376956135E+02  0.40116319540E+02  0.42381608054E+02  0.62499983684E+02  0.00000000000E+00 0.  1.
</event>
<event>
 4    1  0.1976955E-002  0.9118800E+02  0.7818608E-02  0.1130116E+00
         25   -1    0    0    0    0  0.00000000000E+00  0.00000000000E+00  0.99999998245E-14  0.12500000000E+03  0.12500000000E+03 0.  0.
        -11    1    1    0    0    0  0.19823154642E+01 -0.87722448487E+00 -0.35659194276E+00  0.21968740226E+01  0.51100000000E-03 0.  1.
         11    1    1    0    0    0  0.54403342839E+02 -0.24099106591E+02 -0.97967528043E+01  0.60303126091E+02  0.51100000000E-03 0. -1.
         22    1    1    0    0    0 -0.56385658303E+02  0.24976331075E+02  0.10153344747E+02  0.62499999887E+02  0.00000000000E+00 0. -1.
</event>
<event>
 4    1  0.1976955E-002  0.9118800E+02  0.7818608E-02  0.1130116E+00
         25   -1    0    0    0    0  0.00000000000E+00  0.00000000000E+00  0.99999998245E-14  0.12500000000E+03  0.12500000000E+03 0.  0.
        -11    1    1    0    0    0  0.18897779858E+02  0.37265361794E+02  0.17014971105E+02  0.45114770477E+02  0.51100000000E-03 0.  1.
         11    1    1    0    0    0  0.72705128596E+01  0.14369496612E+02  0.65500772672E+01  0.17385232314E+02  0.51100000000E-03 0. -1.
         22    1    1    0    0    0 -0.26168292717E+02 -0.51634858407E+02 -0.23565048372E+02  0.62499997210E+02  0.00000000000E+00 0. -1.
</event>
<event>
 4    1  0.1976955E-002  0.9118800E+02  0.7818608E-02  0.1130116E+00
         25   -1    0    0    0    0  0.00000000000E+00  0.00000000000E+00  0.99999998245E-14  0.12500000000E+03  0.12500000000E+03 0.  0.
        -11    1    1    0    0    0 -0.42460012343E+02  0.11204187124E+02  0.21471284912E+01  0.43965857415E+02  0.51100000000E-03 0. -1.
         11    1    1    0    0    0 -0.17961678266E+02  0.44291895083E+01  0.11524412758E+01  0.18535580028E+02  0.51100000000E-03 0.  1.
         22    1    1    0    0    0  0.60421690609E+02 -0.15633376632E+02 -0.32995697671E+01  0.62498562556E+02  0.00000000000E+00 0. -1.
</event>
<event>
 4    1  0.1976955E-002  0.9118800E+02  0.7818608E-02  0.1130116E+00
         25   -1    0    0    0    0  0.00000000000E+00  0.00000000000E+00  0.99999998245E-14  0.12500000000E+03  0.12500000000E+03 0.  0.
        -11    1    1    0    0    0 -0.59649865339E+01  0.28011100372E+02 -0.49585077811E+01  0.29065264631E+02  0.51100000000E-03 0.  1.
         11    1    1    0    0    0 -0.30345002730E+01  0.21109097615E+02 -0.28668267873E+02  0.35730544036E+02  0.51100000000E-03 0. -1.
         22    1    1    0    0    0  0.89994868069E+01 -0.49120197987E+02  0.33626775654E+02  0.60204191332E+02  0.00000000000E+00 0. -1.
</event>
<event>
 4    1  0.1976955E-002  0.9118800E+02  0.7818608E-02  0.1130116E+00
         25   -1    0    0    0    0  0.00000000000E+00  0.00000000000E+00  0.99999998245E-14  0.12500000000E+03  0.12500000000E+03 0.  0.
        -11    1    1    0    0    0  0.17778752990E+02 -0.51167437464E+01  0.17820233676E+02  0.25687075602E+02  0.51100000000E-03 0. -1.
         11    1    1    0    0    0  0.25244423507E+02 -0.15184495864E+02  0.22406880191E+02  0.37012404853E+02  0.51100000000E-03 0.  1.
         22    1    1    0    0    0 -0.43023176497E+02  0.20301239610E+02 -0.40227113867E+02  0.62300519546E+02  0.00000000000E+00 0.  1.
</event>
<event>
 4    1  0.1976955E-002  0.9118800E+02  0.7818608E-02  0.1130116E+00
         25   -1    0    0    0    0  0.00000000000E+00  0.00000000000E+00  0.99999998245E-14  0.12500000000E+03  0.12500000000E+03 0.  0.
        -11    1    1    0    0    0  0.53674078765E+02 -0.10289775583E+02 -0.29193217896E+02  0.61959907878E+02  0.51100000000E-03 0. -1.
         11    1    1    0    0    0  0.45855591994E+00 -0.94813262044E-01 -0.26945030646E+00  0.54024699457E+00  0.51100000000E-03 0.  1.
         22    1    1    0    0    0 -0.54132634685E+02  0.10384588845E+02  0.29462668202E+02  0.62499845128E+02  0.00000000000E+00 0. -1.
</event>
<event>
 4    1  0.1976955E-002  0.9118800E+02  0.7818608E-02  0.1130116E+00
         25   -1    0    0    0    0  0.00000000000E+00  0.00000000000E+00  0.99999998245E-14  0.12500000000E+03  0.12500000000E+03 0.  0.
        -11    1    1    0    0    0 -0.46241281628E+02  0.12849444131E+02  0.12475677459E+02  0.49588374337E+02  0.51100000000E-03 0.  1.
         11    1    1    0    0    0 -0.12029464397E+02  0.33954188789E+01  0.32363987929E+01  0.12911667609E+02  0.51100000000E-03 0. -1.
         22    1    1    0    0    0  0.58270746025E+02 -0.16244863009E+02 -0.15712076252E+02  0.62499958054E+02  0.00000000000E+00 0.  1.
</event>
<event>
 4    1  0.1976955E-002  0.9118800E+02  0.7818608E-02  0.1130116E+00
         25   -1    0    0    0    0  0.00000000000E+00  0.00000000000E+00  0.99999998245E-14  0.12500000000E+03  0.12500000000E+03 0.  0.
        -11    1    1    0    0    0 -0.57859074427E+02 -0.54417935462E+01 -0.13937880921E+02  0.59762447535E+02  0.51100000000E-03 0.  1.
         11    1    1    0    0    0 -0.26482055422E+01 -0.25781003772E+00 -0.64403939324E+00  0.27375619830E+01  0.51100000000E-03 0. -1.
         22    1    1    0    0    0  0.60507279969E+02  0.56996035839E+01  0.14581920315E+02  0.62499990482E+02  0.00000000000E+00 0.  1.
</event>
<event>
 4    1  0.1976955E-002  0.9118800E+02  0.7818608E-02  0.1130116E+00
         25   -1    0    0    0    0  0.00000000000E+00  0.00000000000E+00  0.99999998245E-14  0.12500000000E+03  0.12500000000E+03 0.  0.
        -11    1    1    0    0    0 -0.25848973471E+02 -0.35628398104E+02 -0.24994543886E+02  0.50618962902E+02  0.51100000000E-03 0. -1.
         11    1    1    0    0    0 -0.53952539885E+01 -0.85154247274E+01 -0.63094853265E+01  0.11892469434E+02  0.51100000000E-03 0.  1.
         22    1    1    0    0    0  0.31244227459E+02  0.44143822832E+02  0.31304029213E+02  0.62488567664E+02  0.00000000000E+00 0. -1.
</event>
<event>
 4    1  0.1976955E-002  0.9118800E+02  0.7818608E-02  0.1130116E+00
         25   -1    0    0    0    0  0.00000000000E+00  0.00000000000E+00  0.99999998245E-14  0.12500000000E+03  0.12500000000E+03 0.  0.
        -11    1    1    0    0    0 -0.16004980083E+01 -0.16012066624E+02  0.19184477111E+01  0.16205811097E+02  0.51100000000E-03 0. -1.
         11    1    1    0    0    0 -0.46054397248E+01 -0.45744357101E+02  0.54218294455E+01  0.46294195278E+02  0.51100000000E-03 0.  1.
         22    1    1    0    0    0  0.62059377330E+01  0.61756423725E+02 -0.73402771565E+01  0.62499993625E+02  0.00000000000E+00 0.  1.
</event>
<event>
 4    1  0.1976955E-002  0.9118800E+02  0.7818608E-02  0.1130116E+00
         25   -1    0    0    0    0  0.00000000000E+00  0.00000000000E+00  0.99999998245E-14  0.12500000000E+03  0.12500000000E+03 0.  0.
        -11    1    1    0    0    0  0.46967940396E+02 -0.18201399362E+02  0.28272352041E+02  0.57763346977E+02  0.51100000000E-03 0. -1.
         11    1    1    0    0    0  0.38512886110E+01 -0.14924905077E+01  0.23186051615E+01  0.47366530416E+01  0.51100000000E-03 0.  1.
         22    1    1    0    0    0 -0.50819229007E+02  0.19693889870E+02 -0.30590957202E+02  0.62499999981E+02  0.00000000000E+00 0. -1.
</event>
<event>
 4    1  0.1976955E-002  0.9118800E+02  0.7818608E-02  0.1130116E+00
         25   -1    0    0    0    0  0.00000000000E+00  0.00000000000E+00  0.99999998245E-14  0.12500000000E+03  0.12500000000E+03 0.  0.
        -11    1    1    0    0    0  0.29887365369E+02 -0.14659464398E+02  0.39710397279E+02  0.51817662601E+02  0.51100000000E-03 0. -1.
         11    1    1    0    0    0  0.60872183397E+01 -0.45742515291E+01  0.75693386690E+01  0.10736521425E+02  0.51100000000E-03 0.  1.
         22    1    1    0    0    0 -0.35974583709E+02  0.19233715927E+02 -0.47279735948E+02  0.62445815974E+02  0.00000000000E+00 0. -1.
</event>
<event>
 4    1  0.1976955E-002  0.9118800E+02  0.7818608E-02  0.1130116E+00
         25   -1    0    0    0    0  0.00000000000E+00  0.00000000000E+00  0.99999998245E-14  0.12500000000E+03  0.12500000000E+03 0.  0.
        -11    1    1    0    0    0  0.60822725154E+01 -0.19729408306E+02  0.49275891771E+01  0.21225567752E+02  0.51100000000E-03 0. -1.
         11    1    1    0    0    0  0.11831344114E+02 -0.38364844160E+02  0.95779325548E+01  0.41274432319E+02  0.51100000000E-03 0.  1.
         22    1    1    0    0    0 -0.17913616629E+02  0.58094252466E+02 -0.14505521732E+02  0.62499999928E+02  0.00000000000E+00 0.  1.
</event>
<event>
 4    1  0.1976955E-002  0.9118800E+02  0.7818608E-02  0.1130116E+00
         25   -1    0    0    0    0  0.00000000000E+00  0.00000000000E+00  0.99999998245E-14  0.12500000000E+03  0.12500000000E+03 0.  0.
        -11    1    1    0    0    0 -0.24763451984E+02  0.19904434738E+01 -0.89182648403E+01  0.26395565299E+02  0.51100000000E-03 0.  1.
         11    1    1    0    0    0 -0.33881780870E+02  0.27107980763E+01 -0.12174024850E+02  0.36104437157E+02  0.51100000000E-03 0. -1.
         22    1    1    0    0    0  0.58645232854E+02 -0.47012415501E+01  0.21092289690E+02  0.62499997544E+02  0.00000000000E+00 0. -1.
</event>
<event>
 4    1  0.1976955E-002  0.9118800E+02  0.7818608E-02  0.1130116E+00
         25   -1    0    0    0    0  0.00000000000E+00  0.00000000000E+00  0.99999998245E-14  0.12500000000E+03  0.12500000000E+03 0.  0.
        -11    1    1    0    0    0 -0.23687155061E+00  0.92972956652E+00  0.10255724985E+01  0.14043875566E+01  0.51100000000E-03 0. -1.
         11    1    1    0    0    0 -0.10030173169E+02  0.40539216660E+02  0.44594196406E+02  0.61095620257E+02  0.51100000000E-03 0.  1.
         22    1    1    0    0    0  0.10267044719E+02 -0.41468946227E+02 -0.45619768904E+02  0.62499992187E+02  0.00000000000E+00 0.  1.
</event>
<event>
 4    1  0.1976955E-002  0.9118800E+02  0.7818608E-02  0.1130116E+00
         25   -1    0    0    0    0  0.00000000000E+00  0.00000000000E+00  0.99999998245E-14  0.12500000000E+03  0.12500000000E+03 0.  0.
        -11    1    1    0    0    0  0.43697399097E+02  0.35719453387E+02  0.78744486035E+01  0.56985515521E+02  0.51100000000E-03 0. -1.
         11    1    1    0    0    0  0.42426867786E+01  0.34189293948E+01  0.85113288594E+00  0.55148795779E+01  0.51100000000E-03 0.  1.
         22    1    1    0    0    0 -0.47940085875E+02 -0.39138382782E+02 -0.87255814895E+01  0.62499604901E+02  0.00000000000E+00 0. -1.
</event>
<event>
 4    1  0.1976955E-002  0.9118800E+02  0.7818608E-02  0.1130116E+00
         25   -1    0    0    0    0  0.00000000000E+00  0.00000000000E+00  0.99999998245E-14  0.12500000000E+03  0.12500000000E+03 0.  0.
        -11    1    1    0    0    0  0.11060943040E+02  0.68683301148E+00  0.13400747004E+01  0.11162974558E+02  0.51100000000E-03 0. -1.
         11    1    1    0    0    0  0.50976833589E+02  0.30621025249E+01  0.52490577874E+01  0.51337770137E+02  0.51100000000E-03 0.  1.
         22    1    1    0    0    0 -0.62037776629E+02 -0.37489355364E+01 -0.65891324877E+01  0.62499255305E+02  0.00000000000E+00 0.  1.
</event>
<event>
 4    1  0.1976955E-002  0.9118800E+02  0.7818608E-02  0.1130116E+00
         25   -1    0    0    0    0  0.00000000000E+00  0.00000000000E+00  0.99999998245E-14  0.12500000000E+03  0.12500000000E+03 0.  0.
        -11    1    1    0    0    0 -0.14310909156E+02 -0.27215865456E+02 -0.18992012872E+02  0.36141416776E+02  0.51100000000E-03 0. -1.
         11    1    1    0    0    0 -0.10437431541E+02 -0.19852313068E+02 -0.13846321112E+02  0.26358583420E+02  0.51100000000E-03 0.  1.
         22    1    1    0    0    0  0.24748340697E+02  0.47068178523E+02  0.32838333984E+02  0.62499999805E+02  0.00000000000E+00 0. -1.
</event>
<event>
 4    1  0.1976955E-002  0.9118800E+02  0.7818608E-02  0.1130116E+00
         25   -1    0    0    0    0  0.00000000000E+00  0.00000000000E+00  0.99999998245E-14  0.12500000000E+03  0.12500000000E+03 0.  0.
        -11    1    1    0    0    0 -0.38767880199E+01 -0.15648915311E+01 -0.98393049655E+01  0.10690663839E+02  0.51100000000E-03 0.  1.
         11    1    1    0    0    0 -0.28920466668E+02  0.28906696049E+02 -0.33950640783E+02  0.53147309232E+02  0.51100000000E-03 0. -1.
         22    1    1    0    0    0  0.32797254687E+02 -0.27341804518E+02  0.43789945749E+02  0.61162026929E+02  0.00000000000E+00 0. -1.
</event>
<event>
 4    1  0.1976955E-002  0.9118800E+02  0.7818608E-02  0.1130116E+00
         25   -1    0    0    0    0  0.00000000000E+00  0.00000000000E+00  0.99999998245E-14  0.12500000000E+03  0.12500000000E+03 0.  0.
        -11    1    1    0    0    0  0.12374589394E+01  0.11800641257E+01 -0.10423941841E+01  0.20026087645E+01  0.51100000000E-03 0. -1.
         11    1    1    0    0    0  0.50277498159E+02  0.71981850869E+01 -0.33105646589E+02  0.60626929049E+02  0.51100000000E-03 0.  1.
         22    1    1    0    0    0 -0.51514957098E+02 -0.83782492126E+01  0.34148040773E+02  0.62370462186E+02  0.00000000000E+00 0.  1.
</event>
<event>
 4    1  0.1976955E-002  0.9118800E+02  0.7818608E-02  0.1130116E+00
         25   -1    0    0    0    0  0.00000000000E+00  0.00000000000E+00  0.99999998245E-14  0.12500000000E+03  0.12500000000E+03 0.  0.
        -11    1    1    0    0    0 -0.56028511260E+02 -0.88959645632E+01  0.39079963497E+01  0.56864793109E+02  0.51100000000E-03 0.  1.
         11    1    1    0    0    0 -0.55519242812E+01 -0.88388522185E+00  0.38786975149E+00  0.56352071404E+01  0.51100000000E-03 0. -1.
         22    1    1    0    0    0  0.61580435542E+02  0.97798497851E+01 -0.42958661012E+01  0.62499999751E+02  0.00000000000E+00 0.  1.
</event>
<event>
 4    1  0.1976955E-002  0.9118800E+02  0.7818608E-02  0.1130116E+00
         25   -1    0    0    0    0  0.00000000000E+00  0.00000000000E+00  0.99999998245E-14  0.12500000000E+03  0.12500000000E+03 0.  0.
        -11    1    1    0    0    0  0.37081314760E+02  0.12341818122E+02  0.36445356387E+02  0.53437892748E+02  0.51100000000E-03 0. -1.
         11    1    1    0    0    0  0.62878984950E+01  0.20934536000E+01  0.61807420673E+01  0.90621072727E+01  0.51100000000E-03 0.  1.
         22    1    1    0    0    0 -0.43369213255E+02 -0.14435271722E+02 -0.42626098454E+02  0.62499999980E+02  0.00000000000E+00 0. -1.
</event>
<event>
 4    1  0.1976955E-002  0.9118800E+02  0.7818608E-02  0.1130116E+00
         25   -1    0    0    0    0  0.00000000000E+00  0.00000000000E+00  0.99999998245E-14  0.12500000000E+03  0.12500000000E+03 0.  0.
        -11    1    1    0    0    0 -0.77871934135E+01  0.60991228412E+01 -0.73125580612E-02  0.98913969906E+01  0.51100000000E-03 0.  1.
         11    1    1    0    0    0 -0.41416205456E+02  0.32440119451E+02 -0.41077318518E-01  0.52608603023E+02  0.51100000000E-03 0. -1.
         22    1    1    0    0    0  0.49203398870E+02 -0.38539242292E+02  0.48389876579E-01  0.62499999987E+02  0.00000000000E+00 0. -1.
</event>
<event>
 4    1  0.1976955E-002  0.9118800E+02  0.7818608E-02  0.1130116E+00
         25   -1    0    0    0    0  0.00000000000E+00  0.00000000000E+00  0.99999998245E-14  0.12500000000E+03  0.12500000000E+03 0.  0.
        -11    1    1    0    0    0 -0.60325941292E+01 -0.80069576730E+00  0.86291967537E+00  0.61463758644E+01  0.51100000000E-03 0.  1.
         11    1    1    0    0    0 -0.55337586173E+02 -0.64605551343E+01  0.84733358398E+01  0.56354100442E+02  0.51100000000E-03 0. -1.
         22    1    1    0    0    0  0.61370180302E+02  0.72612509016E+01 -0.93362555152E+01  0.62499523694E+02  0.00000000000E+00 0. -1.
</event>
<event>
 4    1  0.1976955E-002  0.9118800E+02  0.7818608E-02  0.1130116E+00
         25   -1    0    0    0    0  0.00000000000E+00  0.00000000000E+00  0.99999998245E-14  0.12500000000E+03  0.12500000000E+03 0.  0.
        -11    1    1    0    0    0 -0.17557245777E+02  0.45355242723E+02  0.19264014027E+02  0.52311157112E+02  0.51100000000E-03 0. -1.
         11    1    1    0    0    0 -0.34481749538E+01  0.88300199416E+01  0.37354810582E+01  0.10188865574E+02  0.51100000000E-03 0.  1.
         22    1    1    0    0    0  0.21005420731E+02 -0.54185262664E+02 -0.22999495085E+02  0.62499977314E+02  0.00000000000E+00 0. -1.
</event>
<event>
 4    1  0.1976955E-002  0.9118800E+02  0.7818608E-02  0.1130116E+00
         25   -1    0    0    0    0  0.00000000000E+00  0.00000000000E+00  0.99999998245E-14  0.12500000000E+03  0.12500000000E+03 0.  0.
        -11    1    1    0    0    0 -0.42159178728E+02  0.59335706896E+01  0.10362621267E+01  0.42587292137E+02  0.51100000000E-03 0. -1.
         11    1    1    0    0    0 -0.19731367722E+02  0.26810029244E+01  0.18625120246E+00  0.19913546611E+02  0.51100000000E-03 0.  1.
         22    1    1    0    0    0  0.61890546449E+02 -0.86145736140E+01 -0.12225133292E+01  0.62499161252E+02  0.00000000000E+00 0. -1.
</event>
<event>
 4    1  0.1976955E-002  0.9118800E+02  0.7818608E-02  0.1130116E+00
         25   -1    0    0    0    0  0.00000000000E+00  0.00000000000E+00  0.99999998245E-14  0.12500000000E+03  0.12500000000E+03 0.  0.
        -11    1    1    0    0    0  0.13126560965E+01 -0.33734033095E+02 -0.40730859836E+02  0.52902844896E+02  0.51100000000E-03 0.  1.
         11    1    1    0    0    0  0.23506390904E+00 -0.61175163102E+01 -0.73909493804E+01  0.95971555083E+01  0.51100000000E-03 0. -1.
         22    1    1    0    0    0 -0.15477200056E+01  0.39851549405E+02  0.48121809216E+02  0.62499999596E+02  0.00000000000E+00 0.  1.
</event>
<event>
 4    1  0.1976955E-002  0.9118800E+02  0.7818608E-02  0.1130116E+00
         25   -1    0    0    0    0  0.00000000000E+00  0.00000000000E+00  0.99999998245E-14  0.12500000000E+03  0.12500000000E+03 0.  0.
        -11    1    1    0    0    0  0.85945868930E+01  0.21098902132E+02  0.38974879077E+01  0.23113221482E+02  0.51100000000E-03 0.  1.
         11    1    1    0    0    0  0.14548125540E+02  0.36026689994E+02  0.64619409926E+01  0.39386889066E+02  0.51100000000E-03 0. -1.
         22    1    1    0    0    0 -0.23142712433E+02 -0.57125592125E+02 -0.10359428900E+02  0.62499889452E+02  0.00000000000E+00 0. -1.
</event>
<event>
 4    1  0.1976955E-002  0.9118800E+02  0.7818608E-02  0.1130116E+00
         25   -1    0    0    0    0  0.00000000000E+00  0.00000000000E+00  0.99999998245E-14  0.12500000000E+03  0.12500000000E+03 0.  0.
        -11    1    1    0    0    0 -0.20317777987E+02  0.10358421214E+02  0.78220612142E+01  0.24110031818E+02  0.51100000000E-03 0.  1.
         11    1    1    0    0    0 -0.32347104927E+02  0.16481034812E+02  0.12483194289E+02  0.38389970637E+02  0.51100000000E-03 0. -1.
         22    1    1    0    0    0  0.52664882913E+02 -0.26839456026E+02 -0.20305255503E+02  0.62499997545E+02  0.00000000000E+00 0. -1.
</event>
<event>
 4    1  0.1976955E-002  0.9118800E+02  0.7818608E-02  0.1130116E+00
         25   -1    0    0    0    0  0.00000000000E+00  0.00000000000E+00  0.99999998245E-14  0.12500000000E+03  0.12500000000E+03 0.  0.
        -11    1    1    0    0    0  0.37393194471E+02 -0.23652754247E+02  0.39573732207E+02  0.59361469467E+02  0.51100000000E-03 0. -1.
         11    1    1    0    0    0  0.19771816813E+01 -0.12499633502E+01  0.20925386981E+01  0.31385305864E+01  0.51100000000E-03 0.  1.
         22    1    1    0    0    0 -0.39370376153E+02  0.24902717597E+02 -0.41666270905E+02  0.62499999946E+02  0.00000000000E+00 0. -1.
</event>
<event>
 4    1  0.1976955E-002  0.9118800E+02  0.7818608E-02  0.1130116E+00
         25   -1    0    0    0    0  0.00000000000E+00  0.00000000000E+00  0.99999998245E-14  0.12500000000E+03  0.12500000000E+03 0.  0.
        -11    1    1    0    0    0 -0.13552712263E+02 -0.12071394523E+02 -0.14863290341E+02  0.23458729195E+02  0.51100000000E-03 0. -1.
         11    1    1    0    0    0 -0.15799887608E+02 -0.21893782989E+02 -0.28407192487E+02  0.39191105716E+02  0.51100000000E-03 0.  1.
         22    1    1    0    0    0  0.29352599871E+02  0.33965177512E+02  0.43270482827E+02  0.62350165090E+02  0.00000000000E+00 0. -1.
</event>
<event>
 4    1  0.1976955E-002  0.9118800E+02  0.7818608E-02  0.1130116E+00
         25   -1    0    0    0    0  0.00000000000E+00  0.00000000000E+00  0.99999998245E-14  0.12500000000E+03  0.12500000000E+03 0.  0.
        -11    1    1    0    0    0  0.17564786040E+02 -0.47092845453E+02 -0.49927995176E+01  0.50509264979E+02  0.51100000000E-03 0. -1.
         11    1    1    0    0    0  0.43549178026E+01 -0.11082314983E+02 -0.14268758642E+01  0.11992455522E+02  0.51100000000E-03 0.  1.
         22    1    1    0    0    0 -0.21919703842E+02  0.58175160436E+02  0.64196753819E+01  0.62498279499E+02  0.00000000000E+00 0. -1.
</event>
<event>
 4    1  0.1976955E-002  0.9118800E+02  0.7818608E-02  0.1130116E+00
         25   -1    0    0    0    0  0.00000000000E+00  0.00000000000E+00  0.99999998245E-14  0.12500000000E+03  0.12500000000E+03 0.  0.
        -11    1    1    0    0    0  0.20482583171E+01  0.83274641382E+01 -0.63896436066E+01  0.10694370799E+02  0.51100000000E-03 0.  1.
         11    1    1    0    0    0  0.97324253898E+01  0.40443976111E+02 -0.30877053074E+02  0.51805672609E+02  0.51100000000E-03 0. -1.
         22    1    1    0    0    0 -0.11780683707E+02 -0.48771440249E+02  0.37266696681E+02  0.62499956592E+02  0.00000000000E+00 0. -1.
</event>
<event>
 4    1  0.1976955E-002  0.9118800E+02  0.7818608E-02  0.1130116E+00
         25   -1    0    0    0    0  0.00000000000E+00  0.00000000000E+00  0.99999998245E-14  0.12500000000E+03  0.12500000000E+03 0.  0.
        -11    1    1    0    0    0  0.23957206404E+02 -0.70235755845E+01  0.18806037699E+02  0.31256125909E+02  0.51100000000E-03 0.  1.
         11    1    1    0    0    0  0.24607220580E+02 -0.93399350997E+01  0.16905064429E+02  0.31281478481E+02  0.51100000000E-03 0. -1.
         22    1    1    0    0    0 -0.48564426983E+02  0.16363510684E+02 -0.35711102128E+02  0.62462395610E+02  0.00000000000E+00 0. -1.
</event>
<event>
 4    1  0.1976955E-002  0.9118800E+02  0.7818608E-02  0.1130116E+00
         25   -1    0    0    0    0  0.00000000000E+00  0.00000000000E+00  0.99999998245E-14  0.12500000000E+03  0.12500000000E+03 0.  0.
        -11    1    1    0    0    0  0.29614065303E+00 -0.19606495865E+00  0.19750361727E+00  0.40638490910E+00  0.51100000000E-03 0. -1.
         11    1    1    0    0    0  0.45175333512E+02 -0.29684195059E+02  0.30555778284E+02  0.62093621098E+02  0.51100000000E-03 0.  1.
         22    1    1    0    0    0 -0.45471474165E+02  0.29880260018E+02 -0.30753281901E+02  0.62499993993E+02  0.00000000000E+00 0.  1.
</event>
<event>
 4    1  0.1976955E-002  0.9118800E+02  0.7818608E-02  0.1130116E+00
         25   -1    0    0    0    0  0.00000000000E+00  0.00000000000E+00  0.99999998245E-14  0.12500000000E+03  0.12500000000E+03 0.  0.
        -11    1    1    0    0    0  0.90937834565E+01  0.99076024629E+01 -0.77325193037E+01  0.15512876560E+02  0.51100000000E-03 0.  1.
         11    1    1    0    0    0  0.32785199688E+02  0.23995272562E+02 -0.23771118860E+02  0.47071313090E+02  0.51100000000E-03 0. -1.
         22    1    1    0    0    0 -0.41878983144E+02 -0.33902875025E+02  0.31503638164E+02  0.62415810350E+02  0.00000000000E+00 0.  1.
</event>
<event>
 4    1  0.1976955E-002  0.9118800E+02  0.7818608E-02  0.1130116E+00
         25   -1    0    0    0    0  0.00000000000E+00  0.00000000000E+00  0.99999998245E-14  0.12500000000E+03  0.12500000000E+03 0.  0.
        -11    1    1    0    0    0 -0.32211531236E+01  0.94711008664E+00 -0.21082876821E+01  0.39645582571E+01  0.51100000000E-03 0. -1.
         11    1    1    0    0    0 -0.47556947531E+02  0.13980821461E+02 -0.31133122489E+02  0.58535441771E+02  0.51100000000E-03 0.  1.
         22    1    1    0    0    0  0.50778100654E+02 -0.14927931547E+02  0.33241410171E+02  0.62499999972E+02  0.00000000000E+00 0.  1.
</event>
<event>
 4    1  0.1976955E-002  0.9118800E+02  0.7818608E-02  0.1130116E+00
         25   -1    0    0    0    0  0.00000000000E+00  0.00000000000E+00  0.99999998245E-14  0.12500000000E+03  0.12500000000E+03 0.  0.
        -11    1    1    0    0    0 -0.10728662875E+02 -0.20311573493E+02 -0.38650940634E+02  0.44961755271E+02  0.51100000000E-03 0. -1.
         11    1    1    0    0    0 -0.39683844625E+01 -0.79537238284E+01 -0.15119460955E+02  0.17538754170E+02  0.51100000000E-03 0.  1.
         22    1    1    0    0    0  0.14697047338E+02  0.28265297322E+02  0.53770401589E+02  0.62499490560E+02  0.00000000000E+00 0. -1.
</event>
<event>
 4    1  0.1976955E-002  0.9118800E+02  0.7818608E-02  0.1130116E+00
         25   -1    0    0    0    0  0.00000000000E+00  0.00000000000E+00  0.99999998245E-14  0.12500000000E+03  0.12500000000E+03 0.  0.
        -11    1    1    0    0    0 -0.23406220151E+02 -0.16705960075E+02  0.38619830131E+02  0.48150093701E+02  0.51100000000E-03 0.  1.
         11    1    1    0    0    0 -0.69792493037E+01 -0.49769392406E+01  0.11508256722E+02  0.14349906553E+02  0.51100000000E-03 0. -1.
         22    1    1    0    0    0  0.30385469454E+02  0.21682899315E+02 -0.50128086853E+02  0.62499999746E+02  0.00000000000E+00 0.  1.
</event>
<event>
 4    1  0.1976955E-002  0.9118800E+02  0.7818608E-02  0.1130116E+00
         25   -1    0    0    0    0  0.00000000000E+00  0.00000000000E+00  0.99999998245E-14  0.12500000000E+03  0.12500000000E+03 0.  0.
        -11    1    1    0    0    0 -0.71984997056E+01 -0.68522469368E+01  0.28860702430E+02  0.30523955037E+02  0.51100000000E-03 0.  1.
         11    1    1    0    0    0 -0.76125362174E+01 -0.70738346647E+01  0.30240395672E+02  0.31976106317E+02  0.51100000000E-03 0. -1.
         22    1    1    0    0    0  0.14811035923E+02  0.13926081602E+02 -0.59101098102E+02  0.62499938646E+02  0.00000000000E+00 0. -1.
</event>
<event>
 4    1  0.1976955E-002  0.9118800E+02  0.7818608E-02  0.1130116E+00
         25   -1    0    0    0    0  0.00000000000E+00  0.00000000000E+00  0.99999998245E-14  0.12500000000E+03  0.12500000000E+03 0.  0.
        -11    1    1    0    0    0 -0.42828167151E+01  0.75086599539E+00  0.29439311505E+02  0.29758685806E+02  0.51100000000E-03 0. -1.
         11    1    1    0    0    0 -0.34413198021E+01 -0.56049967245E+00  0.32568185161E+02  0.32754290205E+02  0.51100000000E-03 0.  1.
         22    1    1    0    0    0  0.77241365172E+01 -0.19036632294E+00 -0.62007496666E+02  0.62487023989E+02  0.00000000000E+00 0.  1.
</event>
<event>
 4    1  0.1976955E-002  0.9118800E+02  0.7818608E-02  0.1130116E+00
         25   -1    0    0    0    0  0.00000000000E+00  0.00000000000E+00  0.99999998245E-14  0.12500000000E+03  0.12500000000E+03 0.  0.
        -11    1    1    0    0    0 -0.49184157631E+02  0.33198050224E+01  0.22745656428E+02  0.54290582553E+02  0.51100000000E-03 0.  1.
         11    1    1    0    0    0  0.26736562866E+01 -0.75339444740E+01  0.10635383864E+02  0.13304891862E+02  0.51100000000E-03 0. -1.
         22    1    1    0    0    0  0.46510501345E+02  0.42141394516E+01 -0.33381040292E+02  0.57404525585E+02  0.00000000000E+00 0.  1.
</event>
<event>
 4    1  0.1976955E-002  0.9118800E+02  0.7818608E-02  0.1130116E+00
         25   -1    0    0    0    0  0.00000000000E+00  0.00000000000E+00  0.99999998245E-14  0.12500000000E+03  0.12500000000E+03 0.  0.
        -11    1    1    0    0    0  0.18827254159E+02  0.25551320204E+01  0.55684260093E+02  0.58836476961E+02  0.51100000000E-03 0. -1.
         11    1    1    0    0    0  0.12033852056E+01  0.25274528093E+00  0.34516781054E+01  0.36641640430E+01  0.51100000000E-03 0.  1.
         22    1    1    0    0    0 -0.20030639365E+02 -0.28078773013E+01 -0.59135938198E+02  0.62499358996E+02  0.00000000000E+00 0. -1.
</event>
<event>
 4    1  0.1976955E-002  0.9118800E+02  0.7818608E-02  0.1130116E+00
         25   -1    0    0    0    0  0.00000000000E+00  0.00000000000E+00  0.99999998245E-14  0.12500000000E+03  0.12500000000E+03 0.  0.
        -11    1    1    0    0    0  0.22819746691E+02 -0.64542643998E+01  0.21007391008E+02  0.31681364321E+02  0.51100000000E-03 0.  1.
         11    1    1    0    0    0  0.22180147512E+02 -0.67263085765E+01  0.20313561990E+02  0.30819522574E+02  0.51100000000E-03 0. -1.
         22    1    1    0    0    0 -0.44999894203E+02  0.13180572976E+02 -0.41320952998E+02  0.62499113105E+02  0.00000000000E+00 0.  1.
</event>
<event>
 4    1  0.1976955E-002  0.9118800E+02  0.7818608E-02  0.1130116E+00
         25   -1    0    0    0    0  0.00000000000E+00  0.00000000000E+00  0.99999998245E-14  0.12500000000E+03  0.12500000000E+03 0.  0.
        -11    1    1    0    0    0  0.56936260735E+01  0.28262889271E+02 -0.53137532621E+02  0.60454988720E+02  0.51100000000E-03 0. -1.
         11    1    1    0    0    0  0.19267919066E+00  0.95622932004E+00 -0.17973789945E+01  0.20450113188E+01  0.51100000000E-03 0.  1.
         22    1    1    0    0    0 -0.58863052642E+01 -0.29219118591E+02  0.54934911616E+02  0.62499999961E+02  0.00000000000E+00 0. -1.
</event>
<event>
 4    1  0.1976955E-002  0.9118800E+02  0.7818608E-02  0.1130116E+00
         25   -1    0    0    0    0  0.00000000000E+00  0.00000000000E+00  0.99999998245E-14  0.12500000000E+03  0.12500000000E+03 0.  0.
        -11    1    1    0    0    0 -0.36249858304E+00 -0.21618375965E+02 -0.29058184023E+02  0.36219658248E+02  0.51100000000E-03 0. -1.
         11    1    1    0    0    0 -0.84945223263E+00 -0.16235830412E+02 -0.20653657786E+02  0.26284926070E+02  0.51100000000E-03 0.  1.
         22    1    1    0    0    0  0.12119508157E+01  0.37854206377E+02  0.49711841810E+02  0.62495415683E+02  0.00000000000E+00 0.  1.
</event>
<event>
 4    1  0.1976955E-002  0.9118800E+02  0.7818608E-02  0.1130116E+00
         25   -1    0    0    0    0  0.00000000000E+00  0.00000000000E+00  0.99999998245E-14  0.12500000000E+03  0.12500000000E+03 0.  0.
        -11    1    1    0    0    0 -0.12387730489E+01 -0.23974704020E+01  0.19272900756E+01  0.33161529355E+01  0.51100000000E-03 0.  1.
         11    1    1    0    0    0 -0.19119021606E+02 -0.46288715299E+02  0.31548740491E+02  0.59190414579E+02  0.51100000000E-03 0. -1.
         22    1    1    0    0    0  0.20357794655E+02  0.48686185701E+02 -0.33476030567E+02  0.62493432485E+02  0.00000000000E+00 0. -1.
</event>
<event>
 4    1  0.1976955E-002  0.9118800E+02  0.7818608E-02  0.1130116E+00
         25   -1    0    0    0    0  0.00000000000E+00  0.00000000000E+00  0.99999998245E-14  0.12500000000E+03  0.12500000000E+03 0.  0.
        -11    1    1    0    0    0  0.19074558052E+02  0.36734156227E+02  0.42055931575E-01  0.41391288547E+02  0.51100000000E-03 0.  1.
         11    1    1    0    0    0  0.97267489278E+01  0.18734125232E+02  0.24699453663E-01  0.21108711549E+02  0.51100000000E-03 0. -1.
         22    1    1    0    0    0 -0.28801306980E+02 -0.55468281459E+02 -0.66755385237E-01  0.62499999905E+02  0.00000000000E+00 0.  1.
</event>
<event>
 4    1  0.1976955E-002  0.9118800E+02  0.7818608E-02  0.1130116E+00
         25   -1    0    0    0    0  0.00000000000E+00  0.00000000000E+00  0.99999998245E-14  0.12500000000E+03  0.12500000000E+03 0.  0.
        -11    1    1    0    0    0 -0.43908594239E+01 -0.11037475459E+02 -0.32897956968E+02  0.34976864981E+02  0.51100000000E-03 0. -1.
         11    1    1    0    0    0 -0.34328394694E+01 -0.88508126729E+01 -0.25834284885E+02  0.27523291002E+02  0.51100000000E-03 0.  1.
         22    1    1    0    0    0  0.78236988933E+01  0.19888288132E+02  0.58732241852E+02  0.62499844017E+02  0.00000000000E+00 0. -1.
</event>
<event>
 4    1  0.1976955E-002  0.9118800E+02  0.7818608E-02  0.1130116E+00
         25   -1    0    0    0    0  0.00000000000E+00  0.00000000000E+00  0.99999998245E-14  0.12500000000E+03  0.12500000000E+03 0.  0.
        -11    1    1    0    0    0 -0.79749877332E+01 -0.44261509888E+02 -0.31655707735E+02  0.54997868317E+02  0.51100000000E-03 0. -1.
         11    1    1    0    0    0 -0.14214198234E+02  0.68535492095E+01 -0.69609259695E+00  0.15795540933E+02  0.51100000000E-03 0.  1.
         22    1    1    0    0    0  0.22189185967E+02  0.37407960679E+02  0.32351800332E+02  0.54206590750E+02  0.00000000000E+00 0. -1.
</event>
<event>
 4    1  0.1976955E-002  0.9118800E+02  0.7818608E-02  0.1130116E+00
         25   -1    0    0    0    0  0.00000000000E+00  0.00000000000E+00  0.99999998245E-14  0.12500000000E+03  0.12500000000E+03 0.  0.
        -11    1    1    0    0    0 -0.23159073338E+02 -0.22840559426E+01  0.76063333032E+00  0.23283860349E+02  0.51100000000E-03 0.  1.
         11    1    1    0    0    0 -0.26614245683E+02 -0.31632284184E+02  0.23467176303E+01  0.41405634398E+02  0.51100000000E-03 0. -1.
         22    1    1    0    0    0  0.49773319021E+02  0.33916340126E+02 -0.31073509606E+01  0.60310505254E+02  0.00000000000E+00 0. -1.
</event>
<event>
 4    1  0.1976955E-002  0.9118800E+02  0.7818608E-02  0.1130116E+00
         25   -1    0    0    0    0  0.00000000000E+00  0.00000000000E+00  0.99999998245E-14  0.12500000000E+03  0.12500000000E+03 0.  0.
        -11    1    1    0    0    0 -0.42284167583E+02 -0.21056469985E+02 -0.17309991555E+02  0.50308662915E+02  0.51100000000E-03 0. -1.
         11    1    1    0    0    0 -0.10246772005E+02 -0.51036747386E+01 -0.41934315987E+01  0.12191337138E+02  0.51100000000E-03 0.  1.
         22    1    1    0    0    0  0.52530939589E+02  0.26160144724E+02  0.21503423153E+02  0.62499999947E+02  0.00000000000E+00 0. -1.
</event>
<event>
 4    1  0.1976955E-002  0.9118800E+02  0.7818608E-02  0.1130116E+00
         25   -1    0    0    0    0  0.00000000000E+00  0.00000000000E+00  0.99999998245E-14  0.12500000000E+03  0.12500000000E+03 0.  0.
        -11    1    1    0    0    0  0.34817391759E+01 -0.57266791459E+01 -0.44492050024E+01  0.80444258430E+01  0.51100000000E-03 0. -1.
         11    1    1    0    0    0  0.23562569707E+02 -0.38745416876E+02 -0.30149753418E+02  0.54455575027E+02  0.51100000000E-03 0.  1.
         22    1    1    0    0    0 -0.27044308882E+02  0.44472096022E+02  0.34598958421E+02  0.62499999130E+02  0.00000000000E+00 0.  1.
</event>
<event>
 4    1  0.1976955E-002  0.9118800E+02  0.7818608E-02  0.1130116E+00
         25   -1    0    0    0    0  0.00000000000E+00  0.00000000000E+00  0.99999998245E-14  0.12500000000E+03  0.12500000000E+03 0.  0.
        -11    1    1    0    0    0 -0.10711373385E+02 -0.20571721728E+02 -0.18606297473E+02  0.29734215318E+02  0.51100000000E-03 0.  1.
         11    1    1    0    0    0 -0.11803376911E+02 -0.22669129542E+02 -0.20503353510E+02  0.32765784686E+02  0.51100000000E-03 0.  1.
         22    1    1    0    0    0  0.22514750296E+02  0.43240851270E+02  0.39109650983E+02  0.62499999996E+02  0.00000000000E+00 0.  1.
</event>
<event>
 4    1  0.1976955E-002  0.9118800E+02  0.7818608E-02  0.1130116E+00
         25   -1    0    0    0    0  0.00000000000E+00  0.00000000000E+00  0.99999998245E-14  0.12500000000E+03  0.12500000000E+03 0.  0.
        -11    1    1    0    0    0 -0.59063616514E+01  0.10690057506E+02  0.11061265783E+02  0.16477683042E+02  0.51100000000E-03 0. -1.
         11    1    1    0    0    0 -0.16508811569E+02  0.29853912772E+02  0.30891045857E+02  0.46022317212E+02  0.51100000000E-03 0.  1.
         22    1    1    0    0    0  0.22415173220E+02 -0.40543970278E+02 -0.41952311640E+02  0.62499999746E+02  0.00000000000E+00 0.  1.
</event>
<event>
 4    1  0.1976955E-002  0.9118800E+02  0.7818608E-02  0.1130116E+00
         25   -1    0    0    0    0  0.00000000000E+00  0.00000000000E+00  0.99999998245E-14  0.12500000000E+03  0.12500000000E+03 0.  0.
        -11    1    1    0    0    0 -0.41383715128E+02 -0.22342309263E+01  0.14481401485E+02  0.43901191952E+02  0.51100000000E-03 0. -1.
         11    1    1    0    0    0 -0.17544874899E+02 -0.93953431290E+00  0.61000659031E+01  0.18598821582E+02  0.51100000000E-03 0.  1.
         22    1    1    0    0    0  0.58928590027E+02  0.31737652392E+01 -0.20581467388E+02  0.62499986466E+02  0.00000000000E+00 0. -1.
</event>
<event>
 4    1  0.1976955E-002  0.9118800E+02  0.7818608E-02  0.1130116E+00
         25   -1    0    0    0    0  0.00000000000E+00  0.00000000000E+00  0.99999998245E-14  0.12500000000E+03  0.12500000000E+03 0.  0.
        -11    1    1    0    0    0 -0.10688885533E+02 -0.11376572381E+02  0.46517928603E+01  0.16288580360E+02  0.51100000000E-03 0.  1.
         11    1    1    0    0    0 -0.30329226668E+02 -0.32279353714E+02  0.13178645171E+02  0.46211420182E+02  0.51100000000E-03 0. -1.
         22    1    1    0    0    0  0.41018112202E+02  0.43655926095E+02 -0.17830438031E+02  0.62499999457E+02  0.00000000000E+00 0. -1.
</event>
<event>
 4    1  0.1976955E-002  0.9118800E+02  0.7818608E-02  0.1130116E+00
         25   -1    0    0    0    0  0.00000000000E+00  0.00000000000E+00  0.99999998245E-14  0.12500000000E+03  0.12500000000E+03 0.  0.
        -11    1    1    0    0    0  0.83689222323E+01 -0.53826816613E+01 -0.18974909088E+01  0.10129787422E+02  0.51100000000E-03 0. -1.
         11    1    1    0    0    0  0.43300399847E+02 -0.27761435639E+02 -0.98497619785E+01  0.52370218129E+02  0.51100000000E-03 0.  1.
         22    1    1    0    0    0 -0.51669322079E+02  0.33144117300E+02  0.11747252887E+02  0.62499994449E+02  0.00000000000E+00 0.  1.
</event>
<event>
 4    1  0.1976955E-002  0.9118800E+02  0.7818608E-02  0.1130116E+00
         25   -1    0    0    0    0  0.00000000000E+00  0.00000000000E+00  0.99999998245E-14  0.12500000000E+03  0.12500000000E+03 0.  0.
        -11    1    1    0    0    0  0.10503374359E+02  0.16948618250E+02  0.14723947125E+02  0.24786511508E+02  0.51100000000E-03 0.  1.
         11    1    1    0    0    0  0.27605457922E+02  0.28036582230E+02  0.39723762728E+00  0.39348050119E+02  0.51100000000E-03 0. -1.
         22    1    1    0    0    0 -0.38108832281E+02 -0.44985200480E+02 -0.15121184752E+02  0.60865438373E+02  0.00000000000E+00 0. -1.
</event>
<event>
 4    1  0.1976955E-002  0.9118800E+02  0.7818608E-02  0.1130116E+00
         25   -1    0    0    0    0  0.00000000000E+00  0.00000000000E+00  0.99999998245E-14  0.12500000000E+03  0.12500000000E+03 0.  0.
        -11    1    1    0    0    0  0.21767092020E+02  0.46553819640E+02 -0.27672071200E+01  0.51465734752E+02  0.51100000000E-03 0. -1.
         11    1    1    0    0    0  0.46766425397E+01  0.99776920589E+01 -0.57434932544E+00  0.11034273953E+02  0.51100000000E-03 0.  1.
         22    1    1    0    0    0 -0.26443734559E+02 -0.56531511699E+02  0.33415564454E+01  0.62499991295E+02  0.00000000000E+00 0. -1.
</event>
<event>
 4    1  0.1976955E-002  0.9118800E+02  0.7818608E-02  0.1130116E+00
         25   -1    0    0    0    0  0.00000000000E+00  0.00000000000E+00  0.99999998245E-14  0.12500000000E+03  0.12500000000E+03 0.  0.
        -11    1    1    0    0    0  0.22408323438E+01  0.16918286022E+02 -0.10481029879E+02  0.20027524038E+02  0.51100000000E-03 0. -1.
         11    1    1    0    0    0  0.54686293414E+01  0.35726269355E+02 -0.22309774791E+02  0.42473500920E+02  0.51100000000E-03 0.  1.
         22    1    1    0    0    0 -0.77094616852E+01 -0.52644555377E+02  0.32790804670E+02  0.62498975042E+02  0.00000000000E+00 0.  1.
</event>
<event>
 4    1  0.1976955E-002  0.9118800E+02  0.7818608E-02  0.1130116E+00
         25   -1    0    0    0    0  0.00000000000E+00  0.00000000000E+00  0.99999998245E-14  0.12500000000E+03  0.12500000000E+03 0.  0.
        -11    1    1    0    0    0 -0.56354865938E+02 -0.56943830132E+00 -0.37237177856E+01  0.56480627203E+02  0.51100000000E-03 0. -1.
         11    1    1    0    0    0 -0.60059975386E+01 -0.54613869257E-01 -0.39733665267E+00  0.60193742021E+01  0.51100000000E-03 0.  1.
         22    1    1    0    0    0  0.62360863477E+02  0.62405217058E+00  0.41210544382E+01  0.62499998595E+02  0.00000000000E+00 0. -1.
</event>
<event>
 4    1  0.1976955E-002  0.9118800E+02  0.7818608E-02  0.1130116E+00
         25   -1    0    0    0    0  0.00000000000E+00  0.00000000000E+00  0.99999998245E-14  0.12500000000E+03  0.12500000000E+03 0.  0.
        -11    1    1    0    0    0 -0.60209533238E+00  0.97103435002E+01  0.26689648455E+02  0.28407580408E+02  0.51100000000E-03 0.  1.
         11    1    1    0    0    0 -0.15090021894E+01  0.11938999339E+02  0.31900457801E+02  0.34094809004E+02  0.51100000000E-03 0. -1.
         22    1    1    0    0    0  0.21110975218E+01 -0.21649342840E+02 -0.58590106256E+02  0.62497610589E+02  0.00000000000E+00 0.  1.
</event>
<event>
 4    1  0.1976955E-002  0.9118800E+02  0.7818608E-02  0.1130116E+00
         25   -1    0    0    0    0  0.00000000000E+00  0.00000000000E+00  0.99999998245E-14  0.12500000000E+03  0.12500000000E+03 0.  0.
        -11    1    1    0    0    0  0.33195708727E+01 -0.13278155373E+02 -0.51471259924E+00  0.13696491894E+02  0.51100000000E-03 0.  1.
         11    1    1    0    0    0  0.11827239146E+02 -0.47313063378E+02 -0.18365327628E+01  0.48803508121E+02  0.51100000000E-03 0.  1.
         22    1    1    0    0    0 -0.15146810018E+02  0.60591218751E+02  0.23512453620E+01  0.62499999985E+02  0.00000000000E+00 0.  1.
</event>
<event>
 4    1  0.1976955E-002  0.9118800E+02  0.7818608E-02  0.1130116E+00
         25   -1    0    0    0    0  0.00000000000E+00  0.00000000000E+00  0.99999998245E-14  0.12500000000E+03  0.12500000000E+03 0.  0.
        -11    1    1    0    0    0 -0.11104485597E+01 -0.21422054400E+01  0.11096964466E+02  0.11356265265E+02  0.51100000000E-03 0.  1.
         11    1    1    0    0    0 -0.50226037748E+01 -0.94162895770E+01  0.50017932857E+02  0.51143784233E+02  0.51100000000E-03 0. -1.
         22    1    1    0    0    0  0.61330523345E+01  0.11558495017E+02 -0.61114897323E+02  0.62499950502E+02  0.00000000000E+00 0. -1.
</event>
<event>
 4    1  0.1976955E-002  0.9118800E+02  0.7818608E-02  0.1130116E+00
         25   -1    0    0    0    0  0.00000000000E+00  0.00000000000E+00  0.99999998245E-14  0.12500000000E+03  0.12500000000E+03 0.  0.
        -11    1    1    0    0    0 -0.17476364444E+00  0.18675503137E+01  0.26839327656E+02  0.26904791316E+02  0.51100000000E-03 0. -1.
         11    1    1    0    0    0 -0.23801437859E+00  0.24066028277E+01  0.35512975007E+02  0.35595221339E+02  0.51100000000E-03 0.  1.
         22    1    1    0    0    0  0.41277802303E+00 -0.42741531414E+01 -0.62352302663E+02  0.62499987345E+02  0.00000000000E+00 0.  1.
</event>
<event>
 4    1  0.1976955E-002  0.9118800E+02  0.7818608E-02  0.1130116E+00
         25   -1    0    0    0    0  0.00000000000E+00  0.00000000000E+00  0.99999998245E-14  0.12500000000E+03  0.12500000000E+03 0.  0.
        -11    1    1    0    0    0 -0.45537912502E+02  0.23927803834E+02  0.10738893404E+02  0.52550595650E+02  0.51100000000E-03 0. -1.
         11    1    1    0    0    0 -0.86340473854E+01  0.45147829118E+01  0.20151697628E+01  0.99494195021E+01  0.51100000000E-03 0.  1.
         22    1    1    0    0    0  0.54171959887E+02 -0.28442586746E+02 -0.12754063166E+02  0.62499984848E+02  0.00000000000E+00 0. -1.
</event>
<event>
 4    1  0.1976955E-002  0.9118800E+02  0.7818608E-02  0.1130116E+00
         25   -1    0    0    0    0  0.00000000000E+00  0.00000000000E+00  0.99999998245E-14  0.12500000000E+03  0.12500000000E+03 0.  0.
        -11    1    1    0    0    0  0.61251345401E+00  0.21415131414E+01  0.47993632695E+01  0.52910433111E+01  0.51100000000E-03 0. -1.
         11    1    1    0    0    0  0.61706158377E+01  0.22798477006E+02  0.52105984585E+02  0.57209096161E+02  0.51100000000E-03 0.  1.
         22    1    1    0    0    0 -0.67831292917E+01 -0.24939990148E+02 -0.56905347855E+02  0.62499860528E+02  0.00000000000E+00 0.  1.
</event>
<event>
 4    1  0.1976955E-002  0.9118800E+02  0.7818608E-02  0.1130116E+00
         25   -1    0    0    0    0  0.00000000000E+00  0.00000000000E+00  0.99999998245E-14  0.12500000000E+03  0.12500000000E+03 0.  0.
        -11    1    1    0    0    0  0.25031888889E+02 -0.25062549228E+02 -0.88092295165E+00  0.35433075800E+02  0.51100000000E-03 0. -1.
         11    1    1    0    0    0  0.11243713739E+02 -0.23470869127E+02 -0.10231795311E+02  0.27964127588E+02  0.51100000000E-03 0.  1.
         22    1    1    0    0    0 -0.36275602628E+02  0.48533418355E+02  0.11112718262E+02  0.61602796612E+02  0.00000000000E+00 0. -1.
</event>
<event>
 4    1  0.1976955E-002  0.9118800E+02  0.7818608E-02  0.1130116E+00
         25   -1    0    0    0    0  0.00000000000E+00  0.00000000000E+00  0.99999998245E-14  0.12500000000E+03  0.12500000000E+03 0.  0.
        -11    1    1    0    0    0  0.16912516818E+01  0.49725103176E+01  0.48833028617E+00  0.52749083252E+01  0.51100000000E-03 0. -1.
         11    1    1    0    0    0  0.18258670136E+02  0.53986633599E+02  0.51746037441E+01  0.57225100845E+02  0.51100000000E-03 0.  1.
         22    1    1    0    0    0 -0.19949921818E+02 -0.58959143917E+02 -0.56629340303E+01  0.62499990830E+02  0.00000000000E+00 0.  1.
</event>
<event>
 4    1  0.1976955E-002  0.9118800E+02  0.7818608E-02  0.1130116E+00
         25   -1    0    0    0    0  0.00000000000E+00  0.00000000000E+00  0.99999998245E-14  0.12500000000E+03  0.12500000000E+03 0.  0.
        -11    1    1    0    0    0  0.14816024046E+01  0.14409498524E+00 -0.12118669616E+01  0.19195131789E+01  0.51100000000E-03 0. -1.
         11    1    1    0    0    0  0.46777213747E+02  0.45518291932E+01 -0.38225234135E+02  0.60580486956E+02  0.51100000000E-03 0.  1.
         22    1    1    0    0    0 -0.48258816151E+02 -0.46959241784E+01  0.39437101096E+02  0.62499999865E+02  0.00000000000E+00 0.  1.
</event>
<event>
 4    1  0.1976955E-002  0.9118800E+02  0.7818608E-02  0.1130116E+00
         25   -1    0    0    0    0  0.00000000000E+00  0.00000000000E+00  0.99999998245E-14  0.12500000000E+03  0.12500000000E+03 0.  0.
        -11    1    1    0    0    0  0.37181998824E+01  0.53425811073E+01  0.91445601124E+01  0.11224578529E+02  0.51100000000E-03 0. -1.
         11    1    1    0    0    0  0.16992325940E+02  0.24402295104E+02  0.41772690910E+02  0.51275421532E+02  0.51100000000E-03 0.  1.
         22    1    1    0    0    0 -0.20710525822E+02 -0.29744876212E+02 -0.50917251022E+02  0.62499999938E+02  0.00000000000E+00 0.  1.
</event>
<event>
 4    1  0.1976955E-002  0.9118800E+02  0.7818608E-02  0.1130116E+00
         25   -1    0    0    0    0  0.00000000000E+00  0.00000000000E+00  0.99999998245E-14  0.12500000000E+03  0.12500000000E+03 0.  0.
        -11    1    1    0    0    0  0.18045121320E+02  0.90672435949E+00 -0.78615202341E+01  0.19704112595E+02  0.51100000000E-03 0.  1.
         11    1    1    0    0    0  0.34496159235E+02 -0.38375165498E+01 -0.25428620714E+02  0.43027041345E+02  0.51100000000E-03 0. -1.
         22    1    1    0    0    0 -0.52541280555E+02  0.29307921903E+01  0.33290140949E+02  0.62268846059E+02  0.00000000000E+00 0.  1.
</event>
<event>
 4    1  0.1976955E-002  0.9118800E+02  0.7818608E-02  0.1130116E+00
         25   -1    0    0    0    0  0.00000000000E+00  0.00000000000E+00  0.99999998245E-14  0.12500000000E+03  0.12500000000E+03 0.  0.
        -11    1    1    0    0    0 -0.73824084314E+01 -0.13735155011E+02  0.27364463329E+01  0.15831695305E+02  0.51100000000E-03 0.  1.
         11    1    1    0    0    0 -0.21741258150E+02 -0.40528424260E+02  0.79182210554E+01  0.46668337274E+02  0.51100000000E-03 0. -1.
         22    1    1    0    0    0  0.29123666581E+02  0.54263579272E+02 -0.10654667388E+02  0.62499967421E+02  0.00000000000E+00 0. -1.
</event>
<event>
 4    1  0.1976955E-002  0.9118800E+02  0.7818608E-02  0.1130116E+00
         25   -1    0    0    0    0  0.00000000000E+00  0.00000000000E+00  0.99999998245E-14  0.12500000000E+03  0.12500000000E+03 0.  0.
        -11    1    1    0    0    0 -0.16980022829E+01 -0.10512502940E+02  0.10550452876E+02  0.14990263039E+02  0.51100000000E-03 0. -1.
         11    1    1    0    0    0 -0.54467212700E+01 -0.33261053583E+02  0.33484500924E+02  0.47509749110E+02  0.51100000000E-03 0.  1.
         22    1    1    0    0    0  0.71447235528E+01  0.43773556523E+02 -0.44034953801E+02  0.62499987852E+02  0.00000000000E+00 0.  1.
</event>
<event>
 4    1  0.1976955E-002  0.9118800E+02  0.7818608E-02  0.1130116E+00
         25   -1    0    0    0    0  0.00000000000E+00  0.00000000000E+00  0.99999998245E-14  0.12500000000E+03  0.12500000000E+03 0.  0.
        -11    1    1    0    0    0 -0.28189026444E+00  0.40778174650E+00 -0.92222701514E+00  0.10470200583E+01  0.51100000000E-03 0.  1.
         11    1    1    0    0    0 -0.82806841360E+01  0.44717972037E+02 -0.41397487492E+02  0.61498119676E+02  0.51100000000E-03 0. -1.
         22    1    1    0    0    0  0.85625744005E+01 -0.45125753783E+02  0.42319714507E+02  0.62454860266E+02  0.00000000000E+00 0. -1.
</event>
<event>
 4    1  0.1976955E-002  0.9118800E+02  0.7818608E-02  0.1130116E+00
         25   -1    0    0    0    0  0.00000000000E+00  0.00000000000E+00  0.99999998245E-14  0.12500000000E+03  0.12500000000E+03 0.  0.
        -11    1    1    0    0    0  0.20480791900E+02  0.54580670056E+02 -0.22121716244E+02  0.62352888550E+02  0.51100000000E-03 0.  1.
         11    1    1    0    0    0  0.47346742667E-01  0.12909120110E+00 -0.52306084596E-01  0.14711369702E+00  0.51100000000E-03 0. -1.
         22    1    1    0    0    0 -0.20528138643E+02 -0.54709761257E+02  0.22174022329E+02  0.62499997753E+02  0.00000000000E+00 0.  1.
</event>
<event>
 4    1  0.1976955E-002  0.9118800E+02  0.7818608E-02  0.1130116E+00
         25   -1    0    0    0    0  0.00000000000E+00  0.00000000000E+00  0.99999998245E-14  0.12500000000E+03  0.12500000000E+03 0.  0.
        -11    1    1    0    0    0 -0.23434407713E+01 -0.13603162970E+02 -0.55826734986E+01  0.14889728040E+02  0.51100000000E-03 0.  1.
         11    1    1    0    0    0 -0.77430096778E+01 -0.43207919244E+02 -0.18436859379E+02  0.47610883926E+02  0.51100000000E-03 0. -1.
         22    1    1    0    0    0  0.10086450449E+02  0.56811082214E+02  0.24019532877E+02  0.62499388034E+02  0.00000000000E+00 0. -1.
</event>
<event>
 4    1  0.1976955E-002  0.9118800E+02  0.7818608E-02  0.1130116E+00
         25   -1    0    0    0    0  0.00000000000E+00  0.00000000000E+00  0.99999998245E-14  0.12500000000E+03  0.12500000000E+03 0.  0.
        -11    1    1    0    0    0 -0.49937683112E+02 -0.12846525171E+02  0.11847286430E+02  0.52907122390E+02  0.51100000000E-03 0. -1.
         11    1    1    0    0    0 -0.90610250079E+01 -0.22868941041E+01  0.21661389667E+01  0.95929253683E+01  0.51100000000E-03 0.  1.
         22    1    1    0    0    0  0.58998708120E+02  0.15133419276E+02 -0.14013425397E+02  0.62499952241E+02  0.00000000000E+00 0. -1.
</event>
<event>
 4    1  0.1976955E-002  0.9118800E+02  0.7818608E-02  0.1130116E+00
         25   -1    0    0    0    0  0.00000000000E+00  0.00000000000E+00  0.99999998245E-14  0.12500000000E+03  0.12500000000E+03 0.  0.
        -11    1    1    0    0    0  0.15095885525E+02  0.29994394793E+02  0.16712144165E+02  0.37507935716E+02  0.51100000000E-03 0.  1.
         11    1    1    0    0    0 -0.13645354928E+02  0.26019364651E+02 -0.10113748834E+02  0.31072350469E+02  0.51100000000E-03 0. -1.
         22    1    1    0    0    0 -0.14505305970E+01 -0.56013759444E+02 -0.65983953313E+01  0.56419713815E+02  0.00000000000E+00 0.  1.
</event>
<event>
 4    1  0.1976955E-002  0.9118800E+02  0.7818608E-02  0.1130116E+00
         25   -1    0    0    0    0  0.00000000000E+00  0.00000000000E+00  0.99999998245E-14  0.12500000000E+03  0.12500000000E+03 0.  0.
        -11    1    1    0    0    0 -0.20656174772E+02 -0.41771027400E+02 -0.10684702185E+01  0.46611564178E+02  0.51100000000E-03 0.  1.
         11    1    1    0    0    0 -0.70795371731E+01 -0.14221962600E+02 -0.25229040429E+00  0.15888603384E+02  0.51100000000E-03 0. -1.
         22    1    1    0    0    0  0.27735711946E+02  0.55992989999E+02  0.13207606228E+01  0.62499832438E+02  0.00000000000E+00 0.  1.
</event>
<event>
 4    1  0.1976955E-002  0.9118800E+02  0.7818608E-02  0.1130116E+00
         25   -1    0    0    0    0  0.00000000000E+00  0.00000000000E+00  0.99999998245E-14  0.12500000000E+03  0.12500000000E+03 0.  0.
        -11    1    1    0    0    0 -0.85562716531E+01  0.14382950538E+02 -0.58089934727E+01  0.17715062975E+02  0.51100000000E-03 0.  1.
         11    1    1    0    0    0 -0.19813397257E+02  0.36838928070E+02 -0.16023971771E+02  0.44793358925E+02  0.51100000000E-03 0. -1.
         22    1    1    0    0    0  0.28369668910E+02 -0.51221878607E+02  0.21832965244E+02  0.62491578100E+02  0.00000000000E+00 0. -1.
</event>
<event>
 4    1  0.1976955E-002  0.9118800E+02  0.7818608E-02  0.1130116E+00
         25   -1    0    0    0    0  0.00000000000E+00  0.00000000000E+00  0.99999998245E-14  0.12500000000E+03  0.12500000000E+03 0.  0.
        -11    1    1    0    0    0  0.26104119109E+02 -0.65646805141E+01 -0.16857722334E+02  0.31760082923E+02  0.51100000000E-03 0.  1.
         11    1    1    0    0    0  0.25266727168E+02 -0.63503904732E+01 -0.16315867867E+02  0.30739917135E+02  0.51100000000E-03 0. -1.
         22    1    1    0    0    0 -0.51370846278E+02  0.12915070987E+02  0.33173590201E+02  0.62499999942E+02  0.00000000000E+00 0. -1.
</event>
<event>
 4    1  0.1976955E-002  0.9118800E+02  0.7818608E-02  0.1130116E+00
         25   -1    0    0    0    0  0.00000000000E+00  0.00000000000E+00  0.99999998245E-14  0.12500000000E+03  0.12500000000E+03 0.  0.
        -11    1    1    0    0    0 -0.15353402736E+01 -0.64399569507E+01 -0.11431470019E+02  0.13210178740E+02  0.51100000000E-03 0.  1.
         11    1    1    0    0    0  0.42838072717E+02  0.35504542018E+02 -0.10684887833E+02  0.56655448161E+02  0.51100000000E-03 0. -1.
         22    1    1    0    0    0 -0.41302732443E+02 -0.29064585067E+02  0.22116357852E+02  0.55134373099E+02  0.00000000000E+00 0. -1.
</event>
<event>
 4    1  0.1976955E-002  0.9118800E+02  0.7818608E-02  0.1130116E+00
         25   -1    0    0    0    0  0.00000000000E+00  0.00000000000E+00  0.99999998245E-14  0.12500000000E+03  0.12500000000E+03 0.  0.
        -11    1    1    0    0    0  0.39139340847E+02  0.17896722980E+02  0.52829795729E+01  0.43360011171E+02  0.51100000000E-03 0.  1.
         11    1    1    0    0    0  0.17324326351E+02  0.78334319492E+01  0.22028028525E+01  0.19140200633E+02  0.51100000000E-03 0. -1.
         22    1    1    0    0    0 -0.56463667197E+02 -0.25730154929E+02 -0.74857824255E+01  0.62499788196E+02  0.00000000000E+00 0.  1.
</event>
<event>
 4    1  0.1976955E-002  0.9118800E+02  0.7818608E-02  0.1130116E+00
         25   -1    0    0    0    0  0.00000000000E+00  0.00000000000E+00  0.99999998245E-14  0.12500000000E+03  0.12500000000E+03 0.  0.
        -11    1    1    0    0    0  0.27621153656E+01  0.14545904188E+01  0.56557125318E+01  0.64600463684E+01  0.51100000000E-03 0. -1.
         11    1    1    0    0    0  0.24028796230E+02  0.12518234516E+02  0.49054947960E+02  0.56039960414E+02  0.51100000000E-03 0.  1.
         22    1    1    0    0    0 -0.26790911595E+02 -0.13972824935E+02 -0.54710660491E+02  0.62499993217E+02  0.00000000000E+00 0.  1.
</event>
<event>
 4    1  0.1976955E-002  0.9118800E+02  0.7818608E-02  0.1130116E+00
         25   -1    0    0    0    0  0.00000000000E+00  0.00000000000E+00  0.99999998245E-14  0.12500000000E+03  0.12500000000E+03 0.  0.
        -11    1    1    0    0    0 -0.38462880324E+02  0.37118125382E+01  0.40481399450E+01  0.38853032731E+02  0.51100000000E-03 0.  1.
         11    1    1    0    0    0 -0.23407752095E+02  0.22981123945E+01  0.24444778968E+01  0.23646979748E+02  0.51100000000E-03 0. -1.
         22    1    1    0    0    0  0.61870632420E+02 -0.60099249326E+01 -0.64926178418E+01  0.62499987521E+02  0.00000000000E+00 0.  1.
</event>
<event>
 4    1  0.1976955E-002  0.9118800E+02  0.7818608E-02  0.1130116E+00
         25   -1    0    0    0    0  0.00000000000E+00  0.00000000000E+00  0.99999998245E-14  0.12500000000E+03  0.12500000000E+03 0.  0.
        -11    1    1    0    0    0 -0.51695313146E+01  0.30282969693E+01 -0.13279339750E+02  0.14568304671E+02  0.51100000000E-03 0. -1.
         11    1    1    0    0    0 -0.16985896803E+02  0.13444328614E+02 -0.42774839688E+02  0.47947445945E+02  0.51100000000E-03 0.  1.
         22    1    1    0    0    0  0.22155428117E+02 -0.16472625583E+02  0.56054179437E+02  0.62484249384E+02  0.00000000000E+00 0.  1.
</event>
<event>
 4    1  0.1976955E-002  0.9118800E+02  0.7818608E-02  0.1130116E+00
         25   -1    0    0    0    0  0.00000000000E+00  0.00000000000E+00  0.99999998245E-14  0.12500000000E+03  0.12500000000E+03 0.  0.
        -11    1    1    0    0    0  0.55127754567E+01  0.63959707800E+00 -0.53297194613E+01  0.76945232117E+01  0.51100000000E-03 0.  1.
         11    1    1    0    0    0  0.27152422240E+02  0.13828356373E+02 -0.45752037633E+02  0.54970232139E+02  0.51100000000E-03 0. -1.
         22    1    1    0    0    0 -0.32665197697E+02 -0.14467953451E+02  0.51081757095E+02  0.62335244650E+02  0.00000000000E+00 0. -1.
</event>
<event>
 4    1  0.1976955E-002  0.9118800E+02  0.7818608E-02  0.1130116E+00
         25   -1    0    0    0    0  0.00000000000E+00  0.00000000000E+00  0.99999998245E-14  0.12500000000E+03  0.12500000000E+03 0.  0.
        -11    1    1    0    0    0  0.41366659371E+01 -0.35386479215E+01  0.40010359294E+01  0.67559102242E+01  0.51100000000E-03 0.  1.
         11    1    1    0    0    0  0.31761184214E+02 -0.28883748248E+02  0.35567141784E+02  0.55750025206E+02  0.51100000000E-03 0. -1.
         22    1    1    0    0    0 -0.35897850151E+02  0.32422396170E+02 -0.39568177713E+02  0.62494064570E+02  0.00000000000E+00 0. -1.
</event>
<event>
 4    1  0.1976955E-002  0.9118800E+02  0.7818608E-02  0.1130116E+00
         25   -1    0    0    0    0  0.00000000000E+00  0.00000000000E+00  0.99999998245E-14  0.12500000000E+03  0.12500000000E+03 0.  0.
        -11    1    1    0    0    0  0.69758687909E+01 -0.90293125950E+01  0.40502135058E+01  0.12107661254E+02  0.51100000000E-03 0. -1.
         11    1    1    0    0    0  0.29321343658E+02 -0.37394667984E+02  0.16771924957E+02  0.50392458310E+02  0.51100000000E-03 0.  1.
         22    1    1    0    0    0 -0.36297212449E+02  0.46423980579E+02 -0.20822138462E+02  0.62499880436E+02  0.00000000000E+00 0.  1.
</event>
<event>
 4    1  0.1976955E-002  0.9118800E+02  0.7818608E-02  0.1130116E+00
         25   -1    0    0    0    0  0.00000000000E+00  0.00000000000E+00  0.99999998245E-14  0.12500000000E+03  0.12500000000E+03 0.  0.
        -11    1    1    0    0    0  0.46910074699E+02 -0.22007312677E+02 -0.28981605708E+02  0.59370113603E+02  0.51100000000E-03 0.  1.
         11    1    1    0    0    0  0.22939210331E+01 -0.11873127784E+01 -0.17805454077E+01  0.31372165290E+01  0.51100000000E-03 0. -1.
         22    1    1    0    0    0 -0.49203995732E+02  0.23194625455E+02  0.30762151116E+02  0.62492669868E+02  0.00000000000E+00 0.  1.
</event>
<event>
 4    1  0.1976955E-002  0.9118800E+02  0.7818608E-02  0.1130116E+00
         25   -1    0    0    0    0  0.00000000000E+00  0.00000000000E+00  0.99999998245E-14  0.12500000000E+03  0.12500000000E+03 0.  0.
        -11    1    1    0    0    0  0.59319627710E+01 -0.15853445177E+01 -0.12697211529E+01  0.62700631275E+01  0.51100000000E-03 0.  1.
         11    1    1    0    0    0  0.53149134751E+02 -0.13602835446E+02 -0.12328897825E+02  0.56230502210E+02  0.51100000000E-03 0. -1.
         22    1    1    0    0    0 -0.59081097522E+02  0.15188179963E+02  0.13598618978E+02  0.62499434662E+02  0.00000000000E+00 0. -1.
</event>
<event>
 4    1  0.1976955E-002  0.9118800E+02  0.7818608E-02  0.1130116E+00
         25   -1    0    0    0    0  0.00000000000E+00  0.00000000000E+00  0.99999998245E-14  0.12500000000E+03  0.12500000000E+03 0.  0.
        -11    1    1    0    0    0 -0.14366845708E+02  0.22034120454E+02  0.46565345250E+02  0.53481212573E+02  0.51100000000E-03 0. -1.
         11    1    1    0    0    0 -0.23300464933E+01  0.37324972024E+01  0.78728551696E+01  0.90190077508E+01  0.51100000000E-03 0.  1.
         22    1    1    0    0    0  0.16696892201E+02 -0.25766617656E+02 -0.54438200420E+02  0.62499779676E+02  0.00000000000E+00 0. -1.
</event>
<event>
 4    1  0.1976955E-002  0.9118800E+02  0.7818608E-02  0.1130116E+00
         25   -1    0    0    0    0  0.00000000000E+00  0.00000000000E+00  0.99999998245E-14  0.12500000000E+03  0.12500000000E+03 0.  0.
        -11    1    1    0    0    0  0.49804691689E+01 -0.53873241554E+01 -0.10603099506E+02  0.12893954169E+02  0.51100000000E-03 0. -1.
         11    1    1    0    0    0  0.19777565789E+02 -0.20779583829E+02 -0.40470566727E+02  0.49606551826E+02  0.51100000000E-03 0.  1.
         22    1    1    0    0    0 -0.24758034958E+02  0.26166907984E+02  0.51073666233E+02  0.62499494005E+02  0.00000000000E+00 0.  1.
</event>
<event>
 4    1  0.1976955E-002  0.9118800E+02  0.7818608E-02  0.1130116E+00
         25   -1    0    0    0    0  0.00000000000E+00  0.00000000000E+00  0.99999998245E-14  0.12500000000E+03  0.12500000000E+03 0.  0.
        -11    1    1    0    0    0  0.28524893429E+02 -0.36276987168E+02 -0.19230748336E+02  0.49995110011E+02  0.51100000000E-03 0.  1.
         11    1    1    0    0    0  0.71347305351E+01 -0.90736442067E+01 -0.48100805137E+01  0.12504889996E+02  0.51100000000E-03 0. -1.
         22    1    1    0    0    0 -0.35659623965E+02  0.45350631375E+02  0.24040828850E+02  0.62499999993E+02  0.00000000000E+00 0.  1.
</event>
<event>
 4    1  0.1976955E-002  0.9118800E+02  0.7818608E-02  0.1130116E+00
         25   -1    0    0    0    0  0.00000000000E+00  0.00000000000E+00  0.99999998245E-14  0.12500000000E+03  0.12500000000E+03 0.  0.
        -11    1    1    0    0    0  0.73941557083E+01  0.13883260519E+01 -0.29270310128E+02  0.30221714761E+02  0.51100000000E-03 0.  1.
         11    1    1    0    0    0  0.72961474185E+01  0.15963802833E+01 -0.31403835051E+02  0.32279762288E+02  0.51100000000E-03 0. -1.
         22    1    1    0    0    0 -0.14690303127E+02 -0.29847063352E+01  0.60674145179E+02  0.62498522951E+02  0.00000000000E+00 0.  1.
</event>
<event>
 4    1  0.1976955E-002  0.9118800E+02  0.7818608E-02  0.1130116E+00
         25   -1    0    0    0    0  0.00000000000E+00  0.00000000000E+00  0.99999998245E-14  0.12500000000E+03  0.12500000000E+03 0.  0.
        -11    1    1    0    0    0 -0.82543940221E+01 -0.53395417804E+02  0.55777911624E+01  0.54316824444E+02  0.51100000000E-03 0. -1.
         11    1    1    0    0    0 -0.58266405632E+00 -0.81151690692E+01  0.98491137967E+00  0.81954571021E+01  0.51100000000E-03 0.  1.
         22    1    1    0    0    0  0.88370580784E+01  0.61510586873E+02 -0.65627025420E+01  0.62487718454E+02  0.00000000000E+00 0. -1.
</event>
<event>
 4    1  0.1976955E-002  0.9118800E+02  0.7818608E-02  0.1130116E+00
         25   -1    0    0    0    0  0.00000000000E+00  0.00000000000E+00  0.99999998245E-14  0.12500000000E+03  0.12500000000E+03 0.  0.
        -11    1    1    0    0    0 -0.43384203593E+02  0.28599618785E+02 -0.25564377817E+02  0.57910834301E+02  0.51100000000E-03 0. -1.
         11    1    1    0    0    0 -0.36561644423E+01  0.19461433008E+01 -0.19938653212E+01  0.45967935951E+01  0.51100000000E-03 0.  1.
         22    1    1    0    0    0  0.47040368035E+02 -0.30545762086E+02  0.27558243138E+02  0.62492372104E+02  0.00000000000E+00 0. -1.
</event>
<event>
 4    1  0.1976955E-002  0.9118800E+02  0.7818608E-02  0.1130116E+00
         25   -1    0    0    0    0  0.00000000000E+00  0.00000000000E+00  0.99999998245E-14  0.12500000000E+03  0.12500000000E+03 0.  0.
        -11    1    1    0    0    0  0.31286486567E+02  0.45049916797E+02  0.18291434025E+02  0.57817953994E+02  0.51100000000E-03 0.  1.
         11    1    1    0    0    0  0.27512109781E+01  0.33195285552E+01  0.18635157899E+01  0.46969269779E+01  0.51100000000E-03 0. -1.
         22    1    1    0    0    0 -0.34037697545E+02 -0.48369445352E+02 -0.20154949815E+02  0.62485119028E+02  0.00000000000E+00 0.  1.
</event>
<event>
 4    1  0.1976955E-002  0.9118800E+02  0.7818608E-02  0.1130116E+00
         25   -1    0    0    0    0  0.00000000000E+00  0.00000000000E+00  0.99999998245E-14  0.12500000000E+03  0.12500000000E+03 0.  0.
        -11    1    1    0    0    0  0.12603165531E+01 -0.62683647826E+01 -0.60880133664E+01  0.88286296712E+01  0.51100000000E-03 0.  1.
         11    1    1    0    0    0  0.76535453247E+01 -0.38104184175E+02 -0.37015002265E+02  0.53671370400E+02  0.51100000000E-03 0. -1.
         22    1    1    0    0    0 -0.89138618777E+01  0.44372548958E+02  0.43103015631E+02  0.62499999929E+02  0.00000000000E+00 0. -1.
</event>
<event>
 4    1  0.1976955E-002  0.9118800E+02  0.7818608E-02  0.1130116E+00
         25   -1    0    0    0    0  0.00000000000E+00  0.00000000000E+00  0.99999998245E-14  0.12500000000E+03  0.12500000000E+03 0.  0.
        -11    1    1    0    0    0  0.65273537837E+00 -0.23659337207E+01  0.10730673515E+02  0.11007772717E+02  0.51100000000E-03 0.  1.
         11    1    1    0    0    0  0.29796154778E+01 -0.11225114342E+02  0.50165435541E+02  0.51492254016E+02  0.51100000000E-03 0. -1.
         22    1    1    0    0    0 -0.36323508561E+01  0.13591048062E+02 -0.60896109056E+02  0.62499973267E+02  0.00000000000E+00 0. -1.
</event>
<event>
 4    1  0.1976955E-002  0.9118800E+02  0.7818608E-02  0.1130116E+00
         25   -1    0    0    0    0  0.00000000000E+00  0.00000000000E+00  0.99999998245E-14  0.12500000000E+03  0.12500000000E+03 0.  0.
        -11    1    1    0    0    0 -0.28541223380E+02  0.16196061540E+02  0.25977479837E+02  0.41853832565E+02  0.51100000000E-03 0. -1.
         11    1    1    0    0    0 -0.14079610041E+02  0.79890871931E+01  0.12814183420E+02  0.20646167443E+02  0.51100000000E-03 0.  1.
         22    1    1    0    0    0  0.42620833421E+02 -0.24185148733E+02 -0.38791663257E+02  0.62499999992E+02  0.00000000000E+00 0. -1.
</event>
<event>
 4    1  0.1976955E-002  0.9118800E+02  0.7818608E-02  0.1130116E+00
         25   -1    0    0    0    0  0.00000000000E+00  0.00000000000E+00  0.99999998245E-14  0.12500000000E+03  0.12500000000E+03 0.  0.
        -11    1    1    0    0    0  0.28378995585E+02  0.44286586679E+02 -0.21557547995E+02  0.56845378228E+02  0.51100000000E-03 0. -1.
         11    1    1    0    0    0  0.28232440827E+01  0.44056341347E+01 -0.21434617951E+01  0.56546218271E+01  0.51100000000E-03 0.  1.
         22    1    1    0    0    0 -0.31202239668E+02 -0.48692220813E+02  0.23701009791E+02  0.62499999945E+02  0.00000000000E+00 0. -1.
</event>
<event>
 4    1  0.1976955E-002  0.9118800E+02  0.7818608E-02  0.1130116E+00
         25   -1    0    0    0    0  0.00000000000E+00  0.00000000000E+00  0.99999998245E-14  0.12500000000E+03  0.12500000000E+03 0.  0.
        -11    1    1    0    0    0  0.20906043180E+02 -0.57759338288E+01  0.28558689013E+02  0.35861159650E+02  0.51100000000E-03 0. -1.
         11    1    1    0    0    0  0.15527831157E+02 -0.42850563637E+01  0.21216799432E+02  0.26638840569E+02  0.51100000000E-03 0.  1.
         22    1    1    0    0    0 -0.36433874336E+02  0.10060990192E+02 -0.49775488444E+02  0.62499999782E+02  0.00000000000E+00 0. -1.
</event>
<event>
 4    1  0.1976955E-002  0.9118800E+02  0.7818608E-02  0.1130116E+00
         25   -1    0    0    0    0  0.00000000000E+00  0.00000000000E+00  0.99999998245E-14  0.12500000000E+03  0.12500000000E+03 0.  0.
        -11    1    1    0    0    0 -0.11006238809E+01 -0.75554856386E+01 -0.30112560201E+01  0.82075818145E+01  0.51100000000E-03 0. -1.
         11    1    1    0    0    0 -0.72332768651E+01 -0.50048667259E+02 -0.19760551701E+02  0.54292437709E+02  0.51100000000E-03 0.  1.
         22    1    1    0    0    0  0.83339007459E+01  0.57604152898E+02  0.22771807721E+02  0.62499980477E+02  0.00000000000E+00 0.  1.
</event>
<event>
 4    1  0.1976955E-002  0.9118800E+02  0.7818608E-02  0.1130116E+00
         25   -1    0    0    0    0  0.00000000000E+00  0.00000000000E+00  0.99999998245E-14  0.12500000000E+03  0.12500000000E+03 0.  0.
        -11    1    1    0    0    0 -0.98607259873E+01  0.10255856617E+02  0.51476058612E+02  0.53406002682E+02  0.51100000000E-03 0.  1.
         11    1    1    0    0    0 -0.13821831374E+01  0.13854971344E+02 -0.31241094880E+00  0.13927248903E+02  0.51100000000E-03 0. -1.
         22    1    1    0    0    0  0.11242909125E+02 -0.24110827961E+02 -0.51163647663E+02  0.57666748415E+02  0.00000000000E+00 0.  1.
</event>
<event>
 4    1  0.1976955E-002  0.9118800E+02  0.7818608E-02  0.1130116E+00
         25   -1    0    0    0    0  0.00000000000E+00  0.00000000000E+00  0.99999998245E-14  0.12500000000E+03  0.12500000000E+03 0.  0.
        -11    1    1    0    0    0 -0.22506272851E+02  0.33497983058E+02 -0.87740978403E+01  0.41299297570E+02  0.51100000000E-03 0.  1.
         11    1    1    0    0    0 -0.11551177022E+02  0.17195968836E+02 -0.45098515701E+01  0.21200702730E+02  0.51100000000E-03 0. -1.
         22    1    1    0    0    0  0.34057449872E+02 -0.50693951895E+02  0.13283949410E+02  0.62499999700E+02  0.00000000000E+00 0.  1.
</event>
<event>
 4    1  0.1976955E-002  0.9118800E+02  0.7818608E-02  0.1130116E+00
         25   -1    0    0    0    0  0.00000000000E+00  0.00000000000E+00  0.99999998245E-14  0.12500000000E+03  0.12500000000E+03 0.  0.
        -11    1    1    0    0    0  0.42215275398E+01 -0.57603584641E+02  0.92217435571E+00  0.57765427931E+02  0.51100000000E-03 0. -1.
         11    1    1    0    0    0  0.11198819360E+02  0.56739319277E+01 -0.34022966550E+01  0.13007024308E+02  0.51100000000E-03 0.  1.
         22    1    1    0    0    0 -0.15420346899E+02  0.51929652714E+02  0.24801222993E+01  0.54227547760E+02  0.00000000000E+00 0. -1.
</event>
<event>
 4    1  0.1976955E-002  0.9118800E+02  0.7818608E-02  0.1130116E+00
         25   -1    0    0    0    0  0.00000000000E+00  0.00000000000E+00  0.99999998245E-14  0.12500000000E+03  0.12500000000E+03 0.  0.
        -11    1    1    0    0    0  0.10221393426E+02 -0.54409207613E+01 -0.10191395464E+02  0.15425467386E+02  0.51100000000E-03 0. -1.
         11    1    1    0    0    0  0.31194475035E+02 -0.16600734121E+02 -0.31101960982E+02  0.47074532639E+02  0.51100000000E-03 0. -1.
         22    1    1    0    0    0 -0.41415868461E+02  0.22041654882E+02  0.41293356446E+02  0.62499999975E+02  0.00000000000E+00 0. -1.
</event>
<event>
 4    1  0.1976955E-002  0.9118800E+02  0.7818608E-02  0.1130116E+00
         25   -1    0    0    0    0  0.00000000000E+00  0.00000000000E+00  0.99999998245E-14  0.12500000000E+03  0.12500000000E+03 0.  0.
        -11    1    1    0    0    0 -0.72491263343E+01 -0.13266667597E+02 -0.27471302313E+02  0.31356446750E+02  0.51100000000E-03 0. -1.
         11    1    1    0    0    0 -0.72357042809E+01 -0.13156241138E+02 -0.27285146822E+02  0.31143560083E+02  0.51100000000E-03 0.  1.
         22    1    1    0    0    0  0.14484830615E+02  0.26422908735E+02  0.54756449135E+02  0.62499993167E+02  0.00000000000E+00 0.  1.
</event>
<event>
 4    1  0.1976955E-002  0.9118800E+02  0.7818608E-02  0.1130116E+00
         25   -1    0    0    0    0  0.00000000000E+00  0.00000000000E+00  0.99999998245E-14  0.12500000000E+03  0.12500000000E+03 0.  0.
        -11    1    1    0    0    0 -0.69720827042E+01 -0.44212114268E+01 -0.85177044733E+01  0.11862054521E+02  0.51100000000E-03 0.  1.
         11    1    1    0    0    0 -0.29137383300E+02 -0.22442755850E+02 -0.34828239780E+02  0.50652449912E+02  0.51100000000E-03 0. -1.
         22    1    1    0    0    0  0.36109466005E+02  0.26863967276E+02  0.43345944253E+02  0.62485495566E+02  0.00000000000E+00 0. -1.
</event>
<event>
 4    1  0.1976955E-002  0.9118800E+02  0.7818608E-02  0.1130116E+00
         25   -1    0    0    0    0  0.00000000000E+00  0.00000000000E+00  0.99999998245E-14  0.12500000000E+03  0.12500000000E+03 0.  0.
        -11    1    1    0    0    0  0.70455871184E+01  0.37352066166E+02 -0.33639609100E+01  0.38159315743E+02  0.51100000000E-03 0. -1.
         11    1    1    0    0    0  0.44911645366E+01  0.23826155162E+02 -0.21477162983E+01  0.24340684343E+02  0.51100000000E-03 0.  1.
         22    1    1    0    0    0 -0.11536751655E+02 -0.61178221328E+02  0.55116772083E+01  0.62499999914E+02  0.00000000000E+00 0. -1.
</event>
<event>
 4    1  0.1976955E-002  0.9118800E+02  0.7818608E-02  0.1130116E+00
         25   -1    0    0    0    0  0.00000000000E+00  0.00000000000E+00  0.99999998245E-14  0.12500000000E+03  0.12500000000E+03 0.  0.
        -11    1    1    0    0    0 -0.35047311925E+02 -0.21814467731E+02 -0.46991522793E+01  0.41548370702E+02  0.51100000000E-03 0. -1.
         11    1    1    0    0    0 -0.17615144229E+02 -0.11090806592E+02 -0.23823032336E+01  0.20951722269E+02  0.51100000000E-03 0.  1.
         22    1    1    0    0    0  0.52662456154E+02  0.32905274323E+02  0.70814555130E+01  0.62499907029E+02  0.00000000000E+00 0. -1.
</event>
<event>
 4    1  0.1976955E-002  0.9118800E+02  0.7818608E-02  0.1130116E+00
         25   -1    0    0    0    0  0.00000000000E+00  0.00000000000E+00  0.99999998245E-14  0.12500000000E+03  0.12500000000E+03 0.  0.
        -11    1    1    0    0    0 -0.10782105454E+02 -0.36858056307E+02  0.13169825824E+02  0.40598207168E+02  0.51100000000E-03 0.  1.
         11    1    1    0    0    0 -0.58165951541E+01 -0.19883575368E+02  0.71062776043E+01  0.21901792855E+02  0.51100000000E-03 0. -1.
         22    1    1    0    0    0  0.16598700608E+02  0.56741631675E+02 -0.20276103428E+02  0.62499999978E+02  0.00000000000E+00 0.  1.
</event>
<event>
 4    1  0.1976955E-002  0.9118800E+02  0.7818608E-02  0.1130116E+00
         25   -1    0    0    0    0  0.00000000000E+00  0.00000000000E+00  0.99999998245E-14  0.12500000000E+03  0.12500000000E+03 0.  0.
        -11    1    1    0    0    0  0.31764903056E+02  0.80856133067E+01  0.42008659584E+02  0.53283334065E+02  0.51100000000E-03 0. -1.
         11    1    1    0    0    0  0.54839487714E+01  0.14009637296E+01  0.72739680772E+01  0.92166699706E+01  0.51100000000E-03 0.  1.
         22    1    1    0    0    0 -0.37248851828E+02 -0.94865770363E+01 -0.49282627661E+02  0.62499995965E+02  0.00000000000E+00 0. -1.
</event>
<event>
 4    1  0.1976955E-002  0.9118800E+02  0.7818608E-02  0.1130116E+00
         25   -1    0    0    0    0  0.00000000000E+00  0.00000000000E+00  0.99999998245E-14  0.12500000000E+03  0.12500000000E+03 0.  0.
        -11    1    1    0    0    0 -0.26594031355E+02  0.23941314112E+02 -0.10992012297E+02  0.37433318845E+02  0.51100000000E-03 0.  1.
         11    1    1    0    0    0 -0.10928707674E+01  0.27490559698E+02  0.96012928382E+01  0.29139493191E+02  0.51100000000E-03 0. -1.
         22    1    1    0    0    0  0.27686902122E+02 -0.51431873810E+02  0.13907194585E+01  0.58427187964E+02  0.00000000000E+00 0. -1.
</event>
<event>
 4    1  0.1976955E-002  0.9118800E+02  0.7818608E-02  0.1130116E+00
         25   -1    0    0    0    0  0.00000000000E+00  0.00000000000E+00  0.99999998245E-14  0.12500000000E+03  0.12500000000E+03 0.  0.
        -11    1    1    0    0    0  0.12189729191E+02  0.41648226879E+02  0.33584919112E+02  0.54873591936E+02  0.51100000000E-03 0. -1.
         11    1    1    0    0    0  0.16933314736E+01  0.57884689092E+01  0.46677999489E+01  0.76264080940E+01  0.51100000000E-03 0. -1.
         22    1    1    0    0    0 -0.13883060664E+02 -0.47436695788E+02 -0.38252719061E+02  0.62499999970E+02  0.00000000000E+00 0. -1.
</event>
<event>
 4    1  0.1976955E-002  0.9118800E+02  0.7818608E-02  0.1130116E+00
         25   -1    0    0    0    0  0.00000000000E+00  0.00000000000E+00  0.99999998245E-14  0.12500000000E+03  0.12500000000E+03 0.  0.
        -11    1    1    0    0    0 -0.33586134147E+02 -0.11061753245E+01 -0.70247152430E+01  0.34330724654E+02  0.51100000000E-03 0.  1.
         11    1    1    0    0    0 -0.27557726898E+02 -0.90664227138E+00 -0.57669545120E+01  0.28169275400E+02  0.51100000000E-03 0. -1.
         22    1    1    0    0    0  0.61143861044E+02  0.20128175959E+01  0.12791669755E+02  0.62499999946E+02  0.00000000000E+00 0.  1.
</event>
<event>
 4    1  0.1976955E-002  0.9118800E+02  0.7818608E-02  0.1130116E+00
         25   -1    0    0    0    0  0.00000000000E+00  0.00000000000E+00  0.99999998245E-14  0.12500000000E+03  0.12500000000E+03 0.  0.
        -11    1    1    0    0    0  0.27187844864E+01  0.21817449250E+02 -0.13089914713E+02  0.25587863302E+02  0.51100000000E-03 0. -1.
         11    1    1    0    0    0  0.39194110509E+01  0.31474622250E+02 -0.18881001289E+02  0.36912136740E+02  0.51100000000E-03 0. -1.
         22    1    1    0    0    0 -0.66381955373E+01 -0.53292071501E+02  0.31970916002E+02  0.62499999959E+02  0.00000000000E+00 0. -1.
</event>
<event>
 4    1  0.1976955E-002  0.9118800E+02  0.7818608E-02  0.1130116E+00
         25   -1    0    0    0    0  0.00000000000E+00  0.00000000000E+00  0.99999998245E-14  0.12500000000E+03  0.12500000000E+03 0.  0.
        -11    1    1    0    0    0 -0.85508100522E+01  0.38087091940E+01  0.59637198316E+01  0.11099034767E+02  0.51100000000E-03 0. -1.
         11    1    1    0    0    0 -0.40708313249E+02  0.13432980091E+02  0.28393320128E+02  0.51417821325E+02  0.51100000000E-03 0.  1.
         22    1    1    0    0    0  0.49259123301E+02 -0.17241689285E+02 -0.34357039960E+02  0.62483143908E+02  0.00000000000E+00 0.  1.
</event>
<event>
 4    1  0.1976955E-002  0.9118800E+02  0.7818608E-02  0.1130116E+00
         25   -1    0    0    0    0  0.00000000000E+00  0.00000000000E+00  0.99999998245E-14  0.12500000000E+03  0.12500000000E+03 0.  0.
        -11    1    1    0    0    0  0.11514823273E+02 -0.50805801829E+02  0.26259602805E+02  0.58338558384E+02  0.51100000000E-03 0.  1.
         11    1    1    0    0    0  0.83043902576E+00 -0.29884335842E+01  0.28940949194E+01  0.42421869273E+01  0.51100000000E-03 0. -1.
         22    1    1    0    0    0 -0.12345262299E+02  0.53794235413E+02 -0.29153697725E+02  0.62419254689E+02  0.00000000000E+00 0.  1.
</event>
<event>
 4    1  0.1976955E-002  0.9118800E+02  0.7818608E-02  0.1130116E+00
         25   -1    0    0    0    0  0.00000000000E+00  0.00000000000E+00  0.99999998245E-14  0.12500000000E+03  0.12500000000E+03 0.  0.
        -11    1    1    0    0    0  0.39012123463E+02  0.72808645475E+01 -0.35475801341E+02  0.53230529273E+02  0.51100000000E-03 0.  1.
         11    1    1    0    0    0  0.67262636560E+01  0.12214711040E+01 -0.62605301291E+01  0.92697816687E+01  0.51100000000E-03 0. -1.
         22    1    1    0    0    0 -0.45738387119E+02 -0.85023356514E+01  0.41736331470E+02  0.62499689058E+02  0.00000000000E+00 0.  1.
</event>
<event>
 4    1  0.1976955E-002  0.9118800E+02  0.7818608E-02  0.1130116E+00
         25   -1    0    0    0    0  0.00000000000E+00  0.00000000000E+00  0.99999998245E-14  0.12500000000E+03  0.12500000000E+03 0.  0.
        -11    1    1    0    0    0 -0.44150452049E+02 -0.16956756036E+02 -0.28111739279E+02  0.55018759319E+02  0.51100000000E-03 0. -1.
         11    1    1    0    0    0 -0.28242866367E+01  0.18377422978E+01 -0.80997812660E+01  0.87727047469E+01  0.51100000000E-03 0.  1.
         22    1    1    0    0    0  0.46974738686E+02  0.15119013738E+02  0.36211520545E+02  0.61208535934E+02  0.00000000000E+00 0. -1.
</event>
<event>
 4    1  0.1976955E-002  0.9118800E+02  0.7818608E-02  0.1130116E+00
         25   -1    0    0    0    0  0.00000000000E+00  0.00000000000E+00  0.99999998245E-14  0.12500000000E+03  0.12500000000E+03 0.  0.
        -11    1    1    0    0    0  0.18223967429E+02  0.43741920890E+01  0.86749366733E+00  0.18761638809E+02  0.51100000000E-03 0.  1.
         11    1    1    0    0    0  0.42277256362E+02  0.11027062608E+02  0.20473411324E+01  0.43739617297E+02  0.51100000000E-03 0. -1.
         22    1    1    0    0    0 -0.60501223791E+02 -0.15401254697E+02 -0.29148347997E+01  0.62498743894E+02  0.00000000000E+00 0. -1.
</event>
<event>
 4    1  0.1976955E-002  0.9118800E+02  0.7818608E-02  0.1130116E+00
         25   -1    0    0    0    0  0.00000000000E+00  0.00000000000E+00  0.99999998245E-14  0.12500000000E+03  0.12500000000E+03 0.  0.
        -11    1    1    0    0    0 -0.15893147700E+02  0.27140035141E+02 -0.12809370622E+02  0.33959588149E+02  0.51100000000E-03 0.  1.
         11    1    1    0    0    0  0.54768030107E+01 -0.19225256134E+02 -0.35635930629E+02  0.40859826195E+02  0.51100000000E-03 0. -1.
         22    1    1    0    0    0  0.10416344689E+02 -0.79147790073E+01  0.48445301251E+02  0.50180585656E+02  0.00000000000E+00 0. -1.
</event>
<event>
 4    1  0.1976955E-002  0.9118800E+02  0.7818608E-02  0.1130116E+00
         25   -1    0    0    0    0  0.00000000000E+00  0.00000000000E+00  0.99999998245E-14  0.12500000000E+03  0.12500000000E+03 0.  0.
        -11    1    1    0    0    0 -0.69545220852E+01  0.39432899298E+01 -0.69324200187E+01  0.10581746570E+02  0.51100000000E-03 0.  1.
         11    1    1    0    0    0 -0.34121933312E+02  0.19344903798E+02 -0.34014311759E+02  0.51918253443E+02  0.51100000000E-03 0.  1.
         22    1    1    0    0    0  0.41076455397E+02 -0.23288193728E+02  0.40946731777E+02  0.62499999987E+02  0.00000000000E+00 0.  1.
</event>
<event>
 4    1  0.1976955E-002  0.9118800E+02  0.7818608E-02  0.1130116E+00
         25   -1    0    0    0    0  0.00000000000E+00  0.00000000000E+00  0.99999998245E-14  0.12500000000E+03  0.12500000000E+03 0.  0.
        -11    1    1    0    0    0 -0.78964159322E+01  0.34056423907E+02 -0.41433141406E+02  0.54211609466E+02  0.51100000000E-03 0. -1.
         11    1    1    0    0    0 -0.56445506849E+01 -0.52370789639E+01 -0.85614967359E+01  0.11514650456E+02  0.51100000000E-03 0.  1.
         22    1    1    0    0    0  0.13540966617E+02 -0.28819344943E+02  0.49994638141E+02  0.59273740078E+02  0.00000000000E+00 0. -1.
</event>
<event>
 4    1  0.1976955E-002  0.9118800E+02  0.7818608E-02  0.1130116E+00
         25   -1    0    0    0    0  0.00000000000E+00  0.00000000000E+00  0.99999998245E-14  0.12500000000E+03  0.12500000000E+03 0.  0.
        -11    1    1    0    0    0  0.17513200264E+02 -0.17680924471E+02 -0.70796795485E+01  0.25873715165E+02  0.51100000000E-03 0.  1.
         11    1    1    0    0    0  0.24804159230E+02 -0.25020617618E+02 -0.10010354385E+02  0.36626285865E+02  0.51100000000E-03 0. -1.
         22    1    1    0    0    0 -0.42317359494E+02  0.42701542089E+02  0.17090033934E+02  0.62499998970E+02  0.00000000000E+00 0.  1.
</event>
<event>
 4    1  0.1976955E-002  0.9118800E+02  0.7818608E-02  0.1130116E+00
         25   -1    0    0    0    0  0.00000000000E+00  0.00000000000E+00  0.99999998245E-14  0.12500000000E+03  0.12500000000E+03 0.  0.
        -11    1    1    0    0    0  0.38285352660E+02  0.35356911904E+02  0.28278557488E+02  0.59292126472E+02  0.51100000000E-03 0.  1.
         11    1    1    0    0    0  0.20743633085E+01  0.19099595195E+01  0.15295530274E+01  0.32078748770E+01  0.51100000000E-03 0. -1.
         22    1    1    0    0    0 -0.40359715969E+02 -0.37266871424E+02 -0.29808110516E+02  0.62499998651E+02  0.00000000000E+00 0.  1.
</event>
<event>
 4    1  0.1976955E-002  0.9118800E+02  0.7818608E-02  0.1130116E+00
         25   -1    0    0    0    0  0.00000000000E+00  0.00000000000E+00  0.99999998245E-14  0.12500000000E+03  0.12500000000E+03 0.  0.
        -11    1    1    0    0    0  0.31087223384E+01  0.10947812109E+02  0.53037523799E+02  0.54244793994E+02  0.51100000000E-03 0.  1.
         11    1    1    0    0    0  0.31894150753E+00  0.16741760599E+01  0.80780069837E+01  0.82558334682E+01  0.51100000000E-03 0. -1.
         22    1    1    0    0    0 -0.34276638459E+01 -0.12621988169E+02 -0.61115530782E+02  0.62499372537E+02  0.00000000000E+00 0.  1.
</event>
<event>
 4    1  0.1976955E-002  0.9118800E+02  0.7818608E-02  0.1130116E+00
         25   -1    0    0    0    0  0.00000000000E+00  0.00000000000E+00  0.99999998245E-14  0.12500000000E+03  0.12500000000E+03 0.  0.
        -11    1    1    0    0    0  0.25420206464E+02 -0.44158348825E+02  0.60015215894E+01  0.51304628731E+02  0.51100000000E-03 0.  1.
         11    1    1    0    0    0  0.55472294312E+01 -0.96355966348E+01  0.13114352082E+01  0.11195371340E+02  0.51100000000E-03 0. -1.
         22    1    1    0    0    0 -0.30967435895E+02  0.53793945459E+02 -0.73129567976E+01  0.62499999929E+02  0.00000000000E+00 0.  1.
</event>
<event>
 4    1  0.1976955E-002  0.9118800E+02  0.7818608E-02  0.1130116E+00
         25   -1    0    0    0    0  0.00000000000E+00  0.00000000000E+00  0.99999998245E-14  0.12500000000E+03  0.12500000000E+03 0.  0.
        -11    1    1    0    0    0 -0.15205348144E+02  0.98766368444E+01  0.39772658304E+01  0.18562575556E+02  0.51100000000E-03 0. -1.
         11    1    1    0    0    0 -0.35994785570E+02  0.23375551808E+02  0.94051194314E+01  0.43937424621E+02  0.51100000000E-03 0.  1.
         22    1    1    0    0    0  0.51200133714E+02 -0.33252188652E+02 -0.13382385262E+02  0.62499999822E+02  0.00000000000E+00 0.  1.
</event>
<event>
 4    1  0.1976955E-002  0.9118800E+02  0.7818608E-02  0.1130116E+00
         25   -1    0    0    0    0  0.00000000000E+00  0.00000000000E+00  0.99999998245E-14  0.12500000000E+03  0.12500000000E+03 0.  0.
        -11    1    1    0    0    0  0.16891354736E+01  0.64585868323E+01  0.86930808880E+01  0.10960665039E+02  0.51100000000E-03 0.  1.
         11    1    1    0    0    0 -0.30875405788E+02  0.41713179696E+02  0.13300101800E+02  0.53573993234E+02  0.51100000000E-03 0. -1.
         22    1    1    0    0    0  0.29186270314E+02 -0.48171766528E+02 -0.21993182688E+02  0.60465341726E+02  0.00000000000E+00 0. -1.
</event>
<event>
 4    1  0.1976955E-002  0.9118800E+02  0.7818608E-02  0.1130116E+00
         25   -1    0    0    0    0  0.00000000000E+00  0.00000000000E+00  0.99999998245E-14  0.12500000000E+03  0.12500000000E+03 0.  0.
        -11    1    1    0    0    0  0.27289136664E+02 -0.27382525827E+02  0.30271302001E+02  0.49100421848E+02  0.51100000000E-03 0. -1.
         11    1    1    0    0    0 -0.19106708689E+02 -0.11723253327E+01  0.13197442367E+02  0.23251089198E+02  0.51100000000E-03 0.  1.
         22    1    1    0    0    0 -0.81824279758E+01  0.28554851160E+02 -0.43468744367E+02  0.52648488955E+02  0.00000000000E+00 0. -1.
</event>
<event>
 4    1  0.1976955E-002  0.9118800E+02  0.7818608E-02  0.1130116E+00
         25   -1    0    0    0    0  0.00000000000E+00  0.00000000000E+00  0.99999998245E-14  0.12500000000E+03  0.12500000000E+03 0.  0.
        -11    1    1    0    0    0 -0.98002406875E+00 -0.70550076498E-01 -0.42927893900E+02  0.42939137153E+02  0.51100000000E-03 0. -1.
         11    1    1    0    0    0 -0.11167439996E+02  0.84380289374E+01 -0.16032891696E+02  0.21282990034E+02  0.51100000000E-03 0.  1.
         22    1    1    0    0    0  0.12147464064E+02 -0.83674788609E+01  0.58960785595E+02  0.60777872813E+02  0.00000000000E+00 0. -1.
</event>
<event>
 4    1  0.1976955E-002  0.9118800E+02  0.7818608E-02  0.1130116E+00
         25   -1    0    0    0    0  0.00000000000E+00  0.00000000000E+00  0.99999998245E-14  0.12500000000E+03  0.12500000000E+03 0.  0.
        -11    1    1    0    0    0 -0.30190385139E+00  0.59479981211E+01  0.25604073804E+00  0.59611563228E+01  0.51100000000E-03 0.  1.
         11    1    1    0    0    0 -0.28648579408E+01  0.56414058457E+02  0.24264054055E+01  0.56538843692E+02  0.51100000000E-03 0.  1.
         22    1    1    0    0    0  0.31667617922E+01 -0.62362056578E+02 -0.26824461435E+01  0.62499999985E+02  0.00000000000E+00 0.  1.
</event>
<event>
 4    1  0.1976955E-002  0.9118800E+02  0.7818608E-02  0.1130116E+00
         25   -1    0    0    0    0  0.00000000000E+00  0.00000000000E+00  0.99999998245E-14  0.12500000000E+03  0.12500000000E+03 0.  0.
        -11    1    1    0    0    0  0.33519855769E+01  0.39968869575E+02  0.14432179834E+02  0.42626683631E+02  0.51100000000E-03 0.  1.
         11    1    1    0    0    0  0.15178592848E+01  0.18610556519E+02  0.68040292461E+01  0.19873387356E+02  0.51100000000E-03 0. -1.
         22    1    1    0    0    0 -0.48698448616E+01 -0.58579426094E+02 -0.21236209080E+02  0.62499929012E+02  0.00000000000E+00 0. -1.
</event>
<event>
 4    1  0.1976955E-002  0.9118800E+02  0.7818608E-02  0.1130116E+00
         25   -1    0    0    0    0  0.00000000000E+00  0.00000000000E+00  0.99999998245E-14  0.12500000000E+03  0.12500000000E+03 0.  0.
        -11    1    1    0    0    0 -0.19677072339E+02 -0.80964408087E+01 -0.42871795814E+02  0.47861575467E+02  0.51100000000E-03 0. -1.
         11    1    1    0    0    0  0.14337724910E+01 -0.40979927131E+01 -0.14804936559E+02  0.15428395724E+02  0.51100000000E-03 0.  1.
         22    1    1    0    0    0  0.18243299848E+02  0.12194433522E+02  0.57676732374E+02  0.61710028809E+02  0.00000000000E+00 0. -1.
</event>
<event>
 4    1  0.1976955E-002  0.9118800E+02  0.7818608E-02  0.1130116E+00
         25   -1    0    0    0    0  0.00000000000E+00  0.00000000000E+00  0.99999998245E-14  0.12500000000E+03  0.12500000000E+03 0.  0.
        -11    1    1    0    0    0 -0.30687645382E+02 -0.26517271686E+02  0.19794602208E+02  0.45130073716E+02  0.51100000000E-03 0. -1.
         11    1    1    0    0    0 -0.11813170707E+02 -0.10204316323E+02  0.76180882054E+01  0.17369926365E+02  0.51100000000E-03 0.  1.
         22    1    1    0    0    0  0.42500816089E+02  0.36721588010E+02 -0.27412690413E+02  0.62499999919E+02  0.00000000000E+00 0. -1.
</event>
<event>
 4    1  0.1976955E-002  0.9118800E+02  0.7818608E-02  0.1130116E+00
         25   -1    0    0    0    0  0.00000000000E+00  0.00000000000E+00  0.99999998245E-14  0.12500000000E+03  0.12500000000E+03 0.  0.
        -11    1    1    0    0    0  0.20687391348E+02  0.36649467175E+02  0.30850615012E+02  0.52181529796E+02  0.51100000000E-03 0. -1.
         11    1    1    0    0    0  0.40938993711E+01  0.72470596994E+01  0.60984380550E+01  0.10318470493E+02  0.51100000000E-03 0.  1.
         22    1    1    0    0    0 -0.24781290719E+02 -0.43896526874E+02 -0.36949053067E+02  0.62499999711E+02  0.00000000000E+00 0. -1.
</event>
<event>
 4    1  0.1976955E-002  0.9118800E+02  0.7818608E-02  0.1130116E+00
         25   -1    0    0    0    0  0.00000000000E+00  0.00000000000E+00  0.99999998245E-14  0.12500000000E+03  0.12500000000E+03 0.  0.
        -11    1    1    0    0    0  0.95459654460E+00 -0.24691551771E+01  0.33134597405E+00  0.26679153411E+01  0.51100000000E-03 0.  1.
         11    1    1    0    0    0  0.21481866618E+02 -0.55343909387E+02  0.74471201817E+01  0.59832085865E+02  0.51100000000E-03 0. -1.
         22    1    1    0    0    0 -0.22436463163E+02  0.57813064564E+02 -0.77784661557E+01  0.62499998794E+02  0.00000000000E+00 0. -1.
</event>
<event>
 4    1  0.1976955E-002  0.9118800E+02  0.7818608E-02  0.1130116E+00
         25   -1    0    0    0    0  0.00000000000E+00  0.00000000000E+00  0.99999998245E-14  0.12500000000E+03  0.12500000000E+03 0.  0.
        -11    1    1    0    0    0 -0.47342067818E+01 -0.27755210032E+01 -0.52440485529E+01  0.75905385961E+01  0.51100000000E-03 0.  1.
         11    1    1    0    0    0 -0.34250469359E+02 -0.20090276227E+02 -0.37925388832E+02  0.54909461557E+02  0.51100000000E-03 0. -1.
         22    1    1    0    0    0  0.38984676141E+02  0.22865797230E+02  0.43169437385E+02  0.62499999847E+02  0.00000000000E+00 0. -1.
</event>
<event>
 4    1  0.1976955E-002  0.9118800E+02  0.7818608E-02  0.1130116E+00
         25   -1    0    0    0    0  0.00000000000E+00  0.00000000000E+00  0.99999998245E-14  0.12500000000E+03  0.12500000000E+03 0.  0.
        -11    1    1    0    0    0 -0.53687672547E+01 -0.88880206370E+00  0.23653708548E+00  0.54469790707E+01  0.51100000000E-03 0. -1.
         11    1    1    0    0    0 -0.43965678980E+02 -0.36217987402E+02  0.70320370568E+01  0.57394887272E+02  0.51100000000E-03 0.  1.
         22    1    1    0    0    0  0.49334446234E+02  0.37106789465E+02 -0.72685741422E+01  0.62158133657E+02  0.00000000000E+00 0.  1.
</event>
<event>
 4    1  0.1976955E-002  0.9118800E+02  0.7818608E-02  0.1130116E+00
         25   -1    0    0    0    0  0.00000000000E+00  0.00000000000E+00  0.99999998245E-14  0.12500000000E+03  0.12500000000E+03 0.  0.
        -11    1    1    0    0    0  0.31869035150E+02  0.14422485953E+02 -0.31097431908E+02  0.46804847762E+02  0.51100000000E-03 0. -1.
         11    1    1    0    0    0  0.72274385934E+01  0.55868390613E+01 -0.13045270161E+02  0.15925693491E+02  0.51100000000E-03 0.  1.
         22    1    1    0    0    0 -0.39096473743E+02 -0.20009325015E+02  0.44142702070E+02  0.62269458747E+02  0.00000000000E+00 0. -1.
</event>
<event>
 4    1  0.1976955E-002  0.9118800E+02  0.7818608E-02  0.1130116E+00
         25   -1    0    0    0    0  0.00000000000E+00  0.00000000000E+00  0.99999998245E-14  0.12500000000E+03  0.12500000000E+03 0.  0.
        -11    1    1    0    0    0  0.25125495472E+02 -0.42187449188E+01 -0.24028618736E+02  0.35020891623E+02  0.51100000000E-03 0. -1.
         11    1    1    0    0    0  0.20095370809E+02 -0.39503030612E+01 -0.18327726937E+02  0.27483347634E+02  0.51100000000E-03 0.  1.
         22    1    1    0    0    0 -0.45220866281E+02  0.81690479799E+01  0.42356345673E+02  0.62495760743E+02  0.00000000000E+00 0. -1.
</event>
<event>
 4    1  0.1976955E-002  0.9118800E+02  0.7818608E-02  0.1130116E+00
         25   -1    0    0    0    0  0.00000000000E+00  0.00000000000E+00  0.99999998245E-14  0.12500000000E+03  0.12500000000E+03 0.  0.
        -11    1    1    0    0    0  0.18270738834E+02  0.13810165966E+02 -0.35249381854E+02  0.42036406874E+02  0.51100000000E-03 0.  1.
         11    1    1    0    0    0  0.88128645338E+01  0.66921115729E+01 -0.17213693308E+02  0.20463679438E+02  0.51100000000E-03 0. -1.
         22    1    1    0    0    0 -0.27083603368E+02 -0.20502277539E+02  0.52463075161E+02  0.62499913688E+02  0.00000000000E+00 0.  1.
</event>
<event>
 4    1  0.1976955E-002  0.9118800E+02  0.7818608E-02  0.1130116E+00
         25   -1    0    0    0    0  0.00000000000E+00  0.00000000000E+00  0.99999998245E-14  0.12500000000E+03  0.12500000000E+03 0.  0.
        -11    1    1    0    0    0  0.81374196504E+01 -0.35071400696E+02 -0.27927252761E+02  0.45564813095E+02  0.51100000000E-03 0.  1.
         11    1    1    0    0    0  0.27584738364E+01 -0.12821751474E+02 -0.10718123566E+02  0.16937669905E+02  0.51100000000E-03 0. -1.
         22    1    1    0    0    0 -0.10895893487E+02  0.47893152170E+02  0.38645376327E+02  0.62497517000E+02  0.00000000000E+00 0.  1.
</event>
<event>
 4    1  0.1976955E-002  0.9118800E+02  0.7818608E-02  0.1130116E+00
         25   -1    0    0    0    0  0.00000000000E+00  0.00000000000E+00  0.99999998245E-14  0.12500000000E+03  0.12500000000E+03 0.  0.
        -11    1    1    0    0    0  0.65169362881E+01  0.25560111444E+01 -0.75796221522E+01  0.10317670463E+02  0.51100000000E-03 0.  1.
         11    1    1    0    0    0  0.42090471394E+02  0.17364062303E+02 -0.25906935206E+02  0.52385949775E+02  0.51100000000E-03 0. -1.
         22    1    1    0    0    0 -0.48607407682E+02 -0.19920073447E+02  0.33486557358E+02  0.62296379762E+02  0.00000000000E+00 0. -1.
</event>
<event>
 4    1  0.1976955E-002  0.9118800E+02  0.7818608E-02  0.1130116E+00
         25   -1    0    0    0    0  0.00000000000E+00  0.00000000000E+00  0.99999998245E-14  0.12500000000E+03  0.12500000000E+03 0.  0.
        -11    1    1    0    0    0 -0.13934586630E+02  0.47622718399E+02 -0.52324759207E+01  0.49894637155E+02  0.51100000000E-03 0. -1.
         11    1    1    0    0    0 -0.35199557700E+01  0.12031621640E+02 -0.13210468870E+01  0.12605362869E+02  0.51100000000E-03 0. -1.
         22    1    1    0    0    0  0.17454542400E+02 -0.59654340039E+02  0.65535228077E+01  0.62499999977E+02  0.00000000000E+00 0. -1.
</event>
<event>
 4    1  0.1976955E-002  0.9118800E+02  0.7818608E-02  0.1130116E+00
         25   -1    0    0    0    0  0.00000000000E+00  0.00000000000E+00  0.99999998245E-14  0.12500000000E+03  0.12500000000E+03 0.  0.
        -11    1    1    0    0    0  0.41921177525E+02 -0.28264153371E+02  0.12227289231E+02  0.52016863545E+02  0.51100000000E-03 0. -1.
         11    1    1    0    0    0  0.84747133421E+01 -0.56572616218E+01  0.24640799731E+01  0.10483180131E+02  0.51100000000E-03 0.  1.
         22    1    1    0    0    0 -0.50395890867E+02  0.33921414993E+02 -0.14691369204E+02  0.62499956324E+02  0.00000000000E+00 0. -1.
</event>
<event>
 4    1  0.1976955E-002  0.9118800E+02  0.7818608E-02  0.1130116E+00
         25   -1    0    0    0    0  0.00000000000E+00  0.00000000000E+00  0.99999998245E-14  0.12500000000E+03  0.12500000000E+03 0.  0.
        -11    1    1    0    0    0  0.87030734169E+00  0.51540048381E+00 -0.61754962604E+01  0.62577813042E+01  0.51100000000E-03 0.  1.
         11    1    1    0    0    0  0.62978374452E+01  0.70688768349E+01 -0.55443386509E+02  0.56245896597E+02  0.51100000000E-03 0. -1.
         22    1    1    0    0    0 -0.71681447869E+01 -0.75842773187E+01  0.61618882769E+02  0.62496322099E+02  0.00000000000E+00 0. -1.
</event>
<event>
 4    1  0.1976955E-002  0.9118800E+02  0.7818608E-02  0.1130116E+00
         25   -1    0    0    0    0  0.00000000000E+00  0.00000000000E+00  0.99999998245E-14  0.12500000000E+03  0.12500000000E+03 0.  0.
        -11    1    1    0    0    0 -0.16228910412E+02  0.14382682549E+02 -0.85816378727E+01  0.23321312127E+02  0.51100000000E-03 0.  1.
         11    1    1    0    0    0  0.24799565750E+02  0.12847140884E+02  0.46483521256E+02  0.54229007357E+02  0.51100000000E-03 0. -1.
         22    1    1    0    0    0 -0.85706553381E+01 -0.27229823433E+02 -0.37901883383E+02  0.47449680516E+02  0.00000000000E+00 0. -1.
</event>
<event>
 4    1  0.1976955E-002  0.9118800E+02  0.7818608E-02  0.1130116E+00
         25   -1    0    0    0    0  0.00000000000E+00  0.00000000000E+00  0.99999998245E-14  0.12500000000E+03  0.12500000000E+03 0.  0.
        -11    1    1    0    0    0 -0.50237176208E+02 -0.34008133200E+02  0.63348103882E+01  0.60995547542E+02  0.51100000000E-03 0. -1.
         11    1    1    0    0    0 -0.97532698053E+00 -0.89538924828E+00  0.91036868715E+00  0.16067843765E+01  0.51100000000E-03 0.  1.
         22    1    1    0    0    0  0.51212503188E+02  0.34903522449E+02 -0.72451790754E+01  0.62397668081E+02  0.00000000000E+00 0. -1.
</event>
<event>
 4    1  0.1976955E-002  0.9118800E+02  0.7818608E-02  0.1130116E+00
         25   -1    0    0    0    0  0.00000000000E+00  0.00000000000E+00  0.99999998245E-14  0.12500000000E+03  0.12500000000E+03 0.  0.
        -11    1    1    0    0    0 -0.18488882436E+02 -0.11488891743E+02  0.96756657335E+01  0.23821249230E+02  0.51100000000E-03 0.  1.
         11    1    1    0    0    0 -0.20445212735E+02 -0.16127933485E+02  0.29556077860E+02  0.39391353125E+02  0.51100000000E-03 0. -1.
         22    1    1    0    0    0  0.38934095172E+02  0.27616825228E+02 -0.39231743593E+02  0.61787397646E+02  0.00000000000E+00 0. -1.
</event>
<event>
 4    1  0.1976955E-002  0.9118800E+02  0.7818608E-02  0.1130116E+00
         25   -1    0    0    0    0  0.00000000000E+00  0.00000000000E+00  0.99999998245E-14  0.12500000000E+03  0.12500000000E+03 0.  0.
        -11    1    1    0    0    0  0.54951125793E+00 -0.45809758304E+01  0.45506379807E+01  0.64804018760E+01  0.51100000000E-03 0. -1.
         11    1    1    0    0    0  0.48636919808E+01 -0.39630023031E+02  0.39293790404E+02  0.56019605404E+02  0.51100000000E-03 0.  1.
         22    1    1    0    0    0 -0.54132032387E+01  0.44210998861E+02 -0.43844428385E+02  0.62499992720E+02  0.00000000000E+00 0.  1.
</event>
<event>
 4    1  0.1976955E-002  0.9118800E+02  0.7818608E-02  0.1130116E+00
         25   -1    0    0    0    0  0.00000000000E+00  0.00000000000E+00  0.99999998245E-14  0.12500000000E+03  0.12500000000E+03 0.  0.
        -11    1    1    0    0    0  0.15811611379E+02 -0.31002424111E+02  0.32505161869E+01  0.34953157381E+02  0.51100000000E-03 0. -1.
         11    1    1    0    0    0  0.12459175623E+02 -0.24434612479E+02  0.25587493671E+01  0.27546842701E+02  0.51100000000E-03 0.  1.
         22    1    1    0    0    0 -0.28270787002E+02  0.55437036590E+02 -0.58092655540E+01  0.62499999919E+02  0.00000000000E+00 0.  1.
</event>
<event>
 4    1  0.1976955E-002  0.9118800E+02  0.7818608E-02  0.1130116E+00
         25   -1    0    0    0    0  0.00000000000E+00  0.00000000000E+00  0.99999998245E-14  0.12500000000E+03  0.12500000000E+03 0.  0.
        -11    1    1    0    0    0 -0.23919787197E+02  0.25877069178E+02 -0.45194056886E+02  0.57308652984E+02  0.51100000000E-03 0. -1.
         11    1    1    0    0    0 -0.21662082999E+01  0.23448117392E+01 -0.40938348312E+01  0.51913470677E+01  0.51100000000E-03 0. -1.
         22    1    1    0    0    0  0.26085995497E+02 -0.28221880918E+02  0.49287891717E+02  0.62499999948E+02  0.00000000000E+00 0. -1.
</event>
<event>
 4    1  0.1976955E-002  0.9118800E+02  0.7818608E-02  0.1130116E+00
         25   -1    0    0    0    0  0.00000000000E+00  0.00000000000E+00  0.99999998245E-14  0.12500000000E+03  0.12500000000E+03 0.  0.
        -11    1    1    0    0    0  0.17481116721E+01 -0.26030160254E+01 -0.43693322575E+01  0.53779783826E+01  0.51100000000E-03 0. -1.
         11    1    1    0    0    0  0.18609987395E+02 -0.27640543486E+02 -0.46396057663E+02  0.57122022391E+02  0.51100000000E-03 0.  1.
         22    1    1    0    0    0 -0.20358099067E+02  0.30243559512E+02  0.50765389921E+02  0.62499999227E+02  0.00000000000E+00 0.  1.
</event>
<event>
 4    1  0.1976955E-002  0.9118800E+02  0.7818608E-02  0.1130116E+00
         25   -1    0    0    0    0  0.00000000000E+00  0.00000000000E+00  0.99999998245E-14  0.12500000000E+03  0.12500000000E+03 0.  0.
        -11    1    1    0    0    0 -0.62317932917E+01  0.55757223532E+02  0.26736934457E+02  0.62149552597E+02  0.51100000000E-03 0. -1.
         11    1    1    0    0    0 -0.32679180595E-01  0.31536893903E+00  0.14930601677E+00  0.35045405450E+00  0.51100000000E-03 0.  1.
         22    1    1    0    0    0  0.62644724723E+01 -0.56072592471E+02 -0.26886240474E+02  0.62499993348E+02  0.00000000000E+00 0. -1.
</event>
<event>
 4    1  0.1976955E-002  0.9118800E+02  0.7818608E-02  0.1130116E+00
         25   -1    0    0    0    0  0.00000000000E+00  0.00000000000E+00  0.99999998245E-14  0.12500000000E+03  0.12500000000E+03 0.  0.
        -11    1    1    0    0    0  0.10571320086E+02  0.16749599199E+01  0.42881318173E+00  0.10711777635E+02  0.51100000000E-03 0. -1.
         11    1    1    0    0    0  0.51001026100E+02  0.88383490438E+01  0.16909758695E+01  0.51788806481E+02  0.51100000000E-03 0.  1.
         22    1    1    0    0    0 -0.61572346186E+02 -0.10513308964E+02 -0.21197890512E+01  0.62499415884E+02  0.00000000000E+00 0.  1.
</event>
<event>
 4    1  0.1976955E-002  0.9118800E+02  0.7818608E-02  0.1130116E+00
         25   -1    0    0    0    0  0.00000000000E+00  0.00000000000E+00  0.99999998245E-14  0.12500000000E+03  0.12500000000E+03 0.  0.
        -11    1    1    0    0    0 -0.31379258995E+01 -0.14504345277E+02 -0.50599389876E+02  0.52730644477E+02  0.51100000000E-03 0. -1.
         11    1    1    0    0    0 -0.46437341203E-01 -0.18645551310E+01 -0.96120688079E+01  0.97913527816E+01  0.51100000000E-03 0.  1.
         22    1    1    0    0    0  0.31843632407E+01  0.16368900408E+02  0.60211458684E+02  0.62478002742E+02  0.00000000000E+00 0. -1.
</event>
<event>
 4    1  0.1976955E-002  0.9118800E+02  0.7818608E-02  0.1130116E+00
         25   -1    0    0    0    0  0.00000000000E+00  0.00000000000E+00  0.99999998245E-14  0.12500000000E+03  0.12500000000E+03 0.  0.
        -11    1    1    0    0    0 -0.11385152591E+02  0.58354536399E+01  0.10160815118E+01  0.12833808499E+02  0.51100000000E-03 0. -1.
         11    1    1    0    0    0 -0.44125027547E+02  0.22470679456E+02  0.38449442897E+01  0.49666216768E+02  0.51100000000E-03 0.  1.
         22    1    1    0    0    0  0.55510180137E+02 -0.28306133096E+02 -0.48610258015E+01  0.62499974733E+02  0.00000000000E+00 0. -1.
</event>
<event>
 4    1  0.1976955E-002  0.9118800E+02  0.7818608E-02  0.1130116E+00
         25   -1    0    0    0    0  0.00000000000E+00  0.00000000000E+00  0.99999998245E-14  0.12500000000E+03  0.12500000000E+03 0.  0.
        -11    1    1    0    0    0 -0.85600360617E+01  0.20764799171E+02  0.32219862062E+02  0.39275572733E+02  0.51100000000E-03 0.  1.
         11    1    1    0    0    0 -0.52529341406E+01  0.12224990052E+02  0.19035304195E+02  0.23224696013E+02  0.51100000000E-03 0. -1.
         22    1    1    0    0    0  0.13812970202E+02 -0.32989789222E+02 -0.51255166257E+02  0.62499731254E+02  0.00000000000E+00 0.  1.
</event>
<event>
 4    1  0.1976955E-002  0.9118800E+02  0.7818608E-02  0.1130116E+00
         25   -1    0    0    0    0  0.00000000000E+00  0.00000000000E+00  0.99999998245E-14  0.12500000000E+03  0.12500000000E+03 0.  0.
        -11    1    1    0    0    0  0.24464330341E+01 -0.24960533810E+01  0.21003837981E+01  0.40776132028E+01  0.51100000000E-03 0.  1.
         11    1    1    0    0    0  0.34844294275E+02 -0.36891838724E+02  0.28950445607E+02  0.58423119645E+02  0.51100000000E-03 0. -1.
         22    1    1    0    0    0 -0.37290727309E+02  0.39387892106E+02 -0.31050829405E+02  0.62499267152E+02  0.00000000000E+00 0. -1.
</event>
<event>
 4    1  0.1976955E-002  0.9118800E+02  0.7818608E-02  0.1130116E+00
         25   -1    0    0    0    0  0.00000000000E+00  0.00000000000E+00  0.99999998245E-14  0.12500000000E+03  0.12500000000E+03 0.  0.
        -11    1    1    0    0    0 -0.11457551977E+02 -0.69292969585E+01  0.11394682561E+01  0.13438342227E+02  0.51100000000E-03 0. -1.
         11    1    1    0    0    0  0.14943178280E+02 -0.51190014148E+02  0.13320128383E-01  0.53326506573E+02  0.51100000000E-03 0.  1.
         22    1    1    0    0    0 -0.34856263028E+01  0.58119311107E+02 -0.11527883845E+01  0.58235151200E+02  0.00000000000E+00 0.  1.
</event>
<event>
 4    1  0.1976955E-002  0.9118800E+02  0.7818608E-02  0.1130116E+00
         25   -1    0    0    0    0  0.00000000000E+00  0.00000000000E+00  0.99999998245E-14  0.12500000000E+03  0.12500000000E+03 0.  0.
        -11    1    1    0    0    0 -0.90308889011E+01 -0.24539786212E+02 -0.31618453631E+02  0.41030289689E+02  0.51100000000E-03 0. -1.
         11    1    1    0    0    0 -0.47071069448E+01 -0.12848273747E+02 -0.16544291968E+02  0.21469713343E+02  0.51100000000E-03 0.  1.
         22    1    1    0    0    0  0.13737995846E+02  0.37388059959E+02  0.48162745599E+02  0.62499996968E+02  0.00000000000E+00 0. -1.
</event>
<event>
 4    1  0.1976955E-002  0.9118800E+02  0.7818608E-02  0.1130116E+00
         25   -1    0    0    0    0  0.00000000000E+00  0.00000000000E+00  0.99999998245E-14  0.12500000000E+03  0.12500000000E+03 0.  0.
        -11    1    1    0    0    0  0.70442140378E+01 -0.68685067559E+01 -0.38985774574E+01  0.10582827737E+02  0.51100000000E-03 0.  1.
         11    1    1    0    0    0  0.35651013099E+02 -0.32663225980E+02 -0.18913143345E+02  0.51919052937E+02  0.51100000000E-03 0. -1.
         22    1    1    0    0    0 -0.42695227137E+02  0.39531732736E+02  0.22811720802E+02  0.62498119326E+02  0.00000000000E+00 0. -1.
</event>
<event>
 4    1  0.1976955E-002  0.9118800E+02  0.7818608E-02  0.1130116E+00
         25   -1    0    0    0    0  0.00000000000E+00  0.00000000000E+00  0.99999998245E-14  0.12500000000E+03  0.12500000000E+03 0.  0.
        -11    1    1    0    0    0 -0.39882654621E+01 -0.40586650552E+01  0.11619545123E+02  0.12938038976E+02  0.51100000000E-03 0.  1.
         11    1    1    0    0    0 -0.13690660686E+02 -0.17456055466E+02  0.44326980718E+02  0.49568430298E+02  0.51100000000E-03 0. -1.
         22    1    1    0    0    0  0.17678926148E+02  0.21514720521E+02 -0.55946525841E+02  0.62493530725E+02  0.00000000000E+00 0. -1.
</event>
<event>
 4    1  0.1976955E-002  0.9118800E+02  0.7818608E-02  0.1130116E+00
         25   -1    0    0    0    0  0.00000000000E+00  0.00000000000E+00  0.99999998245E-14  0.12500000000E+03  0.12500000000E+03 0.  0.
        -11    1    1    0    0    0  0.49551419620E-01 -0.37126292869E+01  0.38682647983E+01  0.53618601601E+01  0.51100000000E-03 0.  1.
         11    1    1    0    0    0  0.40803847566E+02 -0.14836668431E+02  0.38425336295E+02  0.57979196061E+02  0.51100000000E-03 0. -1.
         22    1    1    0    0    0 -0.40853398985E+02  0.18549297718E+02 -0.42293601093E+02  0.61658943779E+02  0.00000000000E+00 0. -1.
</event>
<event>
 4    1  0.1976955E-002  0.9118800E+02  0.7818608E-02  0.1130116E+00
         25   -1    0    0    0    0  0.00000000000E+00  0.00000000000E+00  0.99999998245E-14  0.12500000000E+03  0.12500000000E+03 0.  0.
        -11    1    1    0    0    0  0.34538147401E+02 -0.30449940398E+02  0.33478302669E+02  0.56928720748E+02  0.51100000000E-03 0. -1.
         11    1    1    0    0    0 -0.11651658462E+02  0.65213573715E+01  0.75573118932E+01  0.15342822758E+02  0.51100000000E-03 0.  1.
         22    1    1    0    0    0 -0.22886488939E+02  0.23928583027E+02 -0.41035614562E+02  0.52728456493E+02  0.00000000000E+00 0. -1.
</event>
<event>
 4    1  0.1976955E-002  0.9118800E+02  0.7818608E-02  0.1130116E+00
         25   -1    0    0    0    0  0.00000000000E+00  0.00000000000E+00  0.99999998245E-14  0.12500000000E+03  0.12500000000E+03 0.  0.
        -11    1    1    0    0    0  0.34113674930E+01  0.17103693868E+02  0.35679048218E+01  0.17801789719E+02  0.51100000000E-03 0.  1.
         11    1    1    0    0    0  0.85562386796E+01  0.42951062856E+02  0.89401927759E+01  0.44698211015E+02  0.51100000000E-03 0. -1.
         22    1    1    0    0    0 -0.11967606173E+02 -0.60054756725E+02 -0.12508097598E+02  0.62499999266E+02  0.00000000000E+00 0. -1.
</event>
<event>
 4    1  0.1976955E-002  0.9118800E+02  0.7818608E-02  0.1130116E+00
         25   -1    0    0    0    0  0.00000000000E+00  0.00000000000E+00  0.99999998245E-14  0.12500000000E+03  0.12500000000E+03 0.  0.
        -11    1    1    0    0    0 -0.43448855839E+02  0.12815841322E+02 -0.13586445718E+02  0.47293132377E+02  0.51100000000E-03 0.  1.
         11    1    1    0    0    0  0.16871388304E+01  0.16980805992E+02 -0.11522123766E+02  0.20590132246E+02  0.51100000000E-03 0. -1.
         22    1    1    0    0    0  0.41761717008E+02 -0.29796647314E+02  0.25108569484E+02  0.57116735377E+02  0.00000000000E+00 0.  1.
</event>
<event>
 4    1  0.1976955E-002  0.9118800E+02  0.7818608E-02  0.1130116E+00
         25   -1    0    0    0    0  0.00000000000E+00  0.00000000000E+00  0.99999998245E-14  0.12500000000E+03  0.12500000000E+03 0.  0.
        -11    1    1    0    0    0  0.15427435479E+02  0.95989270407E+00  0.52851353174E+01  0.16335844485E+02  0.51100000000E-03 0.  1.
         11    1    1    0    0    0  0.43663943922E+02  0.29396453839E+01  0.14695665312E+02  0.46164316230E+02  0.51100000000E-03 0. -1.
         22    1    1    0    0    0 -0.59091379401E+02 -0.38995380879E+01 -0.19980800629E+02  0.62499839284E+02  0.00000000000E+00 0. -1.
</event>
<event>
 4    1  0.1976955E-002  0.9118800E+02  0.7818608E-02  0.1130116E+00
         25   -1    0    0    0    0  0.00000000000E+00  0.00000000000E+00  0.99999998245E-14  0.12500000000E+03  0.12500000000E+03 0.  0.
        -11    1    1    0    0    0 -0.52257784501E+01 -0.21799261268E+01  0.30084438906E+01  0.64118307239E+01  0.51100000000E-03 0.  1.
         11    1    1    0    0    0 -0.45714203353E+02 -0.19067442073E+02  0.26315907709E+02  0.56088169290E+02  0.51100000000E-03 0.  1.
         22    1    1    0    0    0  0.50939981803E+02  0.21247368200E+02 -0.29324351600E+02  0.62499999986E+02  0.00000000000E+00 0.  1.
</event>
<event>
 4    1  0.1976955E-002  0.9118800E+02  0.7818608E-02  0.1130116E+00
         25   -1    0    0    0    0  0.00000000000E+00  0.00000000000E+00  0.99999998245E-14  0.12500000000E+03  0.12500000000E+03 0.  0.
        -11    1    1    0    0    0 -0.24314041828E+02 -0.15847634101E+02 -0.13968928000E+02  0.32209487521E+02  0.51100000000E-03 0. -1.
         11    1    1    0    0    0  0.36100437145E+02  0.23565789364E+02 -0.26045570218E+02  0.50368241171E+02  0.51100000000E-03 0.  1.
         22    1    1    0    0    0 -0.11786395317E+02 -0.77181552629E+01  0.40014498219E+02  0.42422271308E+02  0.00000000000E+00 0.  1.
</event>
<event>
 4    1  0.1976955E-002  0.9118800E+02  0.7818608E-02  0.1130116E+00
         25   -1    0    0    0    0  0.00000000000E+00  0.00000000000E+00  0.99999998245E-14  0.12500000000E+03  0.12500000000E+03 0.  0.
        -11    1    1    0    0    0  0.26126692934E+01 -0.31488922167E+02  0.16851413907E+02  0.35809892641E+02  0.51100000000E-03 0. -1.
         11    1    1    0    0    0 -0.38838227019E+02  0.18173249673E+02  0.75339323796E+01  0.43536594022E+02  0.51100000000E-03 0.  1.
         22    1    1    0    0    0  0.36225557726E+02  0.13315672494E+02 -0.24385346287E+02  0.45653513337E+02  0.00000000000E+00 0. -1.
</event>
<event>
 4    1  0.1976955E-002  0.9118800E+02  0.7818608E-02  0.1130116E+00
         25   -1    0    0    0    0  0.00000000000E+00  0.00000000000E+00  0.99999998245E-14  0.12500000000E+03  0.12500000000E+03 0.  0.
        -11    1    1    0    0    0 -0.61643108631E+01 -0.48415678800E+02  0.13846213523E+02  0.50732576431E+02  0.51100000000E-03 0. -1.
         11    1    1    0    0    0 -0.14295258491E+01 -0.11241547569E+02  0.31712830379E+01  0.11767453942E+02  0.51100000000E-03 0.  1.
         22    1    1    0    0    0  0.75938367122E+01  0.59657226370E+02 -0.17017496561E+02  0.62499969627E+02  0.00000000000E+00 0. -1.
</event>
<event>
 4    1  0.1976955E-002  0.9118800E+02  0.7818608E-02  0.1130116E+00
         25   -1    0    0    0    0  0.00000000000E+00  0.00000000000E+00  0.99999998245E-14  0.12500000000E+03  0.12500000000E+03 0.  0.
        -11    1    1    0    0    0  0.18329341544E+02 -0.18957811029E+02  0.18834329803E+02  0.32405174585E+02  0.51100000000E-03 0.  1.
         11    1    1    0    0    0  0.10211251977E+02 -0.88489207801E+01  0.28008016451E+02  0.31096978176E+02  0.51100000000E-03 0. -1.
         22    1    1    0    0    0 -0.28540593521E+02  0.27806731810E+02 -0.46842346254E+02  0.61497847239E+02  0.00000000000E+00 0.  1.
</event>
<event>
 4    1  0.1976955E-002  0.9118800E+02  0.7818608E-02  0.1130116E+00
         25   -1    0    0    0    0  0.00000000000E+00  0.00000000000E+00  0.99999998245E-14  0.12500000000E+03  0.12500000000E+03 0.  0.
        -11    1    1    0    0    0  0.14836070078E+02  0.23317672114E+02 -0.11746648076E+02  0.30030094064E+02  0.51100000000E-03 0.  1.
         11    1    1    0    0    0  0.33985346861E+01  0.27774406423E+02 -0.17833024237E+02  0.33181085634E+02  0.51100000000E-03 0. -1.
         22    1    1    0    0    0 -0.18234604764E+02 -0.51092078537E+02  0.29579672313E+02  0.61788820302E+02  0.00000000000E+00 0. -1.
</event>
<event>
 4    1  0.1976955E-002  0.9118800E+02  0.7818608E-02  0.1130116E+00
         25   -1    0    0    0    0  0.00000000000E+00  0.00000000000E+00  0.99999998245E-14  0.12500000000E+03  0.12500000000E+03 0.  0.
        -11    1    1    0    0    0 -0.23161334637E+01  0.42265452166E+01  0.11393631121E+02  0.12371054485E+02  0.51100000000E-03 0.  1.
         11    1    1    0    0    0 -0.93048404609E+01  0.16819698040E+02  0.46297305319E+02  0.50129061214E+02  0.51100000000E-03 0. -1.
         22    1    1    0    0    0  0.11620973925E+02 -0.21046243257E+02 -0.57690936440E+02  0.62499884300E+02  0.00000000000E+00 0. -1.
</event>
<event>
 4    1  0.1976955E-002  0.9118800E+02  0.7818608E-02  0.1130116E+00
         25   -1    0    0    0    0  0.00000000000E+00  0.00000000000E+00  0.99999998245E-14  0.12500000000E+03  0.12500000000E+03 0.  0.
        -11    1    1    0    0    0 -0.28790169277E+02  0.55055762851E+01  0.26942004904E+02  0.39812772394E+02  0.51100000000E-03 0. -1.
         11    1    1    0    0    0 -0.16405693674E+02  0.31373441461E+01  0.15353194561E+02  0.22687227612E+02  0.51100000000E-03 0. -1.
         22    1    1    0    0    0  0.45195862951E+02 -0.86429204312E+01 -0.42295199465E+02  0.62499999994E+02  0.00000000000E+00 0. -1.
</event>
<event>
 4    1  0.1976955E-002  0.9118800E+02  0.7818608E-02  0.1130116E+00
         25   -1    0    0    0    0  0.00000000000E+00  0.00000000000E+00  0.99999998245E-14  0.12500000000E+03  0.12500000000E+03 0.  0.
        -11    1    1    0    0    0  0.20669258099E+00  0.24529254114E+00 -0.61634209897E+00  0.69481515374E+00  0.51100000000E-03 0. -1.
         11    1    1    0    0    0  0.21331375419E+02  0.23943114861E+02 -0.52836311790E+02  0.61805955783E+02  0.51100000000E-03 0.  1.
         22    1    1    0    0    0 -0.21538067999E+02 -0.24188407402E+02  0.53452653888E+02  0.62499229063E+02  0.00000000000E+00 0.  1.
</event>
<event>
 4    1  0.1976955E-002  0.9118800E+02  0.7818608E-02  0.1130116E+00
         25   -1    0    0    0    0  0.00000000000E+00  0.00000000000E+00  0.99999998245E-14  0.12500000000E+03  0.12500000000E+03 0.  0.
        -11    1    1    0    0    0  0.31186564393E+02 -0.12082140265E+02 -0.26524378583E+02  0.42686327688E+02  0.51100000000E-03 0. -1.
         11    1    1    0    0    0  0.14500896341E+02 -0.55824473620E+01 -0.12294000384E+02  0.19813686152E+02  0.51100000000E-03 0.  1.
         22    1    1    0    0    0 -0.45687460733E+02  0.17664587627E+02  0.38818378968E+02  0.62499986160E+02  0.00000000000E+00 0. -1.
</event>
<event>
 4    1  0.1976955E-002  0.9118800E+02  0.7818608E-02  0.1130116E+00
         25   -1    0    0    0    0  0.00000000000E+00  0.00000000000E+00  0.99999998245E-14  0.12500000000E+03  0.12500000000E+03 0.  0.
        -11    1    1    0    0    0  0.40448077913E+01 -0.11382342777E+01 -0.15194613503E+01  0.44681999056E+01  0.51100000000E-03 0. -1.
         11    1    1    0    0    0  0.52524057908E+02 -0.14669270110E+02 -0.19842544274E+02  0.58031807728E+02  0.51100000000E-03 0.  1.
         22    1    1    0    0    0 -0.56568865700E+02  0.15807504388E+02  0.21362005624E+02  0.62499992366E+02  0.00000000000E+00 0.  1.
</event>
<event>
 4    1  0.1976955E-002  0.9118800E+02  0.7818608E-02  0.1130116E+00
         25   -1    0    0    0    0  0.00000000000E+00  0.00000000000E+00  0.99999998245E-14  0.12500000000E+03  0.12500000000E+03 0.  0.
        -11    1    1    0    0    0  0.38291471971E+02  0.36987496537E+02 -0.23718031216E+02  0.58282559405E+02  0.51100000000E-03 0.  1.
         11    1    1    0    0    0  0.26198661562E+01  0.25381985419E+01 -0.21411300245E+01  0.42297267710E+01  0.51100000000E-03 0. -1.
         22    1    1    0    0    0 -0.40911338128E+02 -0.39525695079E+02  0.25859161240E+02  0.62487713824E+02  0.00000000000E+00 0.  1.
</event>
<event>
 4    1  0.1976955E-002  0.9118800E+02  0.7818608E-02  0.1130116E+00
         25   -1    0    0    0    0  0.00000000000E+00  0.00000000000E+00  0.99999998245E-14  0.12500000000E+03  0.12500000000E+03 0.  0.
        -11    1    1    0    0    0  0.18800865622E+02 -0.38319565828E+02  0.21980426287E+02  0.48010424008E+02  0.51100000000E-03 0.  1.
         11    1    1    0    0    0  0.11987874841E+02 -0.23586671000E+01  0.10835437223E+02  0.16330313952E+02  0.51100000000E-03 0. -1.
         22    1    1    0    0    0 -0.30788740462E+02  0.40678232928E+02 -0.32815863510E+02  0.60659262041E+02  0.00000000000E+00 0.  1.
</event>
<event>
 4    1  0.1976955E-002  0.9118800E+02  0.7818608E-02  0.1130116E+00
         25   -1    0    0    0    0  0.00000000000E+00  0.00000000000E+00  0.99999998245E-14  0.12500000000E+03  0.12500000000E+03 0.  0.
        -11    1    1    0    0    0 -0.24382735231E+02  0.10670020367E+02  0.23640418569E+02  0.35598265440E+02  0.51100000000E-03 0. -1.
         11    1    1    0    0    0 -0.16735150317E+02  0.74977591656E+01  0.19731184269E+02  0.26936987240E+02  0.51100000000E-03 0.  1.
         22    1    1    0    0    0  0.41117885548E+02 -0.18167779533E+02 -0.43371602838E+02  0.62464747320E+02  0.00000000000E+00 0. -1.
</event>
<event>
 4    1  0.1976955E-002  0.9118800E+02  0.7818608E-02  0.1130116E+00
         25   -1    0    0    0    0  0.00000000000E+00  0.00000000000E+00  0.99999998245E-14  0.12500000000E+03  0.12500000000E+03 0.  0.
        -11    1    1    0    0    0 -0.18313602445E+02 -0.39739529464E+02 -0.67594553867E+01  0.44275370963E+02  0.51100000000E-03 0. -1.
         11    1    1    0    0    0 -0.10943892691E+02 -0.14720112669E+02 -0.12584834679E+01  0.18385708719E+02  0.51100000000E-03 0.  1.
         22    1    1    0    0    0  0.29257495136E+02  0.54459642133E+02  0.80179388547E+01  0.62338920317E+02  0.00000000000E+00 0. -1.
</event>
<event>
 4    1  0.1976955E-002  0.9118800E+02  0.7818608E-02  0.1130116E+00
         25   -1    0    0    0    0  0.00000000000E+00  0.00000000000E+00  0.99999998245E-14  0.12500000000E+03  0.12500000000E+03 0.  0.
        -11    1    1    0    0    0 -0.32956911289E+02  0.21501408493E+02  0.36073807785E+02  0.53383407321E+02  0.51100000000E-03 0.  1.
         11    1    1    0    0    0 -0.56286316829E+01  0.36720624379E+01  0.61600913100E+01  0.91165926957E+01  0.51100000000E-03 0. -1.
         22    1    1    0    0    0  0.38585542972E+02 -0.25173470931E+02 -0.42233899095E+02  0.62499999983E+02  0.00000000000E+00 0.  1.
</event>
<event>
 4    1  0.1976955E-002  0.9118800E+02  0.7818608E-02  0.1130116E+00
         25   -1    0    0    0    0  0.00000000000E+00  0.00000000000E+00  0.99999998245E-14  0.12500000000E+03  0.12500000000E+03 0.  0.
        -11    1    1    0    0    0  0.79152909849E+01  0.91386043947E+01  0.20373579447E+02  0.23690687230E+02  0.51100000000E-03 0. -1.
         11    1    1    0    0    0  0.12964452610E+02  0.14974472112E+02  0.33374405091E+02  0.38809312825E+02  0.51100000000E-03 0.  1.
         22    1    1    0    0    0 -0.20879743595E+02 -0.24113076507E+02 -0.53747984538E+02  0.62499999945E+02  0.00000000000E+00 0.  1.
</event>
<event>
 4    1  0.1976955E-002  0.9118800E+02  0.7818608E-02  0.1130116E+00
         25   -1    0    0    0    0  0.00000000000E+00  0.00000000000E+00  0.99999998245E-14  0.12500000000E+03  0.12500000000E+03 0.  0.
        -11    1    1    0    0    0  0.78616368966E-01  0.37433568067E+02  0.30960605916E+02  0.48578156796E+02  0.51100000000E-03 0. -1.
         11    1    1    0    0    0 -0.24953738416E+01  0.11097923248E+02  0.81932397879E+01  0.14018558039E+02  0.51100000000E-03 0.  1.
         22    1    1    0    0    0  0.24167574726E+01 -0.48531491315E+02 -0.39153845704E+02  0.62403285164E+02  0.00000000000E+00 0. -1.
</event>
<event>
 4    1  0.1976955E-002  0.9118800E+02  0.7818608E-02  0.1130116E+00
         25   -1    0    0    0    0  0.00000000000E+00  0.00000000000E+00  0.99999998245E-14  0.12500000000E+03  0.12500000000E+03 0.  0.
        -11    1    1    0    0    0  0.32901508929E+01  0.12973150216E+02 -0.48214723074E+02  0.50037858075E+02  0.51100000000E-03 0. -1.
         11    1    1    0    0    0 -0.60066598381E+01 -0.35915057222E+01 -0.12037140433E+02  0.13923779150E+02  0.51100000000E-03 0.  1.
         22    1    1    0    0    0  0.27165089452E+01 -0.93816444936E+01  0.60251863506E+02  0.61038362775E+02  0.00000000000E+00 0. -1.
</event>
<event>
 4    1  0.1976955E-002  0.9118800E+02  0.7818608E-02  0.1130116E+00
         25   -1    0    0    0    0  0.00000000000E+00  0.00000000000E+00  0.99999998245E-14  0.12500000000E+03  0.12500000000E+03 0.  0.
        -11    1    1    0    0    0  0.43245789150E+02 -0.24411575669E+02 -0.23773644706E+02  0.55057329110E+02  0.51100000000E-03 0.  1.
         11    1    1    0    0    0  0.58460472942E+01 -0.33000252180E+01 -0.32135516925E+01  0.74426709014E+01  0.51100000000E-03 0.  1.
         22    1    1    0    0    0 -0.49091836444E+02  0.27711600887E+02  0.26987196398E+02  0.62499999989E+02  0.00000000000E+00 0.  1.
</event>
<event>
 4    1  0.1976955E-002  0.9118800E+02  0.7818608E-02  0.1130116E+00
         25   -1    0    0    0    0  0.00000000000E+00  0.00000000000E+00  0.99999998245E-14  0.12500000000E+03  0.12500000000E+03 0.  0.
        -11    1    1    0    0    0  0.71168279794E+01 -0.56687547493E+02  0.15054285166E+02  0.59082643673E+02  0.51100000000E-03 0. -1.
         11    1    1    0    0    0  0.16938775594E+01  0.26529375484E+01  0.63868499236E+01  0.71203336319E+01  0.51100000000E-03 0.  1.
         22    1    1    0    0    0 -0.88107055388E+01  0.54034609944E+02 -0.21441135090E+02  0.58797022696E+02  0.00000000000E+00 0. -1.
</event>
<event>
 4    1  0.1976955E-002  0.9118800E+02  0.7818608E-02  0.1130116E+00
         25   -1    0    0    0    0  0.00000000000E+00  0.00000000000E+00  0.99999998245E-14  0.12500000000E+03  0.12500000000E+03 0.  0.
        -11    1    1    0    0    0  0.53029301282E+01 -0.49043727273E+00 -0.13474296659E+02  0.14488556429E+02  0.51100000000E-03 0.  1.
         11    1    1    0    0    0  0.18059210238E+02 -0.88396712640E+01 -0.43669204783E+02  0.48075714338E+02  0.51100000000E-03 0. -1.
         22    1    1    0    0    0 -0.23362140367E+02  0.93301085367E+01  0.57143501442E+02  0.62435729233E+02  0.00000000000E+00 0. -1.
</event>
<event>
 4    1  0.1976955E-002  0.9118800E+02  0.7818608E-02  0.1130116E+00
         25   -1    0    0    0    0  0.00000000000E+00  0.00000000000E+00  0.99999998245E-14  0.12500000000E+03  0.12500000000E+03 0.  0.
        -11    1    1    0    0    0 -0.17029801548E+01 -0.70334149897E+01  0.18408931914E+02  0.19780238682E+02  0.51100000000E-03 0. -1.
         11    1    1    0    0    0 -0.42746600982E+01 -0.17017918906E+02  0.38958719950E+02  0.42727791229E+02  0.51100000000E-03 0.  1.
         22    1    1    0    0    0  0.59776402529E+01  0.24051333896E+02 -0.57367651865E+02  0.62491970089E+02  0.00000000000E+00 0.  1.
</event>
<event>
 4    1  0.1976955E-002  0.9118800E+02  0.7818608E-02  0.1130116E+00
         25   -1    0    0    0    0  0.00000000000E+00  0.00000000000E+00  0.99999998245E-14  0.12500000000E+03  0.12500000000E+03 0.  0.
        -11    1    1    0    0    0 -0.11124799390E+02 -0.36680950608E+02 -0.21059951564E+02  0.43735281628E+02  0.51100000000E-03 0. -1.
         11    1    1    0    0    0 -0.15460889686E+02 -0.12765564913E+02 -0.28373162497E+01  0.20249669656E+02  0.51100000000E-03 0.  1.
         22    1    1    0    0    0  0.26585689075E+02  0.49446515521E+02  0.23897267814E+02  0.61015048715E+02  0.00000000000E+00 0. -1.
</event>
<event>
 4    1  0.1976955E-002  0.9118800E+02  0.7818608E-02  0.1130116E+00
         25   -1    0    0    0    0  0.00000000000E+00  0.00000000000E+00  0.99999998245E-14  0.12500000000E+03  0.12500000000E+03 0.  0.
        -11    1    1    0    0    0 -0.23324736776E+02  0.12669014070E+02 -0.56816611070E+01  0.27144585766E+02  0.51100000000E-03 0.  1.
         11    1    1    0    0    0 -0.34426155835E+02 -0.17587107820E+01  0.16301425125E+02  0.38131217270E+02  0.51100000000E-03 0. -1.
         22    1    1    0    0    0  0.57750892611E+02 -0.10910303288E+02 -0.10619764018E+02  0.59724196964E+02  0.00000000000E+00 0. -1.
</event>
<event>
 4    1  0.1976955E-002  0.9118800E+02  0.7818608E-02  0.1130116E+00
         25   -1    0    0    0    0  0.00000000000E+00  0.00000000000E+00  0.99999998245E-14  0.12500000000E+03  0.12500000000E+03 0.  0.
        -11    1    1    0    0    0  0.84189383395E+01  0.33242380996E+02 -0.49148317975E+01  0.34642315005E+02  0.51100000000E-03 0.  1.
         11    1    1    0    0    0  0.67314866963E+01  0.26742083372E+02 -0.39495722578E+01  0.27857692968E+02  0.51100000000E-03 0. -1.
         22    1    1    0    0    0 -0.15150425036E+02 -0.59984464367E+02  0.88644040553E+01  0.62499992028E+02  0.00000000000E+00 0.  1.
</event>
<event>
 4    1  0.1976955E-002  0.9118800E+02  0.7818608E-02  0.1130116E+00
         25   -1    0    0    0    0  0.00000000000E+00  0.00000000000E+00  0.99999998245E-14  0.12500000000E+03  0.12500000000E+03 0.  0.
        -11    1    1    0    0    0 -0.14515638894E+02  0.16016781653E+02  0.16259611566E+02  0.27048401719E+02  0.51100000000E-03 0. -1.
         11    1    1    0    0    0 -0.19024172775E+02  0.20986708362E+02  0.21317944591E+02  0.35451598546E+02  0.51100000000E-03 0.  1.
         22    1    1    0    0    0  0.33539811669E+02 -0.37003490015E+02 -0.37577556157E+02  0.62499999735E+02  0.00000000000E+00 0. -1.
</event>
<event>
 4    1  0.1976955E-002  0.9118800E+02  0.7818608E-02  0.1130116E+00
         25   -1    0    0    0    0  0.00000000000E+00  0.00000000000E+00  0.99999998245E-14  0.12500000000E+03  0.12500000000E+03 0.  0.
        -11    1    1    0    0    0  0.40600490409E+02 -0.10759968094E+02 -0.19973038400E+02  0.46509128115E+02  0.51100000000E-03 0. -1.
         11    1    1    0    0    0  0.14102825957E+02 -0.33159426186E+01 -0.67741003614E+01  0.15992923792E+02  0.51100000000E-03 0.  1.
         22    1    1    0    0    0 -0.54703316367E+02  0.14075910713E+02  0.26747138761E+02  0.62497948093E+02  0.00000000000E+00 0. -1.
</event>
<event>
 4    1  0.1976955E-002  0.9118800E+02  0.7818608E-02  0.1130116E+00
         25   -1    0    0    0    0  0.00000000000E+00  0.00000000000E+00  0.99999998245E-14  0.12500000000E+03  0.12500000000E+03 0.  0.
        -11    1    1    0    0    0 -0.33679992945E+01 -0.19695263373E-01 -0.26027355166E+01  0.42565290533E+01  0.51100000000E-03 0. -1.
         11    1    1    0    0    0 -0.46084714712E+02 -0.26657228879E+00 -0.35615023783E+02  0.58243470966E+02  0.51100000000E-03 0. -1.
         22    1    1    0    0    0  0.49452714006E+02  0.28626755217E+00  0.38217759299E+02  0.62499999981E+02  0.00000000000E+00 0. -1.
</event>
<event>
 4    1  0.1976955E-002  0.9118800E+02  0.7818608E-02  0.1130116E+00
         25   -1    0    0    0    0  0.00000000000E+00  0.00000000000E+00  0.99999998245E-14  0.12500000000E+03  0.12500000000E+03 0.  0.
        -11    1    1    0    0    0  0.19872457155E+01 -0.18761477424E+01  0.98287648809E+00  0.29043282075E+01  0.51100000000E-03 0.  1.
         11    1    1    0    0    0  0.42820611196E+02 -0.36319927042E+02  0.19977745022E+02  0.59597417225E+02  0.51100000000E-03 0. -1.
         22    1    1    0    0    0 -0.44807856911E+02  0.38196074784E+02 -0.20960621510E+02  0.62498254567E+02  0.00000000000E+00 0. -1.
</event>
<event>
 4    1  0.1976955E-002  0.9118800E+02  0.7818608E-02  0.1130116E+00
         25   -1    0    0    0    0  0.00000000000E+00  0.00000000000E+00  0.99999998245E-14  0.12500000000E+03  0.12500000000E+03 0.  0.
        -11    1    1    0    0    0  0.19257473119E+02 -0.14211422680E+02 -0.11590513836E+02  0.26592382683E+02  0.51100000000E-03 0. -1.
         11    1    1    0    0    0  0.25957970167E+02 -0.19319812295E+02 -0.15565705756E+02  0.35907694973E+02  0.51100000000E-03 0.  1.
         22    1    1    0    0    0 -0.45215443286E+02  0.33531234975E+02  0.27156219592E+02  0.62499922344E+02  0.00000000000E+00 0. -1.
</event>
<event>
 4    1  0.1976955E-002  0.9118800E+02  0.7818608E-02  0.1130116E+00
         25   -1    0    0    0    0  0.00000000000E+00  0.00000000000E+00  0.99999998245E-14  0.12500000000E+03  0.12500000000E+03 0.  0.
        -11    1    1    0    0    0  0.64240186925E+00 -0.29057416020E+00  0.20610748405E+01  0.21783349750E+01  0.51100000000E-03 0. -1.
         11    1    1    0    0    0 -0.46906248405E+01 -0.37722083678E+01  0.60097933887E+02  0.60398618984E+02  0.51100000000E-03 0.  1.
         22    1    1    0    0    0  0.40482229712E+01  0.40627825280E+01 -0.62159008728E+02  0.62423046041E+02  0.00000000000E+00 0.  1.
</event>
<event>
 4    1  0.1976955E-002  0.9118800E+02  0.7818608E-02  0.1130116E+00
         25   -1    0    0    0    0  0.00000000000E+00  0.00000000000E+00  0.99999998245E-14  0.12500000000E+03  0.12500000000E+03 0.  0.
        -11    1    1    0    0    0 -0.26121161796E+01  0.17905201301E+01  0.78707649338E-01  0.31678554934E+01  0.51100000000E-03 0. -1.
         11    1    1    0    0    0 -0.53937672292E+02  0.24689620794E+02 -0.20970277206E+01  0.59356948985E+02  0.51100000000E-03 0.  1.
         22    1    1    0    0    0  0.56549788472E+02 -0.26480140924E+02  0.20183200713E+01  0.62475195522E+02  0.00000000000E+00 0.  1.
</event>
<event>
 4    1  0.1976955E-002  0.9118800E+02  0.7818608E-02  0.1130116E+00
         25   -1    0    0    0    0  0.00000000000E+00  0.00000000000E+00  0.99999998245E-14  0.12500000000E+03  0.12500000000E+03 0.  0.
        -11    1    1    0    0    0 -0.70450393194E+01 -0.74597922657E+00 -0.33210137845E+00  0.70922038609E+01  0.51100000000E-03 0.  1.
         11    1    1    0    0    0 -0.55042765511E+02 -0.58000684316E+01 -0.25840077500E+01  0.55407796611E+02  0.51100000000E-03 0. -1.
         22    1    1    0    0    0  0.62087804831E+02  0.65460476582E+01  0.29161091285E+01  0.62499999529E+02  0.00000000000E+00 0. -1.
</event>
<event>
 4    1  0.1976955E-002  0.9118800E+02  0.7818608E-02  0.1130116E+00
         25   -1    0    0    0    0  0.00000000000E+00  0.00000000000E+00  0.99999998245E-14  0.12500000000E+03  0.12500000000E+03 0.  0.
        -11    1    1    0    0    0  0.42194816023E+00  0.51398383278E+02 -0.16048254945E+02  0.53847175700E+02  0.51100000000E-03 0. -1.
         11    1    1    0    0    0  0.20542172247E+01 -0.83806587955E+01 -0.15506318521E+02  0.17745454759E+02  0.51100000000E-03 0.  1.
         22    1    1    0    0    0 -0.24761653849E+01 -0.43017724483E+02  0.31554573466E+02  0.53407369541E+02  0.00000000000E+00 0. -1.
</event>
<event>
 4    1  0.1976955E-002  0.9118800E+02  0.7818608E-02  0.1130116E+00
         25   -1    0    0    0    0  0.00000000000E+00  0.00000000000E+00  0.99999998245E-14  0.12500000000E+03  0.12500000000E+03 0.  0.
        -11    1    1    0    0    0  0.20965676105E+02 -0.18477487780E+02  0.87168304329E+01  0.29273883622E+02  0.51100000000E-03 0. -1.
         11    1    1    0    0    0  0.32058705340E+02 -0.11091590035E+02  0.23879257186E+01  0.34007148470E+02  0.51100000000E-03 0.  1.
         22    1    1    0    0    0 -0.53024381445E+02  0.29569077815E+02 -0.11104756152E+02  0.61718967908E+02  0.00000000000E+00 0.  1.
</event>
<event>
 4    1  0.1976955E-002  0.9118800E+02  0.7818608E-02  0.1130116E+00
         25   -1    0    0    0    0  0.00000000000E+00  0.00000000000E+00  0.99999998245E-14  0.12500000000E+03  0.12500000000E+03 0.  0.
        -11    1    1    0    0    0 -0.54628697267E+02  0.14026503011E+02  0.97743863051E+01  0.57241383454E+02  0.51100000000E-03 0.  1.
         11    1    1    0    0    0 -0.50097950374E+01  0.12547553368E+01  0.99259890868E+00  0.52590598139E+01  0.51100000000E-03 0. -1.
         22    1    1    0    0    0  0.59638492305E+02 -0.15281258348E+02 -0.10766985214E+02  0.62499556732E+02  0.00000000000E+00 0.  1.
</event>
<event>
 4    1  0.1976955E-002  0.9118800E+02  0.7818608E-02  0.1130116E+00
         25   -1    0    0    0    0  0.00000000000E+00  0.00000000000E+00  0.99999998245E-14  0.12500000000E+03  0.12500000000E+03 0.  0.
        -11    1    1    0    0    0 -0.14045763166E+02 -0.16504446802E+02  0.24307778839E+02  0.32566061160E+02  0.51100000000E-03 0.  1.
         11    1    1    0    0    0 -0.12911574698E+02 -0.15172584394E+02  0.22341097077E+02  0.29933938886E+02  0.51100000000E-03 0. -1.
         22    1    1    0    0    0  0.26957337864E+02  0.31677031196E+02 -0.46648875915E+02  0.62499999954E+02  0.00000000000E+00 0.  1.
</event>
<event>
 4    1  0.1976955E-002  0.9118800E+02  0.7818608E-02  0.1130116E+00
         25   -1    0    0    0    0  0.00000000000E+00  0.00000000000E+00  0.99999998245E-14  0.12500000000E+03  0.12500000000E+03 0.  0.
        -11    1    1    0    0    0 -0.87365891638E+01 -0.74554219578E+00  0.22876143516E+00  0.87713257515E+01  0.51100000000E-03 0.  1.
         11    1    1    0    0    0 -0.53516272042E+02 -0.45618253409E+01  0.14031448375E+01  0.53728674276E+02  0.51100000000E-03 0. -1.
         22    1    1    0    0    0  0.62252861206E+02  0.53073675367E+01 -0.16319062727E+01  0.62499999973E+02  0.00000000000E+00 0. -1.
</event>
<event>
 4    1  0.1976955E-002  0.9118800E+02  0.7818608E-02  0.1130116E+00
         25   -1    0    0    0    0  0.00000000000E+00  0.00000000000E+00  0.99999998245E-14  0.12500000000E+03  0.12500000000E+03 0.  0.
        -11    1    1    0    0    0  0.23082820658E+02 -0.13646888713E+02 -0.16059959402E+02  0.31256622936E+02  0.51100000000E-03 0.  1.
         11    1    1    0    0    0  0.21704048777E+02 -0.12869723667E+02 -0.18480941593E+02  0.31276840042E+02  0.51100000000E-03 0. -1.
         22    1    1    0    0    0 -0.44786869436E+02  0.26516612380E+02  0.34540900995E+02  0.62466537022E+02  0.00000000000E+00 0.  1.
</event>
<event>
 4    1  0.1976955E-002  0.9118800E+02  0.7818608E-02  0.1130116E+00
         25   -1    0    0    0    0  0.00000000000E+00  0.00000000000E+00  0.99999998245E-14  0.12500000000E+03  0.12500000000E+03 0.  0.
        -11    1    1    0    0    0  0.21665425768E+02 -0.30994486037E+02 -0.43960661715E+02  0.57987831629E+02  0.51100000000E-03 0.  1.
         11    1    1    0    0    0  0.49633660329E+01  0.94144992738E+01  0.26475739421E+02  0.28534760856E+02  0.51100000000E-03 0. -1.
         22    1    1    0    0    0 -0.26628791801E+02  0.21579986763E+02  0.17484922294E+02  0.38477407515E+02  0.00000000000E+00 0.  1.
</event>
<event>
 4    1  0.1976955E-002  0.9118800E+02  0.7818608E-02  0.1130116E+00
         25   -1    0    0    0    0  0.00000000000E+00  0.00000000000E+00  0.99999998245E-14  0.12500000000E+03  0.12500000000E+03 0.  0.
        -11    1    1    0    0    0  0.33976825019E+01  0.37429880704E+02  0.33438786183E+02  0.50305990076E+02  0.51100000000E-03 0. -1.
         11    1    1    0    0    0  0.82139566577E+00  0.90732173215E+01  0.81053017532E+01  0.12194010012E+02  0.51100000000E-03 0.  1.
         22    1    1    0    0    0 -0.42190781677E+01 -0.46503098025E+02 -0.41544087936E+02  0.62499999912E+02  0.00000000000E+00 0. -1.
</event>
<event>
 4    1  0.1976955E-002  0.9118800E+02  0.7818608E-02  0.1130116E+00
         25   -1    0    0    0    0  0.00000000000E+00  0.00000000000E+00  0.99999998245E-14  0.12500000000E+03  0.12500000000E+03 0.  0.
        -11    1    1    0    0    0  0.37737704476E+01  0.21941581024E+02 -0.24421145921E+02  0.33046432328E+02  0.51100000000E-03 0. -1.
         11    1    1    0    0    0  0.33626674225E+01  0.19555142747E+02 -0.21766982087E+02  0.29453567687E+02  0.51100000000E-03 0.  1.
         22    1    1    0    0    0 -0.71364378701E+01 -0.41496723771E+02  0.46188128008E+02  0.62499999985E+02  0.00000000000E+00 0. -1.
</event>
<event>
 4    1  0.1976955E-002  0.9118800E+02  0.7818608E-02  0.1130116E+00
         25   -1    0    0    0    0  0.00000000000E+00  0.00000000000E+00  0.99999998245E-14  0.12500000000E+03  0.12500000000E+03 0.  0.
        -11    1    1    0    0    0 -0.34010019611E+02  0.11902033360E+02  0.21362416153E+02  0.41889051746E+02  0.51100000000E-03 0.  1.
         11    1    1    0    0    0 -0.13740721694E+02  0.69434949963E+01  0.13972360686E+02  0.20790536762E+02  0.51100000000E-03 0. -1.
         22    1    1    0    0    0  0.47750741305E+02 -0.18845528356E+02 -0.35334776839E+02  0.62320411492E+02  0.00000000000E+00 0.  1.
</event>
<event>
 4    1  0.1976955E-002  0.9118800E+02  0.7818608E-02  0.1130116E+00
         25   -1    0    0    0    0  0.00000000000E+00  0.00000000000E+00  0.99999998245E-14  0.12500000000E+03  0.12500000000E+03 0.  0.
        -11    1    1    0    0    0 -0.26958198158E+02 -0.11885222883E+02  0.23135370399E+02  0.37459956416E+02  0.51100000000E-03 0.  1.
         11    1    1    0    0    0 -0.19023637631E+02 -0.69772980845E+01  0.14736472723E+02  0.25054841965E+02  0.51100000000E-03 0. -1.
         22    1    1    0    0    0  0.45981835790E+02  0.18862520968E+02 -0.37871843123E+02  0.62485201619E+02  0.00000000000E+00 0.  1.
</event>
<event>
 4    1  0.1976955E-002  0.9118800E+02  0.7818608E-02  0.1130116E+00
         25   -1    0    0    0    0  0.00000000000E+00  0.00000000000E+00  0.99999998245E-14  0.12500000000E+03  0.12500000000E+03 0.  0.
        -11    1    1    0    0    0 -0.35140789726E+02  0.11400335258E+02  0.33256171308E+02  0.49707300036E+02  0.51100000000E-03 0.  1.
         11    1    1    0    0    0 -0.90436074400E+01  0.29311654044E+01  0.85600589906E+01  0.12792700119E+02  0.51100000000E-03 0. -1.
         22    1    1    0    0    0  0.44184397166E+02 -0.14331500662E+02 -0.41816230299E+02  0.62499999844E+02  0.00000000000E+00 0.  1.
</event>
<event>
 4    1  0.1976955E-002  0.9118800E+02  0.7818608E-02  0.1130116E+00
         25   -1    0    0    0    0  0.00000000000E+00  0.00000000000E+00  0.99999998245E-14  0.12500000000E+03  0.12500000000E+03 0.  0.
        -11    1    1    0    0    0  0.12807766268E+01 -0.49767345694E+00 -0.98986215619E+01  0.99935367476E+01  0.51100000000E-03 0. -1.
         11    1    1    0    0    0  0.66641971943E+01 -0.25460746035E+01 -0.52019567384E+02  0.52506470184E+02  0.51100000000E-03 0.  1.
         22    1    1    0    0    0 -0.79449738211E+01  0.30437480604E+01  0.61918188946E+02  0.62499993069E+02  0.00000000000E+00 0.  1.
</event>
<event>
 4    1  0.1976955E-002  0.9118800E+02  0.7818608E-02  0.1130116E+00
         25   -1    0    0    0    0  0.00000000000E+00  0.00000000000E+00  0.99999998245E-14  0.12500000000E+03  0.12500000000E+03 0.  0.
        -11    1    1    0    0    0  0.17811234967E+01 -0.15118782751E+02 -0.21383068824E+02  0.26248535681E+02  0.51100000000E-03 0. -1.
         11    1    1    0    0    0  0.32863335441E+01 -0.19505428610E+02 -0.30390826292E+02  0.36261054265E+02  0.51100000000E-03 0.  1.
         22    1    1    0    0    0 -0.50674570408E+01  0.34624211361E+02  0.51773895116E+02  0.62490410054E+02  0.00000000000E+00 0. -1.
</event>
<event>
 4    1  0.1976955E-002  0.9118800E+02  0.7818608E-02  0.1130116E+00
         25   -1    0    0    0    0  0.00000000000E+00  0.00000000000E+00  0.99999998245E-14  0.12500000000E+03  0.12500000000E+03 0.  0.
        -11    1    1    0    0    0  0.10109043334E+02 -0.16341093483E+02 -0.43215386993E-01  0.19215253347E+02  0.51100000000E-03 0. -1.
         11    1    1    0    0    0  0.22530864073E+02 -0.36957573859E+02 -0.29202568643E+00  0.43284955593E+02  0.51100000000E-03 0.  1.
         22    1    1    0    0    0 -0.32639907407E+02  0.53298667342E+02  0.33524107342E+00  0.62499791060E+02  0.00000000000E+00 0.  1.
</event>
<event>
 4    1  0.1976955E-002  0.9118800E+02  0.7818608E-02  0.1130116E+00
         25   -1    0    0    0    0  0.00000000000E+00  0.00000000000E+00  0.99999998245E-14  0.12500000000E+03  0.12500000000E+03 0.  0.
        -11    1    1    0    0    0 -0.18049518919E+01  0.20352966108E+01  0.38570473469E+01  0.47198620873E+01  0.51100000000E-03 0. -1.
         11    1    1    0    0    0 -0.22112024775E+02  0.24933650947E+02  0.47200802765E+02  0.57780138206E+02  0.51100000000E-03 0.  1.
         22    1    1    0    0    0  0.23916976667E+02 -0.26968947558E+02 -0.51057850112E+02  0.62499999707E+02  0.00000000000E+00 0.  1.
</event>
<event>
 4    1  0.1976955E-002  0.9118800E+02  0.7818608E-02  0.1130116E+00
         25   -1    0    0    0    0  0.00000000000E+00  0.00000000000E+00  0.99999998245E-14  0.12500000000E+03  0.12500000000E+03 0.  0.
        -11    1    1    0    0    0 -0.52844930991E+01 -0.19223730620E+02  0.99037889050E+01  0.22261238087E+02  0.51100000000E-03 0.  1.
         11    1    1    0    0    0 -0.18893791257E+02 -0.29117599939E+02  0.20909631410E+02  0.40521878785E+02  0.51100000000E-03 0. -1.
         22    1    1    0    0    0  0.24178284356E+02  0.48341330559E+02 -0.30813420315E+02  0.62216883128E+02  0.00000000000E+00 0. -1.
</event>
<event>
 4    1  0.1976955E-002  0.9118800E+02  0.7818608E-02  0.1130116E+00
         25   -1    0    0    0    0  0.00000000000E+00  0.00000000000E+00  0.99999998245E-14  0.12500000000E+03  0.12500000000E+03 0.  0.
        -11    1    1    0    0    0  0.60038599971E+01  0.22658855685E+01 -0.27438391701E+01  0.69791995190E+01  0.51100000000E-03 0.  1.
         11    1    1    0    0    0  0.48170235291E+02  0.18310079586E+02 -0.20664416295E+02  0.55521605556E+02  0.51100000000E-03 0. -1.
         22    1    1    0    0    0 -0.54174095288E+02 -0.20575965155E+02  0.23408255465E+02  0.62499194925E+02  0.00000000000E+00 0. -1.
</event>
<event>
 4    1  0.1976955E-002  0.9118800E+02  0.7818608E-02  0.1130116E+00
         25   -1    0    0    0    0  0.00000000000E+00  0.00000000000E+00  0.99999998245E-14  0.12500000000E+03  0.12500000000E+03 0.  0.
        -11    1    1    0    0    0 -0.20351461547E+02  0.23996326283E+02  0.18809007281E+02  0.36657665192E+02  0.51100000000E-03 0. -1.
         11    1    1    0    0    0 -0.14359052322E+02  0.16915282892E+02  0.13248289328E+02  0.25842336374E+02  0.51100000000E-03 0.  1.
         22    1    1    0    0    0  0.34710513869E+02 -0.40911609175E+02 -0.32057296608E+02  0.62499998434E+02  0.00000000000E+00 0. -1.
</event>
<event>
 4    1  0.1976955E-002  0.9118800E+02  0.7818608E-02  0.1130116E+00
         25   -1    0    0    0    0  0.00000000000E+00  0.00000000000E+00  0.99999998245E-14  0.12500000000E+03  0.12500000000E+03 0.  0.
        -11    1    1    0    0    0  0.70928143104E+00  0.25279501409E+00  0.14336480705E+01  0.16193617628E+01  0.51100000000E-03 0.  1.
         11    1    1    0    0    0  0.26139012726E+02  0.59694988841E+01  0.54660242962E+02  0.60882058640E+02  0.51100000000E-03 0. -1.
         22    1    1    0    0    0 -0.26848294157E+02 -0.62222938982E+01 -0.56093891033E+02  0.62498579598E+02  0.00000000000E+00 0. -1.
</event>
<event>
 4    1  0.1976955E-002  0.9118800E+02  0.7818608E-02  0.1130116E+00
         25   -1    0    0    0    0  0.00000000000E+00  0.00000000000E+00  0.99999998245E-14  0.12500000000E+03  0.12500000000E+03 0.  0.
        -11    1    1    0    0    0 -0.68761153702E+01  0.11912901979E+02  0.60520127432E+01  0.15027476656E+02  0.51100000000E-03 0. -1.
         11    1    1    0    0    0 -0.25518578188E+02  0.33860008268E+02  0.21448575955E+02  0.47515675344E+02  0.51100000000E-03 0.  1.
         22    1    1    0    0    0  0.32394693558E+02 -0.45772910247E+02 -0.27500588699E+02  0.62456847999E+02  0.00000000000E+00 0. -1.
</event>
<event>
 4    1  0.1976955E-002  0.9118800E+02  0.7818608E-02  0.1130116E+00
         25   -1    0    0    0    0  0.00000000000E+00  0.00000000000E+00  0.99999998245E-14  0.12500000000E+03  0.12500000000E+03 0.  0.
        -11    1    1    0    0    0  0.13448089889E+02 -0.13062055059E+02 -0.30262445067E+02  0.35598932368E+02  0.51100000000E-03 0.  1.
         11    1    1    0    0    0  0.10238594395E+02 -0.56079571444E+01 -0.24355782756E+02  0.27008927273E+02  0.51100000000E-03 0. -1.
         22    1    1    0    0    0 -0.23686684284E+02  0.18670012204E+02  0.54618227823E+02  0.62392140359E+02  0.00000000000E+00 0.  1.
</event>
<event>
 4    1  0.1976955E-002  0.9118800E+02  0.7818608E-02  0.1130116E+00
         25   -1    0    0    0    0  0.00000000000E+00  0.00000000000E+00  0.99999998245E-14  0.12500000000E+03  0.12500000000E+03 0.  0.
        -11    1    1    0    0    0 -0.98117285129E+01 -0.14448411138E+02 -0.14092582419E+02  0.22441646114E+02  0.51100000000E-03 0. -1.
         11    1    1    0    0    0 -0.14695897744E+02 -0.34205130635E+02 -0.15772426992E+02  0.40431792264E+02  0.51100000000E-03 0.  1.
         22    1    1    0    0    0  0.24507626257E+02  0.48653541772E+02  0.29865009411E+02  0.62126561621E+02  0.00000000000E+00 0.  1.
</event>
<event>
 4    1  0.1976955E-002  0.9118800E+02  0.7818608E-02  0.1130116E+00
         25   -1    0    0    0    0  0.00000000000E+00  0.00000000000E+00  0.99999998245E-14  0.12500000000E+03  0.12500000000E+03 0.  0.
        -11    1    1    0    0    0 -0.59154501144E+01  0.22639082331E+01  0.69810402709E+01  0.94261738828E+01  0.51100000000E-03 0. -1.
         11    1    1    0    0    0 -0.33233186835E+02  0.12794886432E+02  0.39353245609E+02  0.53073833159E+02  0.51100000000E-03 0.  1.
         22    1    1    0    0    0  0.39148636949E+02 -0.15058794665E+02 -0.46334285880E+02  0.62499992958E+02  0.00000000000E+00 0.  1.
</event>
<event>
 4    1  0.1976955E-002  0.9118800E+02  0.7818608E-02  0.1130116E+00
         25   -1    0    0    0    0  0.00000000000E+00  0.00000000000E+00  0.99999998245E-14  0.12500000000E+03  0.12500000000E+03 0.  0.
        -11    1    1    0    0    0  0.15214103040E+01  0.32590793647E+02 -0.52976236316E+01  0.33053582805E+02  0.51100000000E-03 0. -1.
         11    1    1    0    0    0  0.13175754577E+01  0.29046558076E+02 -0.46534413758E+01  0.29446443895E+02  0.51100000000E-03 0.  1.
         22    1    1    0    0    0 -0.28389857617E+01 -0.61637351724E+02  0.99510650074E+01  0.62499973299E+02  0.00000000000E+00 0.  1.
</event>
<event>
 4    1  0.1976955E-002  0.9118800E+02  0.7818608E-02  0.1130116E+00
         25   -1    0    0    0    0  0.00000000000E+00  0.00000000000E+00  0.99999998245E-14  0.12500000000E+03  0.12500000000E+03 0.  0.
        -11    1    1    0    0    0 -0.21697845190E+02 -0.42368787266E+02  0.28762624762E+01  0.47688400124E+02  0.51100000000E-03 0.  1.
         11    1    1    0    0    0 -0.67399918862E+01 -0.13158931340E+02  0.89360311828E+00  0.14811599894E+02  0.51100000000E-03 0. -1.
         22    1    1    0    0    0  0.28437837076E+02  0.55527718606E+02 -0.37698655945E+01  0.62499999982E+02  0.00000000000E+00 0.  1.
</event>
<event>
 4    1  0.1976955E-002  0.9118800E+02  0.7818608E-02  0.1130116E+00
         25   -1    0    0    0    0  0.00000000000E+00  0.00000000000E+00  0.99999998245E-14  0.12500000000E+03  0.12500000000E+03 0.  0.
        -11    1    1    0    0    0  0.37555396527E+01  0.88869144593E-01  0.15523726773E+01  0.40647062622E+01  0.51100000000E-03 0.  1.
         11    1    1    0    0    0  0.53987965791E+02  0.12796982446E+01  0.22323652923E+02  0.58435293769E+02  0.51100000000E-03 0.  1.
         22    1    1    0    0    0 -0.57743505444E+02 -0.13685673892E+01 -0.23876025600E+02  0.62499999968E+02  0.00000000000E+00 0.  1.
</event>
<event>
 4    1  0.1976955E-002  0.9118800E+02  0.7818608E-02  0.1130116E+00
         25   -1    0    0    0    0  0.00000000000E+00  0.00000000000E+00  0.99999998245E-14  0.12500000000E+03  0.12500000000E+03 0.  0.
        -11    1    1    0    0    0  0.76084841357E+01 -0.61762747640E+01  0.13262529265E+02  0.16490302713E+02  0.51100000000E-03 0. -1.
         11    1    1    0    0    0  0.21245920491E+02 -0.17204013587E+02  0.37007096238E+02  0.46009698904E+02  0.51100000000E-03 0.  1.
         22    1    1    0    0    0 -0.28854404626E+02  0.23380288351E+02 -0.50269625503E+02  0.62499998383E+02  0.00000000000E+00 0.  1.
</event>
<event>
 4    1  0.1976955E-002  0.9118800E+02  0.7818608E-02  0.1130116E+00
         25   -1    0    0    0    0  0.00000000000E+00  0.00000000000E+00  0.99999998245E-14  0.12500000000E+03  0.12500000000E+03 0.  0.
        -11    1    1    0    0    0  0.15412195417E+02  0.20559580434E+02  0.38402620361E+02  0.46205988422E+02  0.51100000000E-03 0. -1.
         11    1    1    0    0    0  0.54357539725E+01  0.72496439065E+01  0.13542158451E+02  0.16294011593E+02  0.51100000000E-03 0.  1.
         22    1    1    0    0    0 -0.20847949389E+02 -0.27809224341E+02 -0.51944778813E+02  0.62499999985E+02  0.00000000000E+00 0.  1.
</event>
<event>
 4    1  0.1976955E-002  0.9118800E+02  0.7818608E-02  0.1130116E+00
         25   -1    0    0    0    0  0.00000000000E+00  0.00000000000E+00  0.99999998245E-14  0.12500000000E+03  0.12500000000E+03 0.  0.
        -11    1    1    0    0    0 -0.13337892987E+02 -0.20484601684E+02  0.52821151153E+02  0.58203026596E+02  0.51100000000E-03 0.  1.
         11    1    1    0    0    0 -0.35347017070E+01 -0.35154703727E+01  0.13735960202E+01  0.51710167652E+01  0.51100000000E-03 0. -1.
         22    1    1    0    0    0  0.16872594694E+02  0.24000072057E+02 -0.54194747173E+02  0.61625956639E+02  0.00000000000E+00 0.  1.
</event>
<event>
 4    1  0.1976955E-002  0.9118800E+02  0.7818608E-02  0.1130116E+00
         25   -1    0    0    0    0  0.00000000000E+00  0.00000000000E+00  0.99999998245E-14  0.12500000000E+03  0.12500000000E+03 0.  0.
        -11    1    1    0    0    0  0.16499803802E+02  0.22407194743E+02  0.64754906350E+00  0.27834245486E+02  0.51100000000E-03 0.  1.
         11    1    1    0    0    0  0.21401356580E+02  0.27096974341E+02  0.33458022149E+01  0.34690899017E+02  0.51100000000E-03 0. -1.
         22    1    1    0    0    0 -0.37901160382E+02 -0.49504169083E+02 -0.39933512784E+01  0.62474855497E+02  0.00000000000E+00 0.  1.
</event>
<event>
 4    1  0.1976955E-002  0.9118800E+02  0.7818608E-02  0.1130116E+00
         25   -1    0    0    0    0  0.00000000000E+00  0.00000000000E+00  0.99999998245E-14  0.12500000000E+03  0.12500000000E+03 0.  0.
        -11    1    1    0    0    0  0.12137938287E+02  0.16023927452E+01 -0.41811086028E+01  0.12937498900E+02  0.51100000000E-03 0. -1.
         11    1    1    0    0    0  0.46494975680E+02  0.61386259043E+01 -0.16030472349E+02  0.49562501303E+02  0.51100000000E-03 0.  1.
         22    1    1    0    0    0 -0.58632913967E+02 -0.77410186495E+01  0.20211580952E+02  0.62499999797E+02  0.00000000000E+00 0.  1.
</event>
<event>
 4    1  0.1976955E-002  0.9118800E+02  0.7818608E-02  0.1130116E+00
         25   -1    0    0    0    0  0.00000000000E+00  0.00000000000E+00  0.99999998245E-14  0.12500000000E+03  0.12500000000E+03 0.  0.
        -11    1    1    0    0    0 -0.62737423685E+01  0.25395187649E+01 -0.10193007457E+02  0.12235456679E+02  0.51100000000E-03 0.  1.
         11    1    1    0    0    0 -0.25774335353E+02  0.10434680092E+02 -0.41872728654E+02  0.50264543335E+02  0.51100000000E-03 0.  1.
         22    1    1    0    0    0  0.32048077721E+02 -0.12974198857E+02  0.52065736110E+02  0.62499999986E+02  0.00000000000E+00 0.  1.
</event>
<event>
 4    1  0.1976955E-002  0.9118800E+02  0.7818608E-02  0.1130116E+00
         25   -1    0    0    0    0  0.00000000000E+00  0.00000000000E+00  0.99999998245E-14  0.12500000000E+03  0.12500000000E+03 0.  0.
        -11    1    1    0    0    0  0.63629348422E+01  0.42752442990E+01 -0.71591184848E+01  0.10488928990E+02  0.51100000000E-03 0.  1.
         11    1    1    0    0    0  0.31551582383E+02  0.21198702566E+02 -0.35500199532E+02  0.52011071018E+02  0.51100000000E-03 0.  1.
         22    1    1    0    0    0 -0.37914517225E+02 -0.25473946865E+02  0.42659318017E+02  0.62499999992E+02  0.00000000000E+00 0.  1.
</event>
<event>
 4    1  0.1976955E-002  0.9118800E+02  0.7818608E-02  0.1130116E+00
         25   -1    0    0    0    0  0.00000000000E+00  0.00000000000E+00  0.99999998245E-14  0.12500000000E+03  0.12500000000E+03 0.  0.
        -11    1    1    0    0    0 -0.54208146724E+02  0.46520999362E+01 -0.25357090766E+02  0.60026221416E+02  0.51100000000E-03 0. -1.
         11    1    1    0    0    0 -0.22380925748E+01  0.19156423687E+00 -0.10362768742E+01  0.24737876327E+01  0.51100000000E-03 0.  1.
         22    1    1    0    0    0  0.56446239299E+02 -0.48436641730E+01  0.26393367640E+02  0.62499990952E+02  0.00000000000E+00 0. -1.
</event>
<event>
 4    1  0.1976955E-002  0.9118800E+02  0.7818608E-02  0.1130116E+00
         25   -1    0    0    0    0  0.00000000000E+00  0.00000000000E+00  0.99999998245E-14  0.12500000000E+03  0.12500000000E+03 0.  0.
        -11    1    1    0    0    0  0.24889789402E+02 -0.32023615666E+01 -0.17401142910E+02  0.30537788246E+02  0.51100000000E-03 0.  1.
         11    1    1    0    0    0  0.26052021870E+02 -0.33500076846E+01 -0.18211331277E+02  0.31962211784E+02  0.51100000000E-03 0. -1.
         22    1    1    0    0    0 -0.50941811272E+02  0.65523692512E+01  0.35612474187E+02  0.62499999970E+02  0.00000000000E+00 0. -1.
</event>
<event>
 4    1  0.1976955E-002  0.9118800E+02  0.7818608E-02  0.1130116E+00
         25   -1    0    0    0    0  0.00000000000E+00  0.00000000000E+00  0.99999998245E-14  0.12500000000E+03  0.12500000000E+03 0.  0.
        -11    1    1    0    0    0  0.31799833330E+01  0.44776225755E+01  0.37052440537E+01  0.66249703158E+01  0.51100000000E-03 0.  1.
         11    1    1    0    0    0  0.26820402412E+02  0.37758087794E+02  0.31257187470E+02  0.55875029738E+02  0.51100000000E-03 0.  1.
         22    1    1    0    0    0 -0.30000385745E+02 -0.42235710370E+02 -0.34962431523E+02  0.62499999946E+02  0.00000000000E+00 0.  1.
</event>
<event>
 4    1  0.1976955E-002  0.9118800E+02  0.7818608E-02  0.1130116E+00
         25   -1    0    0    0    0  0.00000000000E+00  0.00000000000E+00  0.99999998245E-14  0.12500000000E+03  0.12500000000E+03 0.  0.
        -11    1    1    0    0    0  0.24347810483E+02 -0.55923667728E+01  0.27474380867E+02  0.37133974279E+02  0.51100000000E-03 0.  1.
         11    1    1    0    0    0  0.16630395735E+02 -0.38209308186E+01  0.18768742298E+02  0.25366025750E+02  0.51100000000E-03 0. -1.
         22    1    1    0    0    0 -0.40978206218E+02  0.94132975914E+01 -0.46243123165E+02  0.62499999972E+02  0.00000000000E+00 0.  1.
</event>
<event>
 4    1  0.1976955E-002  0.9118800E+02  0.7818608E-02  0.1130116E+00
         25   -1    0    0    0    0  0.00000000000E+00  0.00000000000E+00  0.99999998245E-14  0.12500000000E+03  0.12500000000E+03 0.  0.
        -11    1    1    0    0    0 -0.33046454107E+02  0.18703170437E+02 -0.48789786200E+02  0.61824913676E+02  0.51100000000E-03 0.  1.
         11    1    1    0    0    0  0.41318376285E+01 -0.11185909802E+01  0.64905327360E+00  0.43295032490E+01  0.51100000000E-03 0. -1.
         22    1    1    0    0    0  0.28914616479E+02 -0.17584579456E+02  0.48140732926E+02  0.58845583075E+02  0.00000000000E+00 0.  1.
</event>
<event>
 4    1  0.1976955E-002  0.9118800E+02  0.7818608E-02  0.1130116E+00
         25   -1    0    0    0    0  0.00000000000E+00  0.00000000000E+00  0.99999998245E-14  0.12500000000E+03  0.12500000000E+03 0.  0.
        -11    1    1    0    0    0  0.33651736791E+01 -0.50957787591E+01 -0.14829299433E+02  0.16037439852E+02  0.51100000000E-03 0.  1.
         11    1    1    0    0    0  0.10027790868E+02 -0.14916979603E+02 -0.42845202439E+02  0.46462718845E+02  0.51100000000E-03 0. -1.
         22    1    1    0    0    0 -0.13392964547E+02  0.20012758362E+02  0.57674501873E+02  0.62499841303E+02  0.00000000000E+00 0. -1.
</event>
<event>
 4    1  0.1976955E-002  0.9118800E+02  0.7818608E-02  0.1130116E+00
         25   -1    0    0    0    0  0.00000000000E+00  0.00000000000E+00  0.99999998245E-14  0.12500000000E+03  0.12500000000E+03 0.  0.
        -11    1    1    0    0    0 -0.42356334419E+01  0.34315904578E+02  0.27071191581E+02  0.43913224791E+02  0.51100000000E-03 0. -1.
         11    1    1    0    0    0 -0.18331020544E+01  0.14534881092E+02  0.11438790217E+02  0.18586795135E+02  0.51100000000E-03 0.  1.
         22    1    1    0    0    0  0.60687354964E+01 -0.48850785670E+02 -0.38509981798E+02  0.62499980074E+02  0.00000000000E+00 0. -1.
</event>
<event>
 4    1  0.1976955E-002  0.9118800E+02  0.7818608E-02  0.1130116E+00
         25   -1    0    0    0    0  0.00000000000E+00  0.00000000000E+00  0.99999998245E-14  0.12500000000E+03  0.12500000000E+03 0.  0.
        -11    1    1    0    0    0 -0.36076505346E+02 -0.37532025687E+02  0.98423802641E+01  0.52981502807E+02  0.51100000000E-03 0. -1.
         11    1    1    0    0    0 -0.67260450887E+01 -0.65693952835E+01  0.15073603757E+01  0.95220151485E+01  0.51100000000E-03 0.  1.
         22    1    1    0    0    0  0.42802550435E+02  0.44101420970E+02 -0.11349740640E+02  0.62496482044E+02  0.00000000000E+00 0. -1.
</event>
<event>
 4    1  0.1976955E-002  0.9118800E+02  0.7818608E-02  0.1130116E+00
         25   -1    0    0    0    0  0.00000000000E+00  0.00000000000E+00  0.99999998245E-14  0.12500000000E+03  0.12500000000E+03 0.  0.
        -11    1    1    0    0    0  0.14125631783E+01 -0.24926638483E+02 -0.14662928941E+01  0.25009651255E+02  0.51100000000E-03 0.  1.
         11    1    1    0    0    0  0.21142483491E+01 -0.37366079261E+02 -0.21982551637E+01  0.37490348778E+02  0.51100000000E-03 0. -1.
         22    1    1    0    0    0 -0.35268115274E+01  0.62292717744E+02  0.36645480579E+01  0.62499999968E+02  0.00000000000E+00 0. -1.
</event>
<event>
 4    1  0.1976955E-002  0.9118800E+02  0.7818608E-02  0.1130116E+00
         25   -1    0    0    0    0  0.00000000000E+00  0.00000000000E+00  0.99999998245E-14  0.12500000000E+03  0.12500000000E+03 0.  0.
        -11    1    1    0    0    0  0.29537619367E+02 -0.32745331577E+02  0.30935197463E+02  0.53867561113E+02  0.51100000000E-03 0.  1.
         11    1    1    0    0    0  0.10560937818E+02 -0.22869299428E+01 -0.50358002857E+01  0.11921524271E+02  0.51100000000E-03 0. -1.
         22    1    1    0    0    0 -0.40098557185E+02  0.35032261520E+02 -0.25899397177E+02  0.59210914616E+02  0.00000000000E+00 0.  1.
</event>
<event>
 4    1  0.1976955E-002  0.9118800E+02  0.7818608E-02  0.1130116E+00
         25   -1    0    0    0    0  0.00000000000E+00  0.00000000000E+00  0.99999998245E-14  0.12500000000E+03  0.12500000000E+03 0.  0.
        -11    1    1    0    0    0  0.19962642322E+02  0.46186320418E+01  0.51300980548E+02  0.55241555516E+02  0.51100000000E-03 0.  1.
         11    1    1    0    0    0  0.10267511252E+02 -0.15682829249E+00 -0.26317507454E+00  0.10272080792E+02  0.51100000000E-03 0. -1.
         22    1    1    0    0    0 -0.30230153573E+02 -0.44618037493E+01 -0.51037805473E+02  0.59486363692E+02  0.00000000000E+00 0.  1.
</event>
<event>
 4    1  0.1976955E-002  0.9118800E+02  0.7818608E-02  0.1130116E+00
         25   -1    0    0    0    0  0.00000000000E+00  0.00000000000E+00  0.99999998245E-14  0.12500000000E+03  0.12500000000E+03 0.  0.
        -11    1    1    0    0    0  0.48900610414E+01  0.90935062827E+01  0.14874059014E+02  0.18106412823E+02  0.51100000000E-03 0. -1.
         11    1    1    0    0    0  0.12564525536E+02  0.19911205447E+02  0.37650246067E+02  0.44405680193E+02  0.51100000000E-03 0.  1.
         22    1    1    0    0    0 -0.17454586577E+02 -0.29004711729E+02 -0.52524305080E+02  0.62487906984E+02  0.00000000000E+00 0.  1.
</event>
<event>
 4    1  0.1976955E-002  0.9118800E+02  0.7818608E-02  0.1130116E+00
         25   -1    0    0    0    0  0.00000000000E+00  0.00000000000E+00  0.99999998245E-14  0.12500000000E+03  0.12500000000E+03 0.  0.
        -11    1    1    0    0    0  0.82053752815E+01 -0.13598553685E+02 -0.34163038541E+02  0.37674421673E+02  0.51100000000E-03 0.  1.
         11    1    1    0    0    0  0.54066862262E+01 -0.89600159405E+01 -0.22512112247E+02  0.24825578336E+02  0.51100000000E-03 0.  1.
         22    1    1    0    0    0 -0.13612061508E+02  0.22558569626E+02  0.56675150788E+02  0.62499999991E+02  0.00000000000E+00 0.  1.
</event>
<event>
 4    1  0.1976955E-002  0.9118800E+02  0.7818608E-02  0.1130116E+00
         25   -1    0    0    0    0  0.00000000000E+00  0.00000000000E+00  0.99999998245E-14  0.12500000000E+03  0.12500000000E+03 0.  0.
        -11    1    1    0    0    0  0.33525687349E+02  0.36164206799E+01  0.48136767574E+02  0.58772430641E+02  0.51100000000E-03 0.  1.
         11    1    1    0    0    0  0.23682156309E+01  0.21463666339E+00  0.28778997110E+01  0.37332052153E+01  0.51100000000E-03 0. -1.
         22    1    1    0    0    0 -0.35893902980E+02 -0.38310573433E+01 -0.51014667285E+02  0.62494364143E+02  0.00000000000E+00 0.  1.
</event>
<event>
 4    1  0.1976955E-002  0.9118800E+02  0.7818608E-02  0.1130116E+00
         25   -1    0    0    0    0  0.00000000000E+00  0.00000000000E+00  0.99999998245E-14  0.12500000000E+03  0.12500000000E+03 0.  0.
        -11    1    1    0    0    0 -0.25148981646E+02  0.35800404938E+02  0.42672791859E+02  0.61115525334E+02  0.51100000000E-03 0. -1.
         11    1    1    0    0    0 -0.56500086255E+00  0.81632597560E+00  0.96497773570E+00  0.13844841511E+01  0.51100000000E-03 0.  1.
         22    1    1    0    0    0  0.25713982509E+02 -0.36616730913E+02 -0.43637769594E+02  0.62499990515E+02  0.00000000000E+00 0. -1.
</event>
<event>
 4    1  0.1976955E-002  0.9118800E+02  0.7818608E-02  0.1130116E+00
         25   -1    0    0    0    0  0.00000000000E+00  0.00000000000E+00  0.99999998245E-14  0.12500000000E+03  0.12500000000E+03 0.  0.
        -11    1    1    0    0    0  0.11556684126E+01 -0.95326874929E+01 -0.14716801674E+02  0.17572477119E+02  0.51100000000E-03 0. -1.
         11    1    1    0    0    0  0.16539518626E+02  0.22958418016E+02 -0.39642679422E+02  0.48705098975E+02  0.51100000000E-03 0.  1.
         22    1    1    0    0    0 -0.17695187039E+02 -0.13425730523E+02  0.54359481096E+02  0.58722423906E+02  0.00000000000E+00 0.  1.
</event>
<event>
 4    1  0.1976955E-002  0.9118800E+02  0.7818608E-02  0.1130116E+00
         25   -1    0    0    0    0  0.00000000000E+00  0.00000000000E+00  0.99999998245E-14  0.12500000000E+03  0.12500000000E+03 0.  0.
        -11    1    1    0    0    0 -0.74355143380E+01 -0.11262206458E+01  0.88500695555E+01  0.11613740905E+02  0.51100000000E-03 0. -1.
         11    1    1    0    0    0 -0.38679426022E+02  0.99946038214E+01  0.31968187428E+02  0.51165956559E+02  0.51100000000E-03 0.  1.
         22    1    1    0    0    0  0.46114940360E+02 -0.88683831755E+01 -0.40818256983E+02  0.62220302536E+02  0.00000000000E+00 0.  1.
</event>
<event>
 4    1  0.1976955E-002  0.9118800E+02  0.7818608E-02  0.1130116E+00
         25   -1    0    0    0    0  0.00000000000E+00  0.00000000000E+00  0.99999998245E-14  0.12500000000E+03  0.12500000000E+03 0.  0.
        -11    1    1    0    0    0  0.36290760141E+02 -0.43866731463E+02 -0.36471569944E+01  0.57049199427E+02  0.51100000000E-03 0.  1.
         11    1    1    0    0    0  0.31627292156E+01 -0.44234726813E+01 -0.46285376953E+00  0.54574903139E+01  0.51100000000E-03 0. -1.
         22    1    1    0    0    0 -0.39453489356E+02  0.48290204144E+02  0.41100107639E+01  0.62493310259E+02  0.00000000000E+00 0.  1.
</event>
<event>
 4    1  0.1976955E-002  0.9118800E+02  0.7818608E-02  0.1130116E+00
         25   -1    0    0    0    0  0.00000000000E+00  0.00000000000E+00  0.99999998245E-14  0.12500000000E+03  0.12500000000E+03 0.  0.
        -11    1    1    0    0    0 -0.22592652987E+02  0.30152937064E+02 -0.43154862232E+02  0.57288478048E+02  0.51100000000E-03 0. -1.
         11    1    1    0    0    0 -0.20534843949E+01  0.27436953115E+01 -0.39262323606E+01  0.52115221321E+01  0.51100000000E-03 0. -1.
         22    1    1    0    0    0  0.24646137382E+02 -0.32896632375E+02  0.47081094592E+02  0.62499999820E+02  0.00000000000E+00 0. -1.
</event>
<event>
 4    1  0.1976955E-002  0.9118800E+02  0.7818608E-02  0.1130116E+00
         25   -1    0    0    0    0  0.00000000000E+00  0.00000000000E+00  0.99999998245E-14  0.12500000000E+03  0.12500000000E+03 0.  0.
        -11    1    1    0    0    0  0.46787823014E+00  0.49346245753E+00  0.23211881612E+00  0.71853645777E+00  0.51100000000E-03 0.  1.
         11    1    1    0    0    0  0.31802460519E+02  0.50853106525E+02  0.14848587847E+02  0.61789283049E+02  0.51100000000E-03 0. -1.
         22    1    1    0    0    0 -0.32270338750E+02 -0.51346568983E+02 -0.15080706664E+02  0.62492180493E+02  0.00000000000E+00 0. -1.
</event>
<event>
 4    1  0.1976955E-002  0.9118800E+02  0.7818608E-02  0.1130116E+00
         25   -1    0    0    0    0  0.00000000000E+00  0.00000000000E+00  0.99999998245E-14  0.12500000000E+03  0.12500000000E+03 0.  0.
        -11    1    1    0    0    0  0.56388886420E+01 -0.41789462671E+01  0.22143321872E+01  0.73596144136E+01  0.51100000000E-03 0. -1.
         11    1    1    0    0    0  0.43348710084E+02 -0.29260136358E+02  0.17480308620E+02  0.55143698056E+02  0.51100000000E-03 0.  1.
         22    1    1    0    0    0 -0.48987598726E+02  0.33439082626E+02 -0.19694640807E+02  0.62496687530E+02  0.00000000000E+00 0.  1.
</event>
<event>
 4    1  0.1976955E-002  0.9118800E+02  0.7818608E-02  0.1130116E+00
         25   -1    0    0    0    0  0.00000000000E+00  0.00000000000E+00  0.99999998245E-14  0.12500000000E+03  0.12500000000E+03 0.  0.
        -11    1    1    0    0    0  0.40270650790E+02 -0.21594525422E+02 -0.26928240107E+02  0.53039409488E+02  0.51100000000E-03 0.  1.
         11    1    1    0    0    0  0.72053329642E+01 -0.38375907462E+01 -0.47811451700E+01  0.94606170654E+01  0.51100000000E-03 0. -1.
         22    1    1    0    0    0 -0.47475983754E+02  0.25432116169E+02  0.31709385277E+02  0.62499973447E+02  0.00000000000E+00 0.  1.
</event>
<event>
 4    1  0.1976955E-002  0.9118800E+02  0.7818608E-02  0.1130116E+00
         25   -1    0    0    0    0  0.00000000000E+00  0.00000000000E+00  0.99999998245E-14  0.12500000000E+03  0.12500000000E+03 0.  0.
        -11    1    1    0    0    0  0.74265024687E+01 -0.23146614948E+02 -0.70342100994E+01  0.25306102712E+02  0.51100000000E-03 0.  1.
         11    1    1    0    0    0  0.10876028306E+02 -0.34010623976E+02 -0.10410419430E+02  0.37193915738E+02  0.51100000000E-03 0. -1.
         22    1    1    0    0    0 -0.18302530775E+02  0.57157238925E+02  0.17444629530E+02  0.62499981550E+02  0.00000000000E+00 0. -1.
</event>
<event>
 4    1  0.1976955E-002  0.9118800E+02  0.7818608E-02  0.1130116E+00
         25   -1    0    0    0    0  0.00000000000E+00  0.00000000000E+00  0.99999998245E-14  0.12500000000E+03  0.12500000000E+03 0.  0.
        -11    1    1    0    0    0 -0.20561343754E+01  0.61522378458E+01  0.70175480998E+01  0.95563434783E+01  0.51100000000E-03 0.  1.
         11    1    1    0    0    0 -0.11630795896E+02  0.34059389411E+02  0.38829344086E+02  0.52943700122E+02  0.51100000000E-03 0. -1.
         22    1    1    0    0    0  0.13686930271E+02 -0.40211627257E+02 -0.45846892186E+02  0.62499956400E+02  0.00000000000E+00 0. -1.
</event>
<event>
 4    1  0.1976955E-002  0.9118800E+02  0.7818608E-02  0.1130116E+00
         25   -1    0    0    0    0  0.00000000000E+00  0.00000000000E+00  0.99999998245E-14  0.12500000000E+03  0.12500000000E+03 0.  0.
        -11    1    1    0    0    0 -0.43707773999E+02  0.86739718065E+01  0.51429330822E+00  0.44563121443E+02  0.51100000000E-03 0. -1.
         11    1    1    0    0    0 -0.17152251521E+02  0.53696073000E+01  0.16597172707E+00  0.17973868856E+02  0.51100000000E-03 0.  1.
         22    1    1    0    0    0  0.60860025520E+02 -0.14043579106E+02 -0.68026503529E+00  0.62463009701E+02  0.00000000000E+00 0. -1.
</event>
<event>
 4    1  0.1976955E-002  0.9118800E+02  0.7818608E-02  0.1130116E+00
         25   -1    0    0    0    0  0.00000000000E+00  0.00000000000E+00  0.99999998245E-14  0.12500000000E+03  0.12500000000E+03 0.  0.
        -11    1    1    0    0    0  0.10723607122E+02 -0.24741440238E+02  0.13745845662E+02  0.30266861218E+02  0.51100000000E-03 0.  1.
         11    1    1    0    0    0  0.11329991349E+02 -0.26434824613E+02  0.14553765787E+02  0.32233224399E+02  0.51100000000E-03 0. -1.
         22    1    1    0    0    0 -0.22053598472E+02  0.51176264851E+02 -0.28299611450E+02  0.62499914383E+02  0.00000000000E+00 0. -1.
</event>
<event>
 4    1  0.1976955E-002  0.9118800E+02  0.7818608E-02  0.1130116E+00
         25   -1    0    0    0    0  0.00000000000E+00  0.00000000000E+00  0.99999998245E-14  0.12500000000E+03  0.12500000000E+03 0.  0.
        -11    1    1    0    0    0 -0.30807654763E+02  0.52578004984E+01 -0.34104626858E+02  0.46258854628E+02  0.51100000000E-03 0. -1.
         11    1    1    0    0    0 -0.10730928318E+02  0.18643917561E+01 -0.12047857657E+02  0.16241294701E+02  0.51100000000E-03 0.  1.
         22    1    1    0    0    0  0.41538583081E+02 -0.71221922545E+01  0.46152484515E+02  0.62499850671E+02  0.00000000000E+00 0. -1.
</event>
<event>
 4    1  0.1976955E-002  0.9118800E+02  0.7818608E-02  0.1130116E+00
         25   -1    0    0    0    0  0.00000000000E+00  0.00000000000E+00  0.99999998245E-14  0.12500000000E+03  0.12500000000E+03 0.  0.
        -11    1    1    0    0    0 -0.35248977159E+01 -0.40326956310E+01 -0.42726676239E+01  0.68515127414E+01  0.51100000000E-03 0. -1.
         11    1    1    0    0    0 -0.27342034227E+02 -0.32988390332E+02 -0.35511450304E+02  0.55649652607E+02  0.51100000000E-03 0.  1.
         22    1    1    0    0    0  0.30866931943E+02  0.37021085963E+02  0.39784117928E+02  0.62498834651E+02  0.00000000000E+00 0.  1.
</event>
<event>
 4    1  0.1976955E-002  0.9118800E+02  0.7818608E-02  0.1130116E+00
         25   -1    0    0    0    0  0.00000000000E+00  0.00000000000E+00  0.99999998245E-14  0.12500000000E+03  0.12500000000E+03 0.  0.
        -11    1    1    0    0    0 -0.81348824267E+01 -0.14407291199E+02 -0.17835264311E+02  0.24327823682E+02  0.51100000000E-03 0. -1.
         11    1    1    0    0    0 -0.87419681101E+01 -0.26727237373E+02 -0.25954034391E+02  0.38267206920E+02  0.51100000000E-03 0.  1.
         22    1    1    0    0    0  0.16876850537E+02  0.41134528572E+02  0.43789298702E+02  0.62404969399E+02  0.00000000000E+00 0. -1.
</event>
<event>
 4    1  0.1976955E-002  0.9118800E+02  0.7818608E-02  0.1130116E+00
         25   -1    0    0    0    0  0.00000000000E+00  0.00000000000E+00  0.99999998245E-14  0.12500000000E+03  0.12500000000E+03 0.  0.
        -11    1    1    0    0    0 -0.47208265840E+01  0.14213192380E+02  0.11967406804E+01  0.15024421113E+02  0.51100000000E-03 0.  1.
         11    1    1    0    0    0 -0.23907185366E+02  0.40071013109E+02  0.96648549679E+01  0.47651327637E+02  0.51100000000E-03 0. -1.
         22    1    1    0    0    0  0.28628011950E+02 -0.54284205489E+02 -0.10861595648E+02  0.62324251250E+02  0.00000000000E+00 0. -1.
</event>
<event>
 4    1  0.1976955E-002  0.9118800E+02  0.7818608E-02  0.1130116E+00
         25   -1    0    0    0    0  0.00000000000E+00  0.00000000000E+00  0.99999998245E-14  0.12500000000E+03  0.12500000000E+03 0.  0.
        -11    1    1    0    0    0  0.16098567140E+02  0.14528707740E+02 -0.47706817470E+02  0.52404080432E+02  0.51100000000E-03 0.  1.
         11    1    1    0    0    0  0.31012817899E+01  0.28012497918E+01 -0.91903560818E+01  0.10095919686E+02  0.51100000000E-03 0. -1.
         22    1    1    0    0    0 -0.19199848930E+02 -0.17329957532E+02  0.56897173552E+02  0.62499999882E+02  0.00000000000E+00 0.  1.
</event>
<event>
 4    1  0.1976955E-002  0.9118800E+02  0.7818608E-02  0.1130116E+00
         25   -1    0    0    0    0  0.00000000000E+00  0.00000000000E+00  0.99999998245E-14  0.12500000000E+03  0.12500000000E+03 0.  0.
        -11    1    1    0    0    0 -0.40486320723E+01  0.53199284621E+00 -0.42601610246E+01  0.59011363535E+01  0.51100000000E-03 0. -1.
         11    1    1    0    0    0 -0.38831557779E+02  0.51032988801E+01 -0.40859488840E+02  0.56598863659E+02  0.51100000000E-03 0. -1.
         22    1    1    0    0    0  0.42880189851E+02 -0.56352917263E+01  0.45119649864E+02  0.62499999987E+02  0.00000000000E+00 0. -1.
</event>
<event>
 4    1  0.1976955E-002  0.9118800E+02  0.7818608E-02  0.1130116E+00
         25   -1    0    0    0    0  0.00000000000E+00  0.00000000000E+00  0.99999998245E-14  0.12500000000E+03  0.12500000000E+03 0.  0.
        -11    1    1    0    0    0  0.22395265411E+02 -0.86415577140E+01 -0.59542104960E+01  0.24732105762E+02  0.51100000000E-03 0.  1.
         11    1    1    0    0    0 -0.10433146373E+02 -0.38801270649E+02 -0.20000670256E+02  0.44882245467E+02  0.51100000000E-03 0. -1.
         22    1    1    0    0    0 -0.11962119038E+02  0.47442828363E+02  0.25954880752E+02  0.55385648771E+02  0.00000000000E+00 0. -1.
</event>
<event>
 4    1  0.1976955E-002  0.9118800E+02  0.7818608E-02  0.1130116E+00
         25   -1    0    0    0    0  0.00000000000E+00  0.00000000000E+00  0.99999998245E-14  0.12500000000E+03  0.12500000000E+03 0.  0.
        -11    1    1    0    0    0 -0.19415255237E+00  0.47313141963E+00 -0.86528412259E+00  0.10051196087E+01  0.51100000000E-03 0.  1.
         11    1    1    0    0    0 -0.18593141049E+02  0.29634639057E+02 -0.50577809256E+02  0.61498223678E+02  0.51100000000E-03 0. -1.
         22    1    1    0    0    0  0.18787293601E+02 -0.30107770477E+02  0.51443093379E+02  0.62496656713E+02  0.00000000000E+00 0. -1.
</event>
<event>
 4    1  0.1976955E-002  0.9118800E+02  0.7818608E-02  0.1130116E+00
         25   -1    0    0    0    0  0.00000000000E+00  0.00000000000E+00  0.99999998245E-14  0.12500000000E+03  0.12500000000E+03 0.  0.
        -11    1    1    0    0    0 -0.25520126024E+01 -0.61550933143E+02 -0.22248308528E+01  0.61643977903E+02  0.51100000000E-03 0.  1.
         11    1    1    0    0    0 -0.35238919242E-01 -0.85470610483E+00 -0.31777319694E-01  0.85602240989E+00  0.51100000000E-03 0.  1.
         22    1    1    0    0    0  0.25872515217E+01  0.62405639248E+02  0.22566081725E+01  0.62499999687E+02  0.00000000000E+00 0.  1.
</event>
<event>
 4    1  0.1976955E-002  0.9118800E+02  0.7818608E-02  0.1130116E+00
         25   -1    0    0    0    0  0.00000000000E+00  0.00000000000E+00  0.99999998245E-14  0.12500000000E+03  0.12500000000E+03 0.  0.
        -11    1    1    0    0    0 -0.30108829714E+02  0.36114860884E+02 -0.42145401192E+01  0.47207914083E+02  0.51100000000E-03 0.  1.
         11    1    1    0    0    0 -0.12428497237E+02  0.92403083951E+01  0.35697414263E+00  0.15491232153E+02  0.51100000000E-03 0. -1.
         22    1    1    0    0    0  0.42537326951E+02 -0.45355169279E+02  0.38575659766E+01  0.62300853764E+02  0.00000000000E+00 0.  1.
</event>
<event>
 4    1  0.1976955E-002  0.9118800E+02  0.7818608E-02  0.1130116E+00
         25   -1    0    0    0    0  0.00000000000E+00  0.00000000000E+00  0.99999998245E-14  0.12500000000E+03  0.12500000000E+03 0.  0.
        -11    1    1    0    0    0 -0.26076441407E+02  0.11275966808E+02  0.13320610895E+02  0.31377809018E+02  0.51100000000E-03 0. -1.
         11    1    1    0    0    0 -0.25895966013E+02  0.11281823580E+02  0.13065917094E+02  0.31122319785E+02  0.51100000000E-03 0.  1.
         22    1    1    0    0    0  0.51972407421E+02 -0.22557790388E+02 -0.26386527989E+02  0.62499871196E+02  0.00000000000E+00 0. -1.
</event>
<event>
 4    1  0.1976955E-002  0.9118800E+02  0.7818608E-02  0.1130116E+00
         25   -1    0    0    0    0  0.00000000000E+00  0.00000000000E+00  0.99999998245E-14  0.12500000000E+03  0.12500000000E+03 0.  0.
        -11    1    1    0    0    0 -0.42268205656E+02  0.20116629833E+02  0.27001325449E+02  0.54040277400E+02  0.51100000000E-03 0. -1.
         11    1    1    0    0    0 -0.65085131848E+01  0.31769778752E+01  0.43735199330E+01  0.84605915373E+01  0.51100000000E-03 0.  1.
         22    1    1    0    0    0  0.48776718840E+02 -0.23293607708E+02 -0.31374845382E+02  0.62499131063E+02  0.00000000000E+00 0. -1.
</event>
<event>
 4    1  0.1976955E-002  0.9118800E+02  0.7818608E-02  0.1130116E+00
         25   -1    0    0    0    0  0.00000000000E+00  0.00000000000E+00  0.99999998245E-14  0.12500000000E+03  0.12500000000E+03 0.  0.
        -11    1    1    0    0    0  0.68769677933E+00  0.42861742200E+01  0.30109643973E+00  0.43514222539E+01  0.51100000000E-03 0.  1.
         11    1    1    0    0    0  0.91890007371E+01  0.57276930126E+02  0.40215216658E+01  0.58148577764E+02  0.51100000000E-03 0.  1.
         22    1    1    0    0    0 -0.98766975164E+01 -0.61563104346E+02 -0.43226181055E+01  0.62499999982E+02  0.00000000000E+00 0.  1.
</event>
<event>
 4    1  0.1976955E-002  0.9118800E+02  0.7818608E-02  0.1130116E+00
         25   -1    0    0    0    0  0.00000000000E+00  0.00000000000E+00  0.99999998245E-14  0.12500000000E+03  0.12500000000E+03 0.  0.
        -11    1    1    0    0    0  0.36015815324E+01  0.20059768346E+01  0.46415847757E+01  0.62080304515E+01  0.51100000000E-03 0. -1.
         11    1    1    0    0    0 -0.37546947873E+02  0.45752108163E+02 -0.97209024628E+01  0.59979368460E+02  0.51100000000E-03 0.  1.
         22    1    1    0    0    0  0.33945366340E+02 -0.47758084998E+02  0.50793176871E+01  0.58812601088E+02  0.00000000000E+00 0.  1.
</event>
<event>
 4    1  0.1976955E-002  0.9118800E+02  0.7818608E-02  0.1130116E+00
         25   -1    0    0    0    0  0.00000000000E+00  0.00000000000E+00  0.99999998245E-14  0.12500000000E+03  0.12500000000E+03 0.  0.
        -11    1    1    0    0    0 -0.40096085680E+02  0.43484406214E+02 -0.10063222080E+02  0.59998817568E+02  0.51100000000E-03 0. -1.
         11    1    1    0    0    0 -0.22428005680E+01  0.12057654733E+01  0.11646535694E+01  0.28000790992E+01  0.51100000000E-03 0.  1.
         22    1    1    0    0    0  0.42338886248E+02 -0.44690171688E+02  0.88985685109E+01  0.62201103332E+02  0.00000000000E+00 0. -1.
</event>
<event>
 4    1  0.1976955E-002  0.9118800E+02  0.7818608E-02  0.1130116E+00
         25   -1    0    0    0    0  0.00000000000E+00  0.00000000000E+00  0.99999998245E-14  0.12500000000E+03  0.12500000000E+03 0.  0.
        -11    1    1    0    0    0  0.52320827133E+02  0.15611143072E+02  0.68451088761E+01  0.55027559057E+02  0.51100000000E-03 0.  1.
         11    1    1    0    0    0  0.71040980370E+01  0.21217193161E+01  0.93138337707E+00  0.74724411695E+01  0.51100000000E-03 0. -1.
         22    1    1    0    0    0 -0.59424925170E+02 -0.17732862388E+02 -0.77764922532E+01  0.62499999774E+02  0.00000000000E+00 0.  1.
</event>
<event>
 4    1  0.1976955E-002  0.9118800E+02  0.7818608E-02  0.1130116E+00
         25   -1    0    0    0    0  0.00000000000E+00  0.00000000000E+00  0.99999998245E-14  0.12500000000E+03  0.12500000000E+03 0.  0.
        -11    1    1    0    0    0  0.34311743248E+02 -0.12734084074E+02  0.51034602368E+01  0.36952644405E+02  0.51100000000E-03 0. -1.
         11    1    1    0    0    0  0.24952144337E+02 -0.61091022694E+01 -0.58032462470E+00  0.25695669178E+02  0.51100000000E-03 0.  1.
         22    1    1    0    0    0 -0.59263887585E+02  0.18843186343E+02 -0.45231356121E+01  0.62351686417E+02  0.00000000000E+00 0.  1.
</event>
<event>
 4    1  0.1976955E-002  0.9118800E+02  0.7818608E-02  0.1130116E+00
         25   -1    0    0    0    0  0.00000000000E+00  0.00000000000E+00  0.99999998245E-14  0.12500000000E+03  0.12500000000E+03 0.  0.
        -11    1    1    0    0    0  0.52351870311E+02 -0.30921054221E+02 -0.18536030254E+01  0.60829809827E+02  0.51100000000E-03 0.  1.
         11    1    1    0    0    0  0.14150834322E+01 -0.88609945712E+00 -0.53073456283E-01  0.16704641333E+01  0.51100000000E-03 0. -1.
         22    1    1    0    0    0 -0.53766953743E+02  0.31807153678E+02  0.19066764817E+01  0.62499726040E+02  0.00000000000E+00 0.  1.
</event>
<event>
 4    1  0.1976955E-002  0.9118800E+02  0.7818608E-02  0.1130116E+00
         25   -1    0    0    0    0  0.00000000000E+00  0.00000000000E+00  0.99999998245E-14  0.12500000000E+03  0.12500000000E+03 0.  0.
        -11    1    1    0    0    0 -0.32264295657E+01  0.92641325052E+01  0.31168261468E+01  0.10293133843E+02  0.51100000000E-03 0. -1.
         11    1    1    0    0    0 -0.89821427698E+01  0.51508449478E+02  0.32945513019E+01  0.52389439059E+02  0.51100000000E-03 0.  1.
         22    1    1    0    0    0  0.12208572336E+02 -0.60772581983E+02 -0.64113774487E+01  0.62317427098E+02  0.00000000000E+00 0.  1.
</event>
<event>
 4    1  0.1976955E-002  0.9118800E+02  0.7818608E-02  0.1130116E+00
         25   -1    0    0    0    0  0.00000000000E+00  0.00000000000E+00  0.99999998245E-14  0.12500000000E+03  0.12500000000E+03 0.  0.
        -11    1    1    0    0    0  0.15053144217E+02 -0.15102134248E+02 -0.42814027499E+02  0.47830038267E+02  0.51100000000E-03 0.  1.
         11    1    1    0    0    0  0.45952780984E+01 -0.46994201021E+01 -0.13115207538E+02  0.14670030645E+02  0.51100000000E-03 0. -1.
         22    1    1    0    0    0 -0.19648422315E+02  0.19801554350E+02  0.55929235037E+02  0.62499931088E+02  0.00000000000E+00 0.  1.
</event>
<event>
 4    1  0.1976955E-002  0.9118800E+02  0.7818608E-02  0.1130116E+00
         25   -1    0    0    0    0  0.00000000000E+00  0.00000000000E+00  0.99999998245E-14  0.12500000000E+03  0.12500000000E+03 0.  0.
        -11    1    1    0    0    0 -0.16257857454E+02 -0.15351399959E+02 -0.49553807574E+02  0.54365092248E+02  0.51100000000E-03 0. -1.
         11    1    1    0    0    0 -0.23183480636E+01 -0.22001731374E+01 -0.74815056970E+01  0.81356270400E+01  0.51100000000E-03 0.  1.
         22    1    1    0    0    0  0.18576205518E+02  0.17551573097E+02  0.57035313271E+02  0.62499280712E+02  0.00000000000E+00 0. -1.
</event>
<event>
 4    1  0.1976955E-002  0.9118800E+02  0.7818608E-02  0.1130116E+00
         25   -1    0    0    0    0  0.00000000000E+00  0.00000000000E+00  0.99999998245E-14  0.12500000000E+03  0.12500000000E+03 0.  0.
        -11    1    1    0    0    0  0.34630091001E+01 -0.29020149903E+01 -0.16074563815E+02  0.16697476610E+02  0.51100000000E-03 0. -1.
         11    1    1    0    0    0  0.82423194722E+01 -0.75048935744E+01 -0.44428207455E+02  0.45805293097E+02  0.51100000000E-03 0.  1.
         22    1    1    0    0    0 -0.11705328572E+02  0.10406908565E+02  0.60502771270E+02  0.62497230292E+02  0.00000000000E+00 0. -1.
</event>
<event>
 4    1  0.1976955E-002  0.9118800E+02  0.7818608E-02  0.1130116E+00
         25   -1    0    0    0    0  0.00000000000E+00  0.00000000000E+00  0.99999998245E-14  0.12500000000E+03  0.12500000000E+03 0.  0.
        -11    1    1    0    0    0 -0.10606698887E+02 -0.11620983811E+02  0.23764824553E+02  0.28501161596E+02  0.51100000000E-03 0. -1.
         11    1    1    0    0    0  0.28883538950E+02  0.34409857445E+02  0.15530902081E+02  0.47534261658E+02  0.51100000000E-03 0.  1.
         22    1    1    0    0    0 -0.18276840063E+02 -0.22788873634E+02 -0.39295726635E+02  0.48964576746E+02  0.00000000000E+00 0.  1.
</event>
<event>
 4    1  0.1976955E-002  0.9118800E+02  0.7818608E-02  0.1130116E+00
         25   -1    0    0    0    0  0.00000000000E+00  0.00000000000E+00  0.99999998245E-14  0.12500000000E+03  0.12500000000E+03 0.  0.
        -11    1    1    0    0    0  0.15148555926E+02 -0.12521948078E+02  0.16901179981E+02  0.25921570464E+02  0.51100000000E-03 0.  1.
         11    1    1    0    0    0  0.21353574631E+02 -0.17662421804E+02  0.23875625113E+02  0.36578433104E+02  0.51100000000E-03 0. -1.
         22    1    1    0    0    0 -0.36502130557E+02  0.30184369882E+02 -0.40776805094E+02  0.62499996432E+02  0.00000000000E+00 0. -1.
</event>
<event>
 4    1  0.1976955E-002  0.9118800E+02  0.7818608E-02  0.1130116E+00
         25   -1    0    0    0    0  0.00000000000E+00  0.00000000000E+00  0.99999998245E-14  0.12500000000E+03  0.12500000000E+03 0.  0.
        -11    1    1    0    0    0  0.30416385748E+02  0.11753091793E+02 -0.15817326372E+01  0.32646493947E+02  0.51100000000E-03 0. -1.
         11    1    1    0    0    0 -0.56439617864E+02  0.10235549686E+02  0.72479763647E+01  0.57816348065E+02  0.51100000000E-03 0.  1.
         22    1    1    0    0    0  0.26023232116E+02 -0.21988641479E+02 -0.56662437275E+01  0.34537157988E+02  0.00000000000E+00 0.  1.
</event>
<event>
 4    1  0.1976955E-002  0.9118800E+02  0.7818608E-02  0.1130116E+00
         25   -1    0    0    0    0  0.00000000000E+00  0.00000000000E+00  0.99999998245E-14  0.12500000000E+03  0.12500000000E+03 0.  0.
        -11    1    1    0    0    0  0.77342467755E+01 -0.37107262816E+02  0.32569180440E+02  0.49975184259E+02  0.51100000000E-03 0. -1.
         11    1    1    0    0    0  0.19369674016E+01 -0.92997239736E+01  0.81629836102E+01  0.12524815782E+02  0.51100000000E-03 0. -1.
         22    1    1    0    0    0 -0.96712141771E+01  0.46406986790E+02 -0.40732164050E+02  0.62499999959E+02  0.00000000000E+00 0. -1.
</event>
<event>
 4    1  0.1976955E-002  0.9118800E+02  0.7818608E-02  0.1130116E+00
         25   -1    0    0    0    0  0.00000000000E+00  0.00000000000E+00  0.99999998245E-14  0.12500000000E+03  0.12500000000E+03 0.  0.
        -11    1    1    0    0    0  0.11413690831E+02  0.24274057998E+02  0.56402567319E+00  0.26829468040E+02  0.51100000000E-03 0.  1.
         11    1    1    0    0    0  0.15177371329E+02  0.32271976878E+02  0.74415522491E+00  0.35670532087E+02  0.51100000000E-03 0. -1.
         22    1    1    0    0    0 -0.26591062160E+02 -0.56546034876E+02 -0.13081808981E+01  0.62499999874E+02  0.00000000000E+00 0. -1.
</event>
<event>
 4    1  0.1976955E-002  0.9118800E+02  0.7818608E-02  0.1130116E+00
         25   -1    0    0    0    0  0.00000000000E+00  0.00000000000E+00  0.99999998245E-14  0.12500000000E+03  0.12500000000E+03 0.  0.
        -11    1    1    0    0    0  0.11320576478E+01 -0.54191458662E+00 -0.10067257184E+02  0.10145190654E+02  0.51100000000E-03 0. -1.
         11    1    1    0    0    0  0.53484155696E+01 -0.28155375674E+01 -0.52004935239E+02  0.52355000625E+02  0.51100000000E-03 0.  1.
         22    1    1    0    0    0 -0.64804732174E+01  0.33574521540E+01  0.62072192423E+02  0.62499808722E+02  0.00000000000E+00 0.  1.
</event>
<event>
 4    1  0.1976955E-002  0.9118800E+02  0.7818608E-02  0.1130116E+00
         25   -1    0    0    0    0  0.00000000000E+00  0.00000000000E+00  0.99999998245E-14  0.12500000000E+03  0.12500000000E+03 0.  0.
        -11    1    1    0    0    0  0.30640724990E+00  0.77530767312E+01  0.19484156753E+02  0.20972278103E+02  0.51100000000E-03 0.  1.
         11    1    1    0    0    0  0.50866887552E+00  0.15260885666E+02  0.38618668489E+02  0.41527760974E+02  0.51100000000E-03 0. -1.
         22    1    1    0    0    0 -0.81507612542E+00 -0.23013962398E+02 -0.58102825242E+02  0.62499960923E+02  0.00000000000E+00 0. -1.
</event>
<event>
 4    1  0.1976955E-002  0.9118800E+02  0.7818608E-02  0.1130116E+00
         25   -1    0    0    0    0  0.00000000000E+00  0.00000000000E+00  0.99999998245E-14  0.12500000000E+03  0.12500000000E+03 0.  0.
        -11    1    1    0    0    0 -0.49312361024E-01  0.32565599541E-01 -0.15572869688E+00  0.16656504849E+00  0.51100000000E-03 0. -1.
         11    1    1    0    0    0 -0.18853364945E+02  0.11732329489E+02 -0.58243975877E+02  0.62333439270E+02  0.51100000000E-03 0.  1.
         22    1    1    0    0    0  0.18902677306E+02 -0.11764895089E+02  0.58399704574E+02  0.62499995681E+02  0.00000000000E+00 0.  1.
</event>
<event>
 4    1  0.1976955E-002  0.9118800E+02  0.7818608E-02  0.1130116E+00
         25   -1    0    0    0    0  0.00000000000E+00  0.00000000000E+00  0.99999998245E-14  0.12500000000E+03  0.12500000000E+03 0.  0.
        -11    1    1    0    0    0  0.29198136094E+00 -0.91964490275E+00  0.19494431913E+01  0.21751618054E+01  0.51100000000E-03 0. -1.
         11    1    1    0    0    0  0.83978286027E+01 -0.25556869057E+02  0.53994543486E+02  0.60324852323E+02  0.51100000000E-03 0.  1.
         22    1    1    0    0    0 -0.86898099637E+01  0.26476513960E+02 -0.55943986677E+02  0.62499985872E+02  0.00000000000E+00 0.  1.
</event>
<event>
 4    1  0.1976955E-002  0.9118800E+02  0.7818608E-02  0.1130116E+00
         25   -1    0    0    0    0  0.00000000000E+00  0.00000000000E+00  0.99999998245E-14  0.12500000000E+03  0.12500000000E+03 0.  0.
        -11    1    1    0    0    0  0.15185727791E+02 -0.56536240335E+02 -0.67626803303E+01  0.58929505727E+02  0.51100000000E-03 0. -1.
         11    1    1    0    0    0 -0.21775009967E+00 -0.36292816047E+01 -0.40416624863E+00  0.36582032051E+01  0.51100000000E-03 0.  1.
         22    1    1    0    0    0 -0.14967977692E+02  0.60165521939E+02  0.71668465789E+01  0.62412291068E+02  0.00000000000E+00 0. -1.
</event>
<event>
 4    1  0.1976955E-002  0.9118800E+02  0.7818608E-02  0.1130116E+00
         25   -1    0    0    0    0  0.00000000000E+00  0.00000000000E+00  0.99999998245E-14  0.12500000000E+03  0.12500000000E+03 0.  0.
        -11    1    1    0    0    0 -0.24183037998E+02 -0.21454933385E+02  0.20457582877E+02  0.38257629184E+02  0.51100000000E-03 0. -1.
         11    1    1    0    0    0 -0.14224124173E+02 -0.14069513264E+02  0.13712275721E+02  0.24254966866E+02  0.51100000000E-03 0.  1.
         22    1    1    0    0    0  0.38407162170E+02  0.35524446650E+02 -0.34169858598E+02  0.62487403950E+02  0.00000000000E+00 0.  1.
</event>
<event>
 4    1  0.1976955E-002  0.9118800E+02  0.7818608E-02  0.1130116E+00
         25   -1    0    0    0    0  0.00000000000E+00  0.00000000000E+00  0.99999998245E-14  0.12500000000E+03  0.12500000000E+03 0.  0.
        -11    1    1    0    0    0 -0.32096100683E+01 -0.11078086700E+02 -0.22228463209E+01  0.11745920473E+02  0.51100000000E-03 0.  1.
         11    1    1    0    0    0 -0.13801791825E+02 -0.47858740689E+02 -0.97483554620E+01  0.50754102814E+02  0.51100000000E-03 0. -1.
         22    1    1    0    0    0  0.17011401894E+02  0.58936827389E+02  0.11971201783E+02  0.62499976714E+02  0.00000000000E+00 0. -1.
</event>
<event>
 4    1  0.1976955E-002  0.9118800E+02  0.7818608E-02  0.1130116E+00
         25   -1    0    0    0    0  0.00000000000E+00  0.00000000000E+00  0.99999998245E-14  0.12500000000E+03  0.12500000000E+03 0.  0.
        -11    1    1    0    0    0 -0.17711841761E+02 -0.41549559003E+02  0.30763606989E+02  0.54648647807E+02  0.51100000000E-03 0.  1.
         11    1    1    0    0    0 -0.24009262300E+01 -0.58511042463E+01  0.46565571340E+01  0.78538775307E+01  0.51100000000E-03 0. -1.
         22    1    1    0    0    0  0.20112767991E+02  0.47400663249E+02 -0.35420164123E+02  0.62497474663E+02  0.00000000000E+00 0.  1.
</event>
<event>
 4    1  0.1976955E-002  0.9118800E+02  0.7818608E-02  0.1130116E+00
         25   -1    0    0    0    0  0.00000000000E+00  0.00000000000E+00  0.99999998245E-14  0.12500000000E+03  0.12500000000E+03 0.  0.
        -11    1    1    0    0    0  0.28883968549E+01  0.44176733185E+01 -0.10853725270E+02  0.12069052425E+02  0.51100000000E-03 0.  1.
         11    1    1    0    0    0  0.12076219121E+02  0.18458753143E+02 -0.45351073226E+02  0.50430947631E+02  0.51100000000E-03 0. -1.
         22    1    1    0    0    0 -0.14964615976E+02 -0.22876426462E+02  0.56204798497E+02  0.62499999944E+02  0.00000000000E+00 0.  1.
</event>
<event>
 4    1  0.1976955E-002  0.9118800E+02  0.7818608E-02  0.1130116E+00
         25   -1    0    0    0    0  0.00000000000E+00  0.00000000000E+00  0.99999998245E-14  0.12500000000E+03  0.12500000000E+03 0.  0.
        -11    1    1    0    0    0 -0.19239478197E+01 -0.81837575382E+01 -0.91398283145E+01  0.12418209393E+02  0.51100000000E-03 0. -1.
         11    1    1    0    0    0 -0.79455721358E+01 -0.32984391733E+02 -0.36838662782E+02  0.50081825950E+02  0.51100000000E-03 0.  1.
         22    1    1    0    0    0  0.98695199555E+01  0.41168149272E+02  0.45978491097E+02  0.62499964657E+02  0.00000000000E+00 0.  1.
</event>
<event>
 4    1  0.1976955E-002  0.9118800E+02  0.7818608E-02  0.1130116E+00
         25   -1    0    0    0    0  0.00000000000E+00  0.00000000000E+00  0.99999998245E-14  0.12500000000E+03  0.12500000000E+03 0.  0.
        -11    1    1    0    0    0  0.52926488862E+01  0.14772140619E+02  0.96684857566E+01  0.18431166208E+02  0.51100000000E-03 0. -1.
         11    1    1    0    0    0  0.11962948645E+02  0.35685105877E+02  0.22926377079E+02  0.44069918175E+02  0.51100000000E-03 0.  1.
         22    1    1    0    0    0 -0.17255597531E+02 -0.50457246496E+02 -0.32594862835E+02  0.62498915617E+02  0.00000000000E+00 0.  1.
</event>
<event>
 4    1  0.1976955E-002  0.9118800E+02  0.7818608E-02  0.1130116E+00
         25   -1    0    0    0    0  0.00000000000E+00  0.00000000000E+00  0.99999998245E-14  0.12500000000E+03  0.12500000000E+03 0.  0.
        -11    1    1    0    0    0 -0.29786360299E+01  0.67022176725E+01 -0.32012319986E+00  0.73412855449E+01  0.51100000000E-03 0. -1.
         11    1    1    0    0    0 -0.35314298380E+02  0.37698518006E+02  0.20609363732E+02  0.55614960250E+02  0.51100000000E-03 0.  1.
         22    1    1    0    0    0  0.38292934409E+02 -0.44400735678E+02 -0.20289240533E+02  0.62043754205E+02  0.00000000000E+00 0.  1.
</event>
<event>
 4    1  0.1976955E-002  0.9118800E+02  0.7818608E-02  0.1130116E+00
         25   -1    0    0    0    0  0.00000000000E+00  0.00000000000E+00  0.99999998245E-14  0.12500000000E+03  0.12500000000E+03 0.  0.
        -11    1    1    0    0    0  0.49748818343E+01 -0.80653730223E+01  0.35612510601E+01  0.10123349279E+02  0.51100000000E-03 0. -1.
         11    1    1    0    0    0  0.25675412231E+02 -0.41740558243E+02  0.18488190999E+02  0.52376657036E+02  0.51100000000E-03 0.  1.
         22    1    1    0    0    0 -0.30650294065E+02  0.49805931265E+02 -0.22049442059E+02  0.62499993684E+02  0.00000000000E+00 0.  1.
</event>
<event>
 4    1  0.1976955E-002  0.9118800E+02  0.7818608E-02  0.1130116E+00
         25   -1    0    0    0    0  0.00000000000E+00  0.00000000000E+00  0.99999998245E-14  0.12500000000E+03  0.12500000000E+03 0.  0.
        -11    1    1    0    0    0  0.18468783359E+02 -0.12955109668E+02 -0.41919323021E+02  0.47604206412E+02  0.51100000000E-03 0.  1.
         11    1    1    0    0    0  0.57835478359E+01 -0.40514725155E+01 -0.13115670847E+02  0.14895793941E+02  0.51100000000E-03 0. -1.
         22    1    1    0    0    0 -0.24252331195E+02  0.17006582184E+02  0.55034993867E+02  0.62499999648E+02  0.00000000000E+00 0.  1.
</event>
<event>
 4    1  0.1976955E-002  0.9118800E+02  0.7818608E-02  0.1130116E+00
         25   -1    0    0    0    0  0.00000000000E+00  0.00000000000E+00  0.99999998245E-14  0.12500000000E+03  0.12500000000E+03 0.  0.
        -11    1    1    0    0    0 -0.48033884671E+01 -0.63195879641E+01  0.38735283474E+01  0.88325508729E+01  0.51100000000E-03 0. -1.
         11    1    1    0    0    0 -0.29800252773E+02 -0.42350339884E+02  0.14342096104E+02  0.53733621454E+02  0.51100000000E-03 0.  1.
         22    1    1    0    0    0  0.34603641240E+02  0.48669927848E+02 -0.18215624452E+02  0.62433827673E+02  0.00000000000E+00 0.  1.
</event>
<event>
 4    1  0.1976955E-002  0.9118800E+02  0.7818608E-02  0.1130116E+00
         25   -1    0    0    0    0  0.00000000000E+00  0.00000000000E+00  0.99999998245E-14  0.12500000000E+03  0.12500000000E+03 0.  0.
        -11    1    1    0    0    0  0.24553162369E+01 -0.13690247122E+02 -0.23909566896E+02  0.27660781506E+02  0.51100000000E-03 0.  1.
         11    1    1    0    0    0  0.49457349346E+01 -0.17680433677E+02 -0.29623788356E+02  0.34851497326E+02  0.51100000000E-03 0. -1.
         22    1    1    0    0    0 -0.74010511715E+01  0.31370680799E+02  0.53533355252E+02  0.62487721168E+02  0.00000000000E+00 0.  1.
</event>
<event>
 4    1  0.1976955E-002  0.9118800E+02  0.7818608E-02  0.1130116E+00
         25   -1    0    0    0    0  0.00000000000E+00  0.00000000000E+00  0.99999998245E-14  0.12500000000E+03  0.12500000000E+03 0.  0.
        -11    1    1    0    0    0 -0.12281701125E+01 -0.14601182528E+02  0.17967811809E+02  0.23185020908E+02  0.51100000000E-03 0. -1.
         11    1    1    0    0    0 -0.69833195810E+01 -0.18583065805E+02  0.34141308593E+02  0.39493367035E+02  0.51100000000E-03 0.  1.
         22    1    1    0    0    0  0.82114896936E+01  0.33184248333E+02 -0.52109120402E+02  0.62321612057E+02  0.00000000000E+00 0.  1.
</event>
<event>
 4    1  0.1976955E-002  0.9118800E+02  0.7818608E-02  0.1130116E+00
         25   -1    0    0    0    0  0.00000000000E+00  0.00000000000E+00  0.99999998245E-14  0.12500000000E+03  0.12500000000E+03 0.  0.
        -11    1    1    0    0    0  0.29069145638E+02 -0.10618190013E+02  0.47590318793E+02  0.56767945448E+02  0.51100000000E-03 0. -1.
         11    1    1    0    0    0  0.27769030828E+01 -0.80353247939E+00  0.49551946523E+01  0.57367943557E+01  0.51100000000E-03 0.  1.
         22    1    1    0    0    0 -0.31846048721E+02  0.11421722492E+02 -0.52545513445E+02  0.62495260197E+02  0.00000000000E+00 0. -1.
</event>
<event>
 4    1  0.1976955E-002  0.9118800E+02  0.7818608E-02  0.1130116E+00
         25   -1    0    0    0    0  0.00000000000E+00  0.00000000000E+00  0.99999998245E-14  0.12500000000E+03  0.12500000000E+03 0.  0.
        -11    1    1    0    0    0 -0.17148547087E+02 -0.37134056846E+02 -0.65912204283E+00  0.40907765609E+02  0.51100000000E-03 0.  1.
         11    1    1    0    0    0 -0.90687096704E+01 -0.19591283016E+02 -0.40743688238E+00  0.21592264132E+02  0.51100000000E-03 0. -1.
         22    1    1    0    0    0  0.26217256757E+02  0.56725339862E+02  0.10665589252E+01  0.62499970258E+02  0.00000000000E+00 0.  1.
</event>
<event>
 4    1  0.1976955E-002  0.9118800E+02  0.7818608E-02  0.1130116E+00
         25   -1    0    0    0    0  0.00000000000E+00  0.00000000000E+00  0.99999998245E-14  0.12500000000E+03  0.12500000000E+03 0.  0.
        -11    1    1    0    0    0 -0.45769318167E+02 -0.30134900064E+02 -0.13786510078E+02  0.56506730110E+02  0.51100000000E-03 0.  1.
         11    1    1    0    0    0 -0.48548145735E+01 -0.31948051276E+01 -0.14639951689E+01  0.59932700975E+01  0.51100000000E-03 0. -1.
         22    1    1    0    0    0  0.50624132740E+02  0.33329705192E+02  0.15250505247E+02  0.62499999793E+02  0.00000000000E+00 0.  1.
</event>
<event>
 4    1  0.1976955E-002  0.9118800E+02  0.7818608E-02  0.1130116E+00
         25   -1    0    0    0    0  0.00000000000E+00  0.00000000000E+00  0.99999998245E-14  0.12500000000E+03  0.12500000000E+03 0.  0.
        -11    1    1    0    0    0 -0.75746610261E-01  0.30601374349E+02 -0.31147059838E+02  0.43664507171E+02  0.51100000000E-03 0. -1.
         11    1    1    0    0    0  0.41779018248E+00  0.43991957270E+01 -0.19375264223E+02  0.19872803920E+02  0.51100000000E-03 0.  1.
         22    1    1    0    0    0 -0.34204357222E+00 -0.35000570076E+02  0.50522324061E+02  0.61462688910E+02  0.00000000000E+00 0. -1.
</event>
<event>
 4    1  0.1976955E-002  0.9118800E+02  0.7818608E-02  0.1130116E+00
         25   -1    0    0    0    0  0.00000000000E+00  0.00000000000E+00  0.99999998245E-14  0.12500000000E+03  0.12500000000E+03 0.  0.
        -11    1    1    0    0    0 -0.39607237559E+02 -0.68275347020E+01 -0.44725928946E+02  0.60131166773E+02  0.51100000000E-03 0.  1.
         11    1    1    0    0    0 -0.15588875528E+01 -0.28902856797E+00 -0.17600849608E+01  0.23688746792E+01  0.51100000000E-03 0. -1.
         22    1    1    0    0    0  0.41166125112E+02  0.71165632700E+01  0.46486013907E+02  0.62499958548E+02  0.00000000000E+00 0.  1.
</event>
<event>
 4    1  0.1976955E-002  0.9118800E+02  0.7818608E-02  0.1130116E+00
         25   -1    0    0    0    0  0.00000000000E+00  0.00000000000E+00  0.99999998245E-14  0.12500000000E+03  0.12500000000E+03 0.  0.
        -11    1    1    0    0    0  0.13229065205E+02 -0.14976878036E+00  0.59267741890E+02  0.60726401391E+02  0.51100000000E-03 0. -1.
         11    1    1    0    0    0  0.38552858825E+00 -0.31057075608E-02  0.17311877736E+01  0.17735989699E+01  0.51100000000E-03 0.  1.
         22    1    1    0    0    0 -0.13614593794E+02  0.15287448792E+00 -0.60998929664E+02  0.62499999639E+02  0.00000000000E+00 0. -1.
</event>
<event>
 4    1  0.1976955E-002  0.9118800E+02  0.7818608E-02  0.1130116E+00
         25   -1    0    0    0    0  0.00000000000E+00  0.00000000000E+00  0.99999998245E-14  0.12500000000E+03  0.12500000000E+03 0.  0.
        -11    1    1    0    0    0 -0.23197285008E+02 -0.33890476417E+02 -0.18884801506E+02  0.45203032550E+02  0.51100000000E-03 0. -1.
         11    1    1    0    0    0 -0.89751005295E+01 -0.12790111595E+02 -0.74212148718E+01  0.17297797968E+02  0.51100000000E-03 0.  1.
         22    1    1    0    0    0  0.32172385538E+02  0.46680588011E+02  0.26306016378E+02  0.62499169482E+02  0.00000000000E+00 0. -1.
</event>
<event>
 4    1  0.1976955E-002  0.9118800E+02  0.7818608E-02  0.1130116E+00
         25   -1    0    0    0    0  0.00000000000E+00  0.00000000000E+00  0.99999998245E-14  0.12500000000E+03  0.12500000000E+03 0.  0.
        -11    1    1    0    0    0 -0.12356237781E+02  0.90847594301E+01  0.27419496991E+01  0.15579722540E+02  0.51100000000E-03 0. -1.
         11    1    1    0    0    0 -0.37032891867E+02  0.27782150544E+02  0.76357010522E+01  0.46921070957E+02  0.51100000000E-03 0.  1.
         22    1    1    0    0    0  0.49389129649E+02 -0.36866909974E+02 -0.10377650751E+02  0.62499206504E+02  0.00000000000E+00 0.  1.
</event>
<event>
 4    1  0.1976955E-002  0.9118800E+02  0.7818608E-02  0.1130116E+00
         25   -1    0    0    0    0  0.00000000000E+00  0.00000000000E+00  0.99999998245E-14  0.12500000000E+03  0.12500000000E+03 0.  0.
        -11    1    1    0    0    0  0.38083998150E+02  0.12359685433E+02 -0.39208904923E+02  0.56040083552E+02  0.51100000000E-03 0.  1.
         11    1    1    0    0    0  0.48718419821E+01  0.93440117202E+00 -0.41700684223E+01  0.64805417024E+01  0.51100000000E-03 0. -1.
         22    1    1    0    0    0 -0.42955840132E+02 -0.13294086605E+02  0.43378973345E+02  0.62479374745E+02  0.00000000000E+00 0.  1.
</event>
<event>
 4    1  0.1976955E-002  0.9118800E+02  0.7818608E-02  0.1130116E+00
         25   -1    0    0    0    0  0.00000000000E+00  0.00000000000E+00  0.99999998245E-14  0.12500000000E+03  0.12500000000E+03 0.  0.
        -11    1    1    0    0    0 -0.10533840835E+01  0.16993076119E+01  0.17218879395E+01  0.26385910492E+01  0.51100000000E-03 0.  1.
         11    1    1    0    0    0 -0.23929166534E+02  0.38519493822E+02  0.39077255731E+02  0.59861409364E+02  0.51100000000E-03 0. -1.
         22    1    1    0    0    0  0.24982550617E+02 -0.40218801434E+02 -0.40799143671E+02  0.62499999587E+02  0.00000000000E+00 0. -1.
</event>
<event>
 4    1  0.1976955E-002  0.9118800E+02  0.7818608E-02  0.1130116E+00
         25   -1    0    0    0    0  0.00000000000E+00  0.00000000000E+00  0.99999998245E-14  0.12500000000E+03  0.12500000000E+03 0.  0.
        -11    1    1    0    0    0  0.22733489786E+02  0.72723595935E+01  0.52429891850E+02  0.57607224648E+02  0.51100000000E-03 0.  1.
         11    1    1    0    0    0  0.19305915196E+01  0.62108798617E+00  0.44526758376E+01  0.48927759276E+01  0.51100000000E-03 0. -1.
         22    1    1    0    0    0 -0.24664081306E+02 -0.78934475797E+01 -0.56882567688E+02  0.62499999425E+02  0.00000000000E+00 0.  1.
</event>
<event>
 4    1  0.1976955E-002  0.9118800E+02  0.7818608E-02  0.1130116E+00
         25   -1    0    0    0    0  0.00000000000E+00  0.00000000000E+00  0.99999998245E-14  0.12500000000E+03  0.12500000000E+03 0.  0.
        -11    1    1    0    0    0 -0.11524003816E+02  0.98249514049E+01  0.10417647704E+02  0.18380960747E+02  0.51100000000E-03 0. -1.
         11    1    1    0    0    0 -0.26519073443E+02  0.18635470137E+02  0.30058258777E+02  0.44204535112E+02  0.51100000000E-03 0.  1.
         22    1    1    0    0    0  0.38043077259E+02 -0.28460421542E+02 -0.40475906481E+02  0.62414504141E+02  0.00000000000E+00 0.  1.
</event>
<event>
 4    1  0.1976955E-002  0.9118800E+02  0.7818608E-02  0.1130116E+00
         25   -1    0    0    0    0  0.00000000000E+00  0.00000000000E+00  0.99999998245E-14  0.12500000000E+03  0.12500000000E+03 0.  0.
        -11    1    1    0    0    0 -0.26046796781E-01 -0.14492934919E+00  0.77917079255E-01  0.16659617115E+00  0.51100000000E-03 0. -1.
         11    1    1    0    0    0 -0.92003489878E+01 -0.60430290987E+02  0.12223766972E+02  0.62336882898E+02  0.51100000000E-03 0.  1.
         22    1    1    0    0    0  0.92263957846E+01  0.60575220336E+02 -0.12301684051E+02  0.62496520930E+02  0.00000000000E+00 0.  1.
</event>
<event>
 4    1  0.1976955E-002  0.9118800E+02  0.7818608E-02  0.1130116E+00
         25   -1    0    0    0    0  0.00000000000E+00  0.00000000000E+00  0.99999998245E-14  0.12500000000E+03  0.12500000000E+03 0.  0.
        -11    1    1    0    0    0 -0.13024938595E+01 -0.11257903395E+02  0.53421256412E+02  0.54610141146E+02  0.51100000000E-03 0.  1.
         11    1    1    0    0    0 -0.25144669606E+01 -0.96872697597E+01  0.26999192621E+01  0.10366065009E+02  0.51100000000E-03 0. -1.
         22    1    1    0    0    0  0.38169608201E+01  0.20945173155E+02 -0.56121175674E+02  0.60023793844E+02  0.00000000000E+00 0.  1.
</event>
<event>
 4    1  0.1976955E-002  0.9118800E+02  0.7818608E-02  0.1130116E+00
         25   -1    0    0    0    0  0.00000000000E+00  0.00000000000E+00  0.99999998245E-14  0.12500000000E+03  0.12500000000E+03 0.  0.
        -11    1    1    0    0    0 -0.54587629097E+02  0.12031234090E+02 -0.21806682195E+02  0.60000760268E+02  0.51100000000E-03 0. -1.
         11    1    1    0    0    0 -0.18049753695E+01  0.18740024739E+01 -0.72387205570E+00  0.27007059024E+01  0.51100000000E-03 0.  1.
         22    1    1    0    0    0  0.56392604466E+02 -0.13905236564E+02  0.22530554251E+02  0.62298533829E+02  0.00000000000E+00 0. -1.
</event>
<event>
 4    1  0.1976955E-002  0.9118800E+02  0.7818608E-02  0.1130116E+00
         25   -1    0    0    0    0  0.00000000000E+00  0.00000000000E+00  0.99999998245E-14  0.12500000000E+03  0.12500000000E+03 0.  0.
        -11    1    1    0    0    0 -0.90860545384E+01  0.35588792043E+02  0.25726528003E+02  0.44843870814E+02  0.51100000000E-03 0. -1.
         11    1    1    0    0    0 -0.82553069591E+01  0.14313064706E+02  0.70727476428E+01  0.17973248837E+02  0.51100000000E-03 0.  1.
         22    1    1    0    0    0  0.17341361498E+02 -0.49901856750E+02 -0.32799275646E+02  0.62182880349E+02  0.00000000000E+00 0. -1.
</event>
<event>
 4    1  0.1976955E-002  0.9118800E+02  0.7818608E-02  0.1130116E+00
         25   -1    0    0    0    0  0.00000000000E+00  0.00000000000E+00  0.99999998245E-14  0.12500000000E+03  0.12500000000E+03 0.  0.
        -11    1    1    0    0    0  0.15861479546E+02 -0.20327960814E+02 -0.26397885436E+01  0.25918738550E+02  0.51100000000E-03 0.  1.
         11    1    1    0    0    0  0.25235914856E+02 -0.23574519515E+02 -0.13072859980E+02  0.36925723247E+02  0.51100000000E-03 0. -1.
         22    1    1    0    0    0 -0.41097394402E+02  0.43902480329E+02  0.15712648524E+02  0.62155538203E+02  0.00000000000E+00 0. -1.
</event>
<event>
 4    1  0.1976955E-002  0.9118800E+02  0.7818608E-02  0.1130116E+00
         25   -1    0    0    0    0  0.00000000000E+00  0.00000000000E+00  0.99999998245E-14  0.12500000000E+03  0.12500000000E+03 0.  0.
        -11    1    1    0    0    0  0.14326340488E+00  0.10688976004E+00 -0.80542395636E+00  0.82501989951E+00  0.51100000000E-03 0.  1.
         11    1    1    0    0    0  0.12931969342E+02  0.39414926130E+01 -0.60176181330E+02  0.61676121755E+02  0.51100000000E-03 0. -1.
         22    1    1    0    0    0 -0.13075232747E+02 -0.40483823730E+01  0.60981605286E+02  0.62498858345E+02  0.00000000000E+00 0. -1.
</event>
<event>
 4    1  0.1976955E-002  0.9118800E+02  0.7818608E-02  0.1130116E+00
         25   -1    0    0    0    0  0.00000000000E+00  0.00000000000E+00  0.99999998245E-14  0.12500000000E+03  0.12500000000E+03 0.  0.
        -11    1    1    0    0    0  0.18185465425E+02 -0.53039297772E+02  0.39679969001E+01  0.56210526243E+02  0.51100000000E-03 0. -1.
         11    1    1    0    0    0  0.20354953140E+01 -0.59344876998E+01  0.44282662737E+00  0.62894738346E+01  0.51100000000E-03 0.  1.
         22    1    1    0    0    0 -0.20220960739E+02  0.58973785472E+02 -0.44108235274E+01  0.62499999922E+02  0.00000000000E+00 0. -1.
</event>
<event>
 4    1  0.1976955E-002  0.9118800E+02  0.7818608E-02  0.1130116E+00
         25   -1    0    0    0    0  0.00000000000E+00  0.00000000000E+00  0.99999998245E-14  0.12500000000E+03  0.12500000000E+03 0.  0.
        -11    1    1    0    0    0 -0.26400314190E+02  0.67307638958E+01  0.36165038557E+02  0.45279021479E+02  0.51100000000E-03 0.  1.
         11    1    1    0    0    0 -0.10036634597E+02  0.25719325365E+01  0.13755482148E+02  0.17220980239E+02  0.51100000000E-03 0. -1.
         22    1    1    0    0    0  0.36436948788E+02 -0.93026964323E+01 -0.49920520705E+02  0.62499998282E+02  0.00000000000E+00 0.  1.
</event>
<event>
 4    1  0.1976955E-002  0.9118800E+02  0.7818608E-02  0.1130116E+00
         25   -1    0    0    0    0  0.00000000000E+00  0.00000000000E+00  0.99999998245E-14  0.12500000000E+03  0.12500000000E+03 0.  0.
        -11    1    1    0    0    0  0.18352222504E+01 -0.13984571482E+02  0.16748959413E+02  0.21896664630E+02  0.51100000000E-03 0. -1.
         11    1    1    0    0    0  0.36754281090E+01 -0.25973506027E+02  0.30992145944E+02  0.40603508440E+02  0.51100000000E-03 0.  1.
         22    1    1    0    0    0 -0.55106503593E+01  0.39958077509E+02 -0.47741105357E+02  0.62499826930E+02  0.00000000000E+00 0.  1.
</event>
<event>
 4    1  0.1976955E-002  0.9118800E+02  0.7818608E-02  0.1130116E+00
         25   -1    0    0    0    0  0.00000000000E+00  0.00000000000E+00  0.99999998245E-14  0.12500000000E+03  0.12500000000E+03 0.  0.
        -11    1    1    0    0    0 -0.63243733373E+01  0.76383943376E+01  0.27687517990E+01  0.10296055213E+02  0.51100000000E-03 0. -1.
         11    1    1    0    0    0 -0.21703479330E+02  0.43415348520E+02  0.19557519686E+02  0.52330011262E+02  0.51100000000E-03 0.  1.
         22    1    1    0    0    0  0.28027852667E+02 -0.51053742858E+02 -0.22326271485E+02  0.62373933525E+02  0.00000000000E+00 0.  1.
</event>
<event>
 4    1  0.1976955E-002  0.9118800E+02  0.7818608E-02  0.1130116E+00
         25   -1    0    0    0    0  0.00000000000E+00  0.00000000000E+00  0.99999998245E-14  0.12500000000E+03  0.12500000000E+03 0.  0.
        -11    1    1    0    0    0  0.10764899365E+02  0.56653061939E+02 -0.11289531140E+02  0.58761432922E+02  0.51100000000E-03 0. -1.
         11    1    1    0    0    0  0.68551693426E+00  0.36038933221E+01 -0.72035094174E+00  0.37385674107E+01  0.51100000000E-03 0.  1.
         22    1    1    0    0    0 -0.11450416299E+02 -0.60256955261E+02  0.12009882082E+02  0.62499999667E+02  0.00000000000E+00 0. -1.
</event>
<event>
 4    1  0.1976955E-002  0.9118800E+02  0.7818608E-02  0.1130116E+00
         25   -1    0    0    0    0  0.00000000000E+00  0.00000000000E+00  0.99999998245E-14  0.12500000000E+03  0.12500000000E+03 0.  0.
        -11    1    1    0    0    0 -0.88108726424E+00 -0.52701014241E+01  0.35102747118E+01  0.63931457516E+01  0.51100000000E-03 0.  1.
         11    1    1    0    0    0 -0.77608097641E+01 -0.46178020095E+02  0.30908578617E+02  0.56106861795E+02  0.51100000000E-03 0. -1.
         22    1    1    0    0    0  0.86418970283E+01  0.51448121520E+02 -0.34418853329E+02  0.62499992453E+02  0.00000000000E+00 0. -1.
</event>
<event>
 4    1  0.1976955E-002  0.9118800E+02  0.7818608E-02  0.1130116E+00
         25   -1    0    0    0    0  0.00000000000E+00  0.00000000000E+00  0.99999998245E-14  0.12500000000E+03  0.12500000000E+03 0.  0.
        -11    1    1    0    0    0 -0.45595086137E+00 -0.71481948997E-03 -0.18218709816E+01  0.18780590602E+01  0.51100000000E-03 0.  1.
         11    1    1    0    0    0 -0.30268476953E+02  0.47487709955E+00 -0.52562703864E+02  0.60656772442E+02  0.51100000000E-03 0. -1.
         22    1    1    0    0    0  0.30724427814E+02 -0.47416228006E+00  0.54384574845E+02  0.62465168498E+02  0.00000000000E+00 0. -1.
</event>
<event>
 4    1  0.1976955E-002  0.9118800E+02  0.7818608E-02  0.1130116E+00
         25   -1    0    0    0    0  0.00000000000E+00  0.00000000000E+00  0.99999998245E-14  0.12500000000E+03  0.12500000000E+03 0.  0.
        -11    1    1    0    0    0  0.18209215752E+02  0.24616368527E+02 -0.39299807546E+02  0.49819835519E+02  0.51100000000E-03 0.  1.
         11    1    1    0    0    0  0.45276238098E+01  0.64545061388E+01 -0.99321369283E+01  0.12680984626E+02  0.51100000000E-03 0. -1.
         22    1    1    0    0    0 -0.22736839562E+02 -0.31070874666E+02  0.49231944474E+02  0.62499179855E+02  0.00000000000E+00 0.  1.
</event>
<event>
 4    1  0.1976955E-002  0.9118800E+02  0.7818608E-02  0.1130116E+00
         25   -1    0    0    0    0  0.00000000000E+00  0.00000000000E+00  0.99999998245E-14  0.12500000000E+03  0.12500000000E+03 0.  0.
        -11    1    1    0    0    0 -0.25732558989E+02  0.37774166384E+02  0.10617500729E+01  0.45718481511E+02  0.51100000000E-03 0. -1.
         11    1    1    0    0    0 -0.94439765203E+01  0.13866648110E+02  0.38308983975E+00  0.16781519014E+02  0.51100000000E-03 0.  1.
         22    1    1    0    0    0  0.35176535509E+02 -0.51640814495E+02 -0.14448399126E+01  0.62499999476E+02  0.00000000000E+00 0.  1.
</event>
<event>
 4    1  0.1976955E-002  0.9118800E+02  0.7818608E-02  0.1130116E+00
         25   -1    0    0    0    0  0.00000000000E+00  0.00000000000E+00  0.99999998245E-14  0.12500000000E+03  0.12500000000E+03 0.  0.
        -11    1    1    0    0    0 -0.33719807853E+01  0.38497940090E+01  0.10842779932E+02  0.11989872612E+02  0.51100000000E-03 0. -1.
         11    1    1    0    0    0 -0.14239368754E+02  0.16049632575E+02  0.45726641096E+02  0.50510157736E+02  0.51100000000E-03 0.  1.
         22    1    1    0    0    0  0.17611349539E+02 -0.19899426584E+02 -0.56569421029E+02  0.62499969652E+02  0.00000000000E+00 0. -1.
</event>
<event>
 4    1  0.1976955E-002  0.9118800E+02  0.7818608E-02  0.1130116E+00
         25   -1    0    0    0    0  0.00000000000E+00  0.00000000000E+00  0.99999998245E-14  0.12500000000E+03  0.12500000000E+03 0.  0.
        -11    1    1    0    0    0  0.14153584547E+02  0.52334199566E+02  0.55146619287E+01  0.54494072120E+02  0.51100000000E-03 0.  1.
         11    1    1    0    0    0  0.21005946036E+01  0.76865999770E+01  0.77416287157E+00  0.80059756000E+01  0.51100000000E-03 0. -1.
         22    1    1    0    0    0 -0.16254179151E+02 -0.60020799543E+02 -0.62888248003E+01  0.62499952280E+02  0.00000000000E+00 0.  1.
</event>
<event>
 4    1  0.1976955E-002  0.9118800E+02  0.7818608E-02  0.1130116E+00
         25   -1    0    0    0    0  0.00000000000E+00  0.00000000000E+00  0.99999998245E-14  0.12500000000E+03  0.12500000000E+03 0.  0.
        -11    1    1    0    0    0  0.42922174110E+00 -0.19653498520E+02 -0.32756310656E+02  0.38202357564E+02  0.51100000000E-03 0. -1.
         11    1    1    0    0    0 -0.69711676772E+00 -0.13067715852E+02 -0.20482871862E+02  0.24306361500E+02  0.51100000000E-03 0.  1.
         22    1    1    0    0    0  0.26789502662E+00  0.32721214372E+02  0.53239182519E+02  0.62491280936E+02  0.00000000000E+00 0. -1.
</event>
<event>
 4    1  0.1976955E-002  0.9118800E+02  0.7818608E-02  0.1130116E+00
         25   -1    0    0    0    0  0.00000000000E+00  0.00000000000E+00  0.99999998245E-14  0.12500000000E+03  0.12500000000E+03 0.  0.
        -11    1    1    0    0    0 -0.98229092956E+01 -0.16309650281E+02 -0.29392771194E+02  0.35020411734E+02  0.51100000000E-03 0. -1.
         11    1    1    0    0    0 -0.83337888440E+01 -0.13254396702E+02 -0.22588233093E+02  0.27483801464E+02  0.51100000000E-03 0.  1.
         22    1    1    0    0    0  0.18156698140E+02  0.29564046983E+02  0.51981004286E+02  0.62495786802E+02  0.00000000000E+00 0. -1.
</event>
<event>
 4    1  0.1976955E-002  0.9118800E+02  0.7818608E-02  0.1130116E+00
         25   -1    0    0    0    0  0.00000000000E+00  0.00000000000E+00  0.99999998245E-14  0.12500000000E+03  0.12500000000E+03 0.  0.
        -11    1    1    0    0    0  0.13037466297E+02 -0.28183147055E+02 -0.22216765832E+02  0.38181801812E+02  0.51100000000E-03 0.  1.
         11    1    1    0    0    0  0.83071884064E+01 -0.17949664658E+02 -0.14148318883E+02  0.24318198290E+02  0.51100000000E-03 0. -1.
         22    1    1    0    0    0 -0.21344654703E+02  0.46132811713E+02  0.36365084715E+02  0.62499999898E+02  0.00000000000E+00 0.  1.
</event>
<event>
 4    1  0.1976955E-002  0.9118800E+02  0.7818608E-02  0.1130116E+00
         25   -1    0    0    0    0  0.00000000000E+00  0.00000000000E+00  0.99999998245E-14  0.12500000000E+03  0.12500000000E+03 0.  0.
        -11    1    1    0    0    0  0.12266885814E+02 -0.97936769946E+01  0.15294943503E+02  0.21916384138E+02  0.51100000000E-03 0. -1.
         11    1    1    0    0    0  0.22717119039E+02 -0.18135605580E+02  0.28320702507E+02  0.40583615881E+02  0.51100000000E-03 0.  1.
         22    1    1    0    0    0 -0.34984004853E+02  0.27929282575E+02 -0.43615646011E+02  0.62499999981E+02  0.00000000000E+00 0. -1.
</event>
<event>
 4    1  0.1976955E-002  0.9118800E+02  0.7818608E-02  0.1130116E+00
         25   -1    0    0    0    0  0.00000000000E+00  0.00000000000E+00  0.99999998245E-14  0.12500000000E+03  0.12500000000E+03 0.  0.
        -11    1    1    0    0    0  0.30407719433E+02 -0.32136408338E+02  0.22292321445E+02  0.49541151961E+02  0.51100000000E-03 0. -1.
         11    1    1    0    0    0  0.27131086301E+01 -0.14568369519E+02 -0.39571468492E+01  0.15338101588E+02  0.51100000000E-03 0.  1.
         22    1    1    0    0    0 -0.33120828063E+02  0.46704777857E+02 -0.18335174596E+02  0.60120746450E+02  0.00000000000E+00 0. -1.
</event>
<event>
 4    1  0.1976955E-002  0.9118800E+02  0.7818608E-02  0.1130116E+00
         25   -1    0    0    0    0  0.00000000000E+00  0.00000000000E+00  0.99999998245E-14  0.12500000000E+03  0.12500000000E+03 0.  0.
        -11    1    1    0    0    0 -0.19283884937E+01  0.11175614629E+02  0.98524688564E+01  0.15022788934E+02  0.51100000000E-03 0.  1.
         11    1    1    0    0    0 -0.60862460891E+01  0.35321575078E+02  0.31135663196E+02  0.47477211168E+02  0.51100000000E-03 0. -1.
         22    1    1    0    0    0  0.80146345828E+01 -0.46497189707E+02 -0.40988132052E+02  0.62499999898E+02  0.00000000000E+00 0. -1.
</event>
<event>
 4    1  0.1976955E-002  0.9118800E+02  0.7818608E-02  0.1130116E+00
         25   -1    0    0    0    0  0.00000000000E+00  0.00000000000E+00  0.99999998245E-14  0.12500000000E+03  0.12500000000E+03 0.  0.
        -11    1    1    0    0    0  0.25324723704E+02  0.10079619553E+02 -0.30411597024E+02  0.40838775628E+02  0.51100000000E-03 0.  1.
         11    1    1    0    0    0  0.15123936567E+02  0.44022255659E+01 -0.14926364418E+02  0.21700447051E+02  0.51100000000E-03 0. -1.
         22    1    1    0    0    0 -0.40448660271E+02 -0.14481845119E+02  0.45337961442E+02  0.62460777321E+02  0.00000000000E+00 0.  1.
</event>
<event>
 4    1  0.1976955E-002  0.9118800E+02  0.7818608E-02  0.1130116E+00
         25   -1    0    0    0    0  0.00000000000E+00  0.00000000000E+00  0.99999998245E-14  0.12500000000E+03  0.12500000000E+03 0.  0.
        -11    1    1    0    0    0  0.27572415994E+01 -0.67968303303E+01 -0.17647311486E+01  0.75441076387E+01  0.51100000000E-03 0.  1.
         11    1    1    0    0    0  0.20093580768E+02 -0.49507125302E+02 -0.12862451979E+02  0.54955892450E+02  0.51100000000E-03 0.  1.
         22    1    1    0    0    0 -0.22850822367E+02  0.56303955632E+02  0.14627183127E+02  0.62499999912E+02  0.00000000000E+00 0.  1.
</event>
<event>
 4    1  0.1976955E-002  0.9118800E+02  0.7818608E-02  0.1130116E+00
         25   -1    0    0    0    0  0.00000000000E+00  0.00000000000E+00  0.99999998245E-14  0.12500000000E+03  0.12500000000E+03 0.  0.
        -11    1    1    0    0    0 -0.12848079175E+02  0.32834836211E+01  0.45498442179E+00  0.13268813597E+02  0.51100000000E-03 0.  1.
         11    1    1    0    0    0 -0.47671376065E+02  0.12177563454E+02  0.16901392850E+01  0.49231186444E+02  0.51100000000E-03 0.  1.
         22    1    1    0    0    0  0.60519455240E+02 -0.15461047075E+02 -0.21451237067E+01  0.62499999959E+02  0.00000000000E+00 0.  1.
</event>
<event>
 4    1  0.1976955E-002  0.9118800E+02  0.7818608E-02  0.1130116E+00
         25   -1    0    0    0    0  0.00000000000E+00  0.00000000000E+00  0.99999998245E-14  0.12500000000E+03  0.12500000000E+03 0.  0.
        -11    1    1    0    0    0 -0.18561623156E+02 -0.93334429259E+01 -0.66812214805E+01  0.21823971494E+02  0.51100000000E-03 0. -1.
         11    1    1    0    0    0 -0.34556938913E+02 -0.17130583300E+02 -0.12920960878E+02  0.40676653519E+02  0.51100000000E-03 0.  1.
         22    1    1    0    0    0  0.53118562070E+02  0.26464026226E+02  0.19602182359E+02  0.62499374986E+02  0.00000000000E+00 0. -1.
</event>
<event>
 4    1  0.1976955E-002  0.9118800E+02  0.7818608E-02  0.1130116E+00
         25   -1    0    0    0    0  0.00000000000E+00  0.00000000000E+00  0.99999998245E-14  0.12500000000E+03  0.12500000000E+03 0.  0.
        -11    1    1    0    0    0  0.27468942242E+02 -0.14364160387E+02 -0.93386715729E+01  0.32374105061E+02  0.51100000000E-03 0. -1.
         11    1    1    0    0    0  0.25753455008E+02 -0.13361775363E+02 -0.81170613760E+01  0.30127465399E+02  0.51100000000E-03 0.  1.
         22    1    1    0    0    0 -0.53222397250E+02  0.27725935750E+02  0.17455732949E+02  0.62498429540E+02  0.00000000000E+00 0. -1.
</event>
<event>
 4    1  0.1976955E-002  0.9118800E+02  0.7818608E-02  0.1130116E+00
         25   -1    0    0    0    0  0.00000000000E+00  0.00000000000E+00  0.99999998245E-14  0.12500000000E+03  0.12500000000E+03 0.  0.
        -11    1    1    0    0    0  0.23329841919E+02 -0.76244979587E+01  0.21010199608E+02  0.32308558942E+02  0.51100000000E-03 0.  1.
         11    1    1    0    0    0  0.21780552362E+02 -0.69909173396E+01  0.19704410061E+02  0.30191541242E+02  0.51100000000E-03 0. -1.
         22    1    1    0    0    0 -0.45110394281E+02  0.14615415298E+02 -0.40714609669E+02  0.62499899816E+02  0.00000000000E+00 0. -1.
</event>
<event>
 4    1  0.1976955E-002  0.9118800E+02  0.7818608E-02  0.1130116E+00
         25   -1    0    0    0    0  0.00000000000E+00  0.00000000000E+00  0.99999998245E-14  0.12500000000E+03  0.12500000000E+03 0.  0.
        -11    1    1    0    0    0  0.20810844983E+02  0.13512679585E+02 -0.13378243670E+02  0.28189735409E+02  0.51100000000E-03 0. -1.
         11    1    1    0    0    0  0.12920321344E+02 -0.29373288773E+02 -0.26942547003E+02  0.41900186590E+02  0.51100000000E-03 0.  1.
         22    1    1    0    0    0 -0.33731166327E+02  0.15860609188E+02  0.40320790673E+02  0.54910078001E+02  0.00000000000E+00 0.  1.
</event>
<event>
 4    1  0.1976955E-002  0.9118800E+02  0.7818608E-02  0.1130116E+00
         25   -1    0    0    0    0  0.00000000000E+00  0.00000000000E+00  0.99999998245E-14  0.12500000000E+03  0.12500000000E+03 0.  0.
        -11    1    1    0    0    0 -0.88366739959E+01 -0.20633557914E+02  0.18548449864E+02  0.29118302013E+02  0.51100000000E-03 0.  1.
         11    1    1    0    0    0 -0.99629085208E+01 -0.23801367206E+02  0.21179857183E+02  0.33381895956E+02  0.51100000000E-03 0. -1.
         22    1    1    0    0    0  0.18799582517E+02  0.44434925119E+02 -0.39728307047E+02  0.62499802031E+02  0.00000000000E+00 0. -1.
</event>
<event>
 4    1  0.1976955E-002  0.9118800E+02  0.7818608E-02  0.1130116E+00
         25   -1    0    0    0    0  0.00000000000E+00  0.00000000000E+00  0.99999998245E-14  0.12500000000E+03  0.12500000000E+03 0.  0.
        -11    1    1    0    0    0 -0.29775609977E+02  0.23398573194E+02  0.20653154197E+02  0.43135054834E+02  0.51100000000E-03 0.  1.
         11    1    1    0    0    0 -0.13317957042E+02  0.10553580483E+02  0.92874548519E+01  0.19364990542E+02  0.51100000000E-03 0. -1.
         22    1    1    0    0    0  0.43093567019E+02 -0.33952153678E+02 -0.29940609049E+02  0.62499954624E+02  0.00000000000E+00 0.  1.
</event>
<event>
 4    1  0.1976955E-002  0.9118800E+02  0.7818608E-02  0.1130116E+00
         25   -1    0    0    0    0  0.00000000000E+00  0.00000000000E+00  0.99999998245E-14  0.12500000000E+03  0.12500000000E+03 0.  0.
        -11    1    1    0    0    0 -0.32219303859E+02 -0.11996006944E+02  0.13648177251E+02  0.36990004951E+02  0.51100000000E-03 0. -1.
         11    1    1    0    0    0 -0.21904725393E+02 -0.86515597033E+01  0.98087543853E+01  0.25512313550E+02  0.51100000000E-03 0.  1.
         22    1    1    0    0    0  0.54124029252E+02  0.20647566647E+02 -0.23456931637E+02  0.62497681499E+02  0.00000000000E+00 0. -1.
</event>
<event>
 4    1  0.1976955E-002  0.9118800E+02  0.7818608E-02  0.1130116E+00
         25   -1    0    0    0    0  0.00000000000E+00  0.00000000000E+00  0.99999998245E-14  0.12500000000E+03  0.12500000000E+03 0.  0.
        -11    1    1    0    0    0 -0.25968497845E+00  0.47715919604E+01 -0.87861287522E+01  0.10001579117E+02  0.51100000000E-03 0. -1.
         11    1    1    0    0    0 -0.13961361576E+01  0.24762088382E+02 -0.46270750769E+02  0.52498500876E+02  0.51100000000E-03 0.  1.
         22    1    1    0    0    0  0.16558211361E+01 -0.29533680343E+02  0.55056879521E+02  0.62499920007E+02  0.00000000000E+00 0.  1.
</event>
<event>
 4    1  0.1976955E-002  0.9118800E+02  0.7818608E-02  0.1130116E+00
         25   -1    0    0    0    0  0.00000000000E+00  0.00000000000E+00  0.99999998245E-14  0.12500000000E+03  0.12500000000E+03 0.  0.
        -11    1    1    0    0    0 -0.22951797543E+02 -0.49331464605E+02  0.15476362795E+02  0.56567625159E+02  0.51100000000E-03 0. -1.
         11    1    1    0    0    0 -0.24141330990E+01 -0.51686091900E+01  0.16280530527E+01  0.59323786614E+01  0.51100000000E-03 0.  1.
         22    1    1    0    0    0  0.25365930642E+02  0.54500073795E+02 -0.17104415848E+02  0.62499996180E+02  0.00000000000E+00 0. -1.
</event>
<event>
 4    1  0.1976955E-002  0.9118800E+02  0.7818608E-02  0.1130116E+00
         25   -1    0    0    0    0  0.00000000000E+00  0.00000000000E+00  0.99999998245E-14  0.12500000000E+03  0.12500000000E+03 0.  0.
        -11    1    1    0    0    0 -0.20175189340E+02 -0.67163236951E+01  0.32473485965E+02  0.38815906016E+02  0.51100000000E-03 0.  1.
         11    1    1    0    0    0 -0.11724440530E+02 -0.16965750418E+02  0.14088643803E+02  0.24975769806E+02  0.51100000000E-03 0. -1.
         22    1    1    0    0    0  0.31899629870E+02  0.23682074113E+02 -0.46562129768E+02  0.61208324177E+02  0.00000000000E+00 0.  1.
</event>
<event>
 4    1  0.1976955E-002  0.9118800E+02  0.7818608E-02  0.1130116E+00
         25   -1    0    0    0    0  0.00000000000E+00  0.00000000000E+00  0.99999998245E-14  0.12500000000E+03  0.12500000000E+03 0.  0.
        -11    1    1    0    0    0 -0.47793113938E+01  0.28210808561E+01  0.23880423293E+01  0.60417763136E+01  0.51100000000E-03 0.  1.
         11    1    1    0    0    0 -0.44661714897E+02  0.26359867479E+02  0.22316353469E+02  0.56458223701E+02  0.51100000000E-03 0.  1.
         22    1    1    0    0    0  0.49441026291E+02 -0.29180948335E+02 -0.24704395798E+02  0.62499999985E+02  0.00000000000E+00 0.  1.
</event>
<event>
 4    1  0.1976955E-002  0.9118800E+02  0.7818608E-02  0.1130116E+00
         25   -1    0    0    0    0  0.00000000000E+00  0.00000000000E+00  0.99999998245E-14  0.12500000000E+03  0.12500000000E+03 0.  0.
        -11    1    1    0    0    0  0.23222363348E+00 -0.75291417628E+01  0.71991010767E+01  0.10419642992E+02  0.51100000000E-03 0. -1.
         11    1    1    0    0    0  0.56318838669E+02  0.50924134993E+01  0.46863118615E+01  0.56742451334E+02  0.51100000000E-03 0.  1.
         22    1    1    0    0    0 -0.56551062302E+02  0.24367282635E+01 -0.11885412938E+02  0.57837905675E+02  0.00000000000E+00 0.  1.
</event>
<event>
 4    1  0.1976955E-002  0.9118800E+02  0.7818608E-02  0.1130116E+00
         25   -1    0    0    0    0  0.00000000000E+00  0.00000000000E+00  0.99999998245E-14  0.12500000000E+03  0.12500000000E+03 0.  0.
        -11    1    1    0    0    0  0.15578327490E+01 -0.73931714467E+01  0.32774143153E+00  0.75626213459E+01  0.51100000000E-03 0.  1.
         11    1    1    0    0    0  0.11317891949E+02 -0.53706136227E+02  0.23815599386E+01  0.54937378665E+02  0.51100000000E-03 0.  1.
         22    1    1    0    0    0 -0.12875724698E+02  0.61099307674E+02 -0.27093013701E+01  0.62499999989E+02  0.00000000000E+00 0.  1.
</event>
<event>
 4    1  0.1976955E-002  0.9118800E+02  0.7818608E-02  0.1130116E+00
         25   -1    0    0    0    0  0.00000000000E+00  0.00000000000E+00  0.99999998245E-14  0.12500000000E+03  0.12500000000E+03 0.  0.
        -11    1    1    0    0    0 -0.11822874075E+02  0.30649793651E+02  0.45795530976E+01  0.33168697730E+02  0.51100000000E-03 0. -1.
         11    1    1    0    0    0 -0.10436130705E+02  0.27109755496E+02  0.40587869846E+01  0.29331304423E+02  0.51100000000E-03 0.  1.
         22    1    1    0    0    0  0.22259004780E+02 -0.57759549147E+02 -0.86383400822E+01  0.62499997847E+02  0.00000000000E+00 0.  1.
</event>
<event>
 4    1  0.1976955E-002  0.9118800E+02  0.7818608E-02  0.1130116E+00
         25   -1    0    0    0    0  0.00000000000E+00  0.00000000000E+00  0.99999998245E-14  0.12500000000E+03  0.12500000000E+03 0.  0.
        -11    1    1    0    0    0 -0.21246383578E+01 -0.34917475242E+02 -0.27835889297E+02  0.44705490699E+02  0.51100000000E-03 0.  1.
         11    1    1    0    0    0 -0.86160320532E+00 -0.13895632708E+02 -0.11082133743E+02  0.17794511991E+02  0.51100000000E-03 0. -1.
         22    1    1    0    0    0  0.29862415632E+01  0.48813107950E+02  0.38918023040E+02  0.62499997310E+02  0.00000000000E+00 0.  1.
</event>
<event>
 4    1  0.1976955E-002  0.9118800E+02  0.7818608E-02  0.1130116E+00
         25   -1    0    0    0    0  0.00000000000E+00  0.00000000000E+00  0.99999998245E-14  0.12500000000E+03  0.12500000000E+03 0.  0.
        -11    1    1    0    0    0 -0.25264872452E+00 -0.19939461457E-02  0.29446649316E+01  0.29554842538E+01  0.51100000000E-03 0.  1.
         11    1    1    0    0    0 -0.51012679719E+01 -0.15495021756E+00  0.59325396989E+02  0.59544518410E+02  0.51100000000E-03 0. -1.
         22    1    1    0    0    0  0.53539166964E+01  0.15694416370E+00 -0.62270061921E+02  0.62499997336E+02  0.00000000000E+00 0. -1.
</event>
<event>
 4    1  0.1976955E-002  0.9118800E+02  0.7818608E-02  0.1130116E+00
         25   -1    0    0    0    0  0.00000000000E+00  0.00000000000E+00  0.99999998245E-14  0.12500000000E+03  0.12500000000E+03 0.  0.
        -11    1    1    0    0    0  0.17060971029E+02  0.41240595763E+02 -0.26971991582E+02  0.52147404552E+02  0.51100000000E-03 0.  1.
         11    1    1    0    0    0  0.34319133638E+01  0.81800593888E+01 -0.53372108892E+01  0.10352643202E+02  0.51100000000E-03 0. -1.
         22    1    1    0    0    0 -0.20492884393E+02 -0.49420655151E+02  0.32309202472E+02  0.62499952246E+02  0.00000000000E+00 0. -1.
</event>
<event>
 4    1  0.1976955E-002  0.9118800E+02  0.7818608E-02  0.1130116E+00
         25   -1    0    0    0    0  0.00000000000E+00  0.00000000000E+00  0.99999998245E-14  0.12500000000E+03  0.12500000000E+03 0.  0.
        -11    1    1    0    0    0 -0.97595765018E+01  0.16596706699E+02  0.57072464604E+01  0.20081650061E+02  0.51100000000E-03 0.  1.
         11    1    1    0    0    0 -0.20568356468E+02  0.35054356655E+02  0.12143014011E+02  0.42418368637E+02  0.51100000000E-03 0. -1.
         22    1    1    0    0    0  0.30327932970E+02 -0.51651063354E+02 -0.17850260471E+02  0.62499981302E+02  0.00000000000E+00 0. -1.
</event>
<event>
 4    1  0.1976955E-002  0.9118800E+02  0.7818608E-02  0.1130116E+00
         25   -1    0    0    0    0  0.00000000000E+00  0.00000000000E+00  0.99999998245E-14  0.12500000000E+03  0.12500000000E+03 0.  0.
        -11    1    1    0    0    0 -0.84139099743E+01 -0.21778589520E+01 -0.23869043279E+01  0.90130052259E+01  0.51100000000E-03 0. -1.
         11    1    1    0    0    0 -0.45228746654E+02  0.37012459507E+01 -0.28964649750E+02  0.53835765815E+02  0.51100000000E-03 0.  1.
         22    1    1    0    0    0  0.53642656628E+02 -0.15233869987E+01  0.31351554078E+02  0.62151228959E+02  0.00000000000E+00 0.  1.
</event>
<event>
 4    1  0.1976955E-002  0.9118800E+02  0.7818608E-02  0.1130116E+00
         25   -1    0    0    0    0  0.00000000000E+00  0.00000000000E+00  0.99999998245E-14  0.12500000000E+03  0.12500000000E+03 0.  0.
        -11    1    1    0    0    0 -0.59617951413E+01 -0.62202705737E+01  0.42965763122E+00  0.86266664047E+01  0.51100000000E-03 0.  1.
         11    1    1    0    0    0 -0.37148408294E+02 -0.38919965697E+02  0.27512326811E+01  0.53873344524E+02  0.51100000000E-03 0. -1.
         22    1    1    0    0    0  0.43110203435E+02  0.45140236270E+02 -0.31808903123E+01  0.62499989072E+02  0.00000000000E+00 0. -1.
</event>
<event>
 4    1  0.1976955E-002  0.9118800E+02  0.7818608E-02  0.1130116E+00
         25   -1    0    0    0    0  0.00000000000E+00  0.00000000000E+00  0.99999998245E-14  0.12500000000E+03  0.12500000000E+03 0.  0.
        -11    1    1    0    0    0 -0.14629755660E+02 -0.52929131556E+02  0.19743423524E+02  0.58355166787E+02  0.51100000000E-03 0.  1.
         11    1    1    0    0    0 -0.10427610050E+01 -0.37618077717E+01  0.13932484871E+01  0.41448389393E+01  0.51100000000E-03 0. -1.
         22    1    1    0    0    0  0.15672516665E+02  0.56690939328E+02 -0.21136672012E+02  0.62499994274E+02  0.00000000000E+00 0.  1.
</event>
<event>
 4    1  0.1976955E-002  0.9118800E+02  0.7818608E-02  0.1130116E+00
         25   -1    0    0    0    0  0.00000000000E+00  0.00000000000E+00  0.99999998245E-14  0.12500000000E+03  0.12500000000E+03 0.  0.
        -11    1    1    0    0    0 -0.66172095017E+01 -0.12561994742E+02 -0.49102858452E+02  0.51114399947E+02  0.51100000000E-03 0.  1.
         11    1    1    0    0    0 -0.62585830092E+01  0.70829344914E+01 -0.96390831025E+01  0.13499990578E+02  0.51100000000E-03 0. -1.
         22    1    1    0    0    0  0.12875792511E+02  0.54790602506E+01  0.58741941555E+02  0.60385609475E+02  0.00000000000E+00 0.  1.
</event>
<event>
 4    1  0.1976955E-002  0.9118800E+02  0.7818608E-02  0.1130116E+00
         25   -1    0    0    0    0  0.00000000000E+00  0.00000000000E+00  0.99999998245E-14  0.12500000000E+03  0.12500000000E+03 0.  0.
        -11    1    1    0    0    0 -0.37746345670E+02  0.40177606253E+02  0.49941700688E+00  0.55129629722E+02  0.51100000000E-03 0. -1.
         11    1    1    0    0    0 -0.47945369679E+01  0.55283308459E+01  0.11551803061E+01  0.74084052588E+01  0.51100000000E-03 0.  1.
         22    1    1    0    0    0  0.42540882638E+02 -0.45705937099E+02 -0.16545973130E+01  0.62461965019E+02  0.00000000000E+00 0. -1.
</event>
<event>
 4    1  0.1976955E-002  0.9118800E+02  0.7818608E-02  0.1130116E+00
         25   -1    0    0    0    0  0.00000000000E+00  0.00000000000E+00  0.99999998245E-14  0.12500000000E+03  0.12500000000E+03 0.  0.
        -11    1    1    0    0    0 -0.26901878193E+01 -0.27167224867E+01  0.12806179758E+01  0.40320806333E+01  0.51100000000E-03 0.  1.
         11    1    1    0    0    0 -0.38994987457E+02 -0.39403339963E+02  0.18581317595E+02  0.58467919501E+02  0.51100000000E-03 0. -1.
         22    1    1    0    0    0  0.41685175276E+02  0.42120062450E+02 -0.19861935570E+02  0.62499999865E+02  0.00000000000E+00 0. -1.
</event>
<event>
 4    1  0.1976955E-002  0.9118800E+02  0.7818608E-02  0.1130116E+00
         25   -1    0    0    0    0  0.00000000000E+00  0.00000000000E+00  0.99999998245E-14  0.12500000000E+03  0.12500000000E+03 0.  0.
        -11    1    1    0    0    0 -0.20131425697E+01 -0.16917360686E+02 -0.16560817944E+02  0.23759430272E+02  0.51100000000E-03 0. -1.
         11    1    1    0    0    0 -0.32810727800E+01 -0.27590613624E+02 -0.26996747202E+02  0.38740569930E+02  0.51100000000E-03 0.  1.
         22    1    1    0    0    0  0.52942153496E+01  0.44507974311E+02  0.43557565146E+02  0.62499999799E+02  0.00000000000E+00 0. -1.
</event>
<event>
 4    1  0.1976955E-002  0.9118800E+02  0.7818608E-02  0.1130116E+00
         25   -1    0    0    0    0  0.00000000000E+00  0.00000000000E+00  0.99999998245E-14  0.12500000000E+03  0.12500000000E+03 0.  0.
        -11    1    1    0    0    0 -0.11627137129E+01  0.24358245741E+02  0.41617846201E+01  0.24738562817E+02  0.51100000000E-03 0.  1.
         11    1    1    0    0    0 -0.17743879806E+01  0.37180907995E+02  0.63527762597E+01  0.37761437188E+02  0.51100000000E-03 0.  1.
         22    1    1    0    0    0  0.29371016935E+01 -0.61539153736E+02 -0.10514560880E+02  0.62499999995E+02  0.00000000000E+00 0.  1.
</event>
<event>
 4    1  0.1976955E-002  0.9118800E+02  0.7818608E-02  0.1130116E+00
         25   -1    0    0    0    0  0.00000000000E+00  0.00000000000E+00  0.99999998245E-14  0.12500000000E+03  0.12500000000E+03 0.  0.
        -11    1    1    0    0    0 -0.94260991624E+01  0.13605836185E+01  0.10520290131E+02  0.14190808219E+02  0.51100000000E-03 0.  1.
         11    1    1    0    0    0 -0.32095335973E+02  0.46380716270E+01  0.35807202145E+02  0.48309191934E+02  0.51100000000E-03 0. -1.
         22    1    1    0    0    0  0.41521435135E+02 -0.59986552455E+01 -0.46327492275E+02  0.62499999848E+02  0.00000000000E+00 0. -1.
</event>
<event>
 4    1  0.1976955E-002  0.9118800E+02  0.7818608E-02  0.1130116E+00
         25   -1    0    0    0    0  0.00000000000E+00  0.00000000000E+00  0.99999998245E-14  0.12500000000E+03  0.12500000000E+03 0.  0.
        -11    1    1    0    0    0 -0.25848089956E+02 -0.29987298904E+01 -0.21420012459E+01  0.26109467726E+02  0.51100000000E-03 0. -1.
         11    1    1    0    0    0 -0.32262592442E+02 -0.67602353057E+01 -0.16798492307E+02  0.36996824141E+02  0.51100000000E-03 0.  1.
         22    1    1    0    0    0  0.58110682398E+02  0.97589651961E+01  0.18940493553E+02  0.61893708133E+02  0.00000000000E+00 0. -1.
</event>
<event>
 4    1  0.1976955E-002  0.9118800E+02  0.7818608E-02  0.1130116E+00
         25   -1    0    0    0    0  0.00000000000E+00  0.00000000000E+00  0.99999998245E-14  0.12500000000E+03  0.12500000000E+03 0.  0.
        -11    1    1    0    0    0  0.35787197925E+02 -0.42354321961E+02  0.17965574658E+02  0.58286996810E+02  0.51100000000E-03 0. -1.
         11    1    1    0    0    0  0.39478039936E+01 -0.81159449454E+00  0.23013787449E+01  0.46411406339E+01  0.51100000000E-03 0.  1.
         22    1    1    0    0    0 -0.39735001918E+02  0.43165916456E+02 -0.20266953403E+02  0.62071862556E+02  0.00000000000E+00 0. -1.
</event>
<event>
 4    1  0.1976955E-002  0.9118800E+02  0.7818608E-02  0.1130116E+00
         25   -1    0    0    0    0  0.00000000000E+00  0.00000000000E+00  0.99999998245E-14  0.12500000000E+03  0.12500000000E+03 0.  0.
        -11    1    1    0    0    0  0.80336051043E+01  0.16346406697E+02  0.57606231480E+02  0.60417064878E+02  0.51100000000E-03 0.  1.
         11    1    1    0    0    0  0.27032722406E+00  0.55348397692E+00  0.19897925710E+01  0.20829536859E+01  0.51100000000E-03 0. -1.
         22    1    1    0    0    0 -0.83039323283E+01 -0.16899890674E+02 -0.59596024051E+02  0.62499981436E+02  0.00000000000E+00 0.  1.
</event>
<event>
 4    1  0.1976955E-002  0.9118800E+02  0.7818608E-02  0.1130116E+00
         25   -1    0    0    0    0  0.00000000000E+00  0.00000000000E+00  0.99999998245E-14  0.12500000000E+03  0.12500000000E+03 0.  0.
        -11    1    1    0    0    0  0.39649948045E+02 -0.12548348858E+02  0.23139046042E+02  0.47591962462E+02  0.51100000000E-03 0.  1.
         11    1    1    0    0    0  0.12420936770E+02 -0.39270173903E+01  0.72490311775E+01  0.14908037734E+02  0.51100000000E-03 0. -1.
         22    1    1    0    0    0 -0.52070884814E+02  0.16475366248E+02 -0.30388077220E+02  0.62499999804E+02  0.00000000000E+00 0. -1.
</event>
<event>
 4    1  0.1976955E-002  0.9118800E+02  0.7818608E-02  0.1130116E+00
         25   -1    0    0    0    0  0.00000000000E+00  0.00000000000E+00  0.99999998245E-14  0.12500000000E+03  0.12500000000E+03 0.  0.
        -11    1    1    0    0    0  0.28052445723E+01  0.51393347637E+01  0.11429597456E+02  0.12842034776E+02  0.51100000000E-03 0. -1.
         11    1    1    0    0    0  0.10842959081E+02  0.19861353725E+02  0.44202606224E+02  0.49657965430E+02  0.51100000000E-03 0.  1.
         22    1    1    0    0    0 -0.13648203654E+02 -0.25000688488E+02 -0.55632203680E+02  0.62499999793E+02  0.00000000000E+00 0.  1.
</event>
<event>
 4    1  0.1976955E-002  0.9118800E+02  0.7818608E-02  0.1130116E+00
         25   -1    0    0    0    0  0.00000000000E+00  0.00000000000E+00  0.99999998245E-14  0.12500000000E+03  0.12500000000E+03 0.  0.
        -11    1    1    0    0    0  0.12309299421E+02 -0.19518509658E+02  0.45242196587E+02  0.50787276200E+02  0.51100000000E-03 0.  1.
         11    1    1    0    0    0  0.28407483581E+01 -0.45028178377E+01  0.10432769615E+02  0.11712723928E+02  0.51100000000E-03 0. -1.
         22    1    1    0    0    0 -0.15150047779E+02  0.24021327496E+02 -0.55674966202E+02  0.62499999872E+02  0.00000000000E+00 0.  1.
</event>
<event>
 4    1  0.1976955E-002  0.9118800E+02  0.7818608E-02  0.1130116E+00
         25   -1    0    0    0    0  0.00000000000E+00  0.00000000000E+00  0.99999998245E-14  0.12500000000E+03  0.12500000000E+03 0.  0.
        -11    1    1    0    0    0  0.23069242233E+01  0.13486872310E+01  0.31199213313E+01  0.41078906988E+01  0.51100000000E-03 0. -1.
         11    1    1    0    0    0  0.25461449740E+02 -0.54798296966E+02  0.18680165586E+01  0.60453521480E+02  0.51100000000E-03 0.  1.
         22    1    1    0    0    0 -0.27768373964E+02  0.53449609735E+02 -0.49879378898E+01  0.60438587821E+02  0.00000000000E+00 0.  1.
</event>
<event>
 4    1  0.1976955E-002  0.9118800E+02  0.7818608E-02  0.1130116E+00
         25   -1    0    0    0    0  0.00000000000E+00  0.00000000000E+00  0.99999998245E-14  0.12500000000E+03  0.12500000000E+03 0.  0.
        -11    1    1    0    0    0 -0.16412479180E+02 -0.50460762536E+01  0.62007848663E+01  0.18256015217E+02  0.51100000000E-03 0. -1.
         11    1    1    0    0    0 -0.39769625314E+02 -0.12226062777E+02  0.15047609314E+02  0.44243985524E+02  0.51100000000E-03 0.  1.
         22    1    1    0    0    0  0.56182104494E+02  0.17272139031E+02 -0.21248394181E+02  0.62499999259E+02  0.00000000000E+00 0.  1.
</event>
<event>
 4    1  0.1976955E-002  0.9118800E+02  0.7818608E-02  0.1130116E+00
         25   -1    0    0    0    0  0.00000000000E+00  0.00000000000E+00  0.99999998245E-14  0.12500000000E+03  0.12500000000E+03 0.  0.
        -11    1    1    0    0    0 -0.23170917748E+01 -0.12988947895E+01  0.61296386184E+01  0.66804574559E+01  0.51100000000E-03 0. -1.
         11    1    1    0    0    0  0.15374065671E+01 -0.42183156858E+02  0.37685282004E+02  0.56585888889E+02  0.51100000000E-03 0.  1.
         22    1    1    0    0    0  0.77968520761E+00  0.43482051647E+02 -0.43814920622E+02  0.61733653655E+02  0.00000000000E+00 0.  1.
</event>
<event>
 4    1  0.1976955E-002  0.9118800E+02  0.7818608E-02  0.1130116E+00
         25   -1    0    0    0    0  0.00000000000E+00  0.00000000000E+00  0.99999998245E-14  0.12500000000E+03  0.12500000000E+03 0.  0.
        -11    1    1    0    0    0 -0.33922898011E+02 -0.40944830640E+02 -0.22128838712E+02  0.57592774448E+02  0.51100000000E-03 0. -1.
         11    1    1    0    0    0 -0.28978065998E+01 -0.34707210267E+01 -0.19073725147E+01  0.49072658076E+01  0.51100000000E-03 0.  1.
         22    1    1    0    0    0  0.36820704611E+02  0.44415551667E+02  0.24036211227E+02  0.62499959744E+02  0.00000000000E+00 0. -1.
</event>
<event>
 4    1  0.1976955E-002  0.9118800E+02  0.7818608E-02  0.1130116E+00
         25   -1    0    0    0    0  0.00000000000E+00  0.00000000000E+00  0.99999998245E-14  0.12500000000E+03  0.12500000000E+03 0.  0.
        -11    1    1    0    0    0 -0.86695665375E+01 -0.61701638481E+01  0.10469902834E+02  0.14928200544E+02  0.51100000000E-03 0.  1.
         11    1    1    0    0    0 -0.27509706235E+02 -0.19741832023E+02  0.33414891038E+02  0.47571827924E+02  0.51100000000E-03 0. -1.
         22    1    1    0    0    0  0.36179272772E+02  0.25911995871E+02 -0.43884793871E+02  0.62499971532E+02  0.00000000000E+00 0. -1.
</event>
<event>
 4    1  0.1976955E-002  0.9118800E+02  0.7818608E-02  0.1130116E+00
         25   -1    0    0    0    0  0.00000000000E+00  0.00000000000E+00  0.99999998245E-14  0.12500000000E+03  0.12500000000E+03 0.  0.
        -11    1    1    0    0    0  0.31234950839E+02  0.22056554300E+02 -0.25345849077E+02  0.45875110978E+02  0.51100000000E-03 0. -1.
         11    1    1    0    0    0  0.11041327307E+02  0.82843318324E+01 -0.92686522896E+01  0.16626754889E+02  0.51100000000E-03 0.  1.
         22    1    1    0    0    0 -0.42276278146E+02 -0.30340886133E+02  0.34614501367E+02  0.62498134133E+02  0.00000000000E+00 0. -1.
</event>
<event>
 4    1  0.1976955E-002  0.9118800E+02  0.7818608E-02  0.1130116E+00
         25   -1    0    0    0    0  0.00000000000E+00  0.00000000000E+00  0.99999998245E-14  0.12500000000E+03  0.12500000000E+03 0.  0.
        -11    1    1    0    0    0  0.36340826175E+02 -0.20480009935E+02  0.22419072535E+02  0.47357167014E+02  0.51100000000E-03 0. -1.
         11    1    1    0    0    0  0.11601047768E+02 -0.65338489607E+01  0.72132429983E+01  0.15142865197E+02  0.51100000000E-03 0.  1.
         22    1    1    0    0    0 -0.47941873944E+02  0.27013858896E+02 -0.29632315534E+02  0.62499967788E+02  0.00000000000E+00 0. -1.
</event>
<event>
 4    1  0.1976955E-002  0.9118800E+02  0.7818608E-02  0.1130116E+00
         25   -1    0    0    0    0  0.00000000000E+00  0.00000000000E+00  0.99999998245E-14  0.12500000000E+03  0.12500000000E+03 0.  0.
        -11    1    1    0    0    0  0.21609453083E+01 -0.32583022401E+02  0.42885259571E+02  0.53902398111E+02  0.51100000000E-03 0. -1.
         11    1    1    0    0    0  0.31318198867E+00 -0.52066739451E+01  0.68345960474E+01  0.85976299014E+01  0.51100000000E-03 0.  1.
         22    1    1    0    0    0 -0.24741272969E+01  0.37789696346E+02 -0.49719855618E+02  0.62499971988E+02  0.00000000000E+00 0. -1.
</event>
<event>
 4    1  0.1976955E-002  0.9118800E+02  0.7818608E-02  0.1130116E+00
         25   -1    0    0    0    0  0.00000000000E+00  0.00000000000E+00  0.99999998245E-14  0.12500000000E+03  0.12500000000E+03 0.  0.
        -11    1    1    0    0    0  0.10149797528E+01 -0.55316092722E+02 -0.18621433039E+02  0.58375149393E+02  0.51100000000E-03 0.  1.
         11    1    1    0    0    0  0.68406238751E+01  0.68479034301E+01  0.14389668319E+02  0.17342158775E+02  0.51100000000E-03 0. -1.
         22    1    1    0    0    0 -0.78556036279E+01  0.48468189292E+02  0.42317647205E+01  0.49282691832E+02  0.00000000000E+00 0.  1.
</event>
<event>
 4    1  0.1976955E-002  0.9118800E+02  0.7818608E-02  0.1130116E+00
         25   -1    0    0    0    0  0.00000000000E+00  0.00000000000E+00  0.99999998245E-14  0.12500000000E+03  0.12500000000E+03 0.  0.
        -11    1    1    0    0    0 -0.11147136003E+02  0.22903706611E+02 -0.50086500925E+00  0.25477230689E+02  0.51100000000E-03 0. -1.
         11    1    1    0    0    0  0.43030374764E+02  0.93905132754E+01 -0.21590174764E+02  0.49050285815E+02  0.51100000000E-03 0.  1.
         22    1    1    0    0    0 -0.31883238761E+02 -0.32294219886E+02  0.22091039773E+02  0.50472483496E+02  0.00000000000E+00 0.  1.
</event>
<event>
 4    1  0.1976955E-002  0.9118800E+02  0.7818608E-02  0.1130116E+00
         25   -1    0    0    0    0  0.00000000000E+00  0.00000000000E+00  0.99999998245E-14  0.12500000000E+03  0.12500000000E+03 0.  0.
        -11    1    1    0    0    0 -0.53472451497E+01 -0.32151215747E+02  0.43246610561E+02  0.54153144230E+02  0.51100000000E-03 0. -1.
         11    1    1    0    0    0 -0.82569330783E+00 -0.49654374352E+01  0.66582828133E+01  0.83468598074E+01  0.51100000000E-03 0.  1.
         22    1    1    0    0    0  0.61729384575E+01  0.37116653182E+02 -0.49904893374E+02  0.62499995963E+02  0.00000000000E+00 0. -1.
</event>
<event>
 4    1  0.1976955E-002  0.9118800E+02  0.7818608E-02  0.1130116E+00
         25   -1    0    0    0    0  0.00000000000E+00  0.00000000000E+00  0.99999998245E-14  0.12500000000E+03  0.12500000000E+03 0.  0.
        -11    1    1    0    0    0  0.17272321400E+01 -0.12171296068E+02 -0.16811367684E+02  0.20826566268E+02  0.51100000000E-03 0.  1.
         11    1    1    0    0    0  0.99592338907E+01 -0.29047202235E+02  0.43834377769E+02  0.53519893237E+02  0.51100000000E-03 0. -1.
         22    1    1    0    0    0 -0.11686466031E+02  0.41218498303E+02 -0.27023010085E+02  0.50653540495E+02  0.00000000000E+00 0. -1.
</event>
<event>
 4    1  0.1976955E-002  0.9118800E+02  0.7818608E-02  0.1130116E+00
         25   -1    0    0    0    0  0.00000000000E+00  0.00000000000E+00  0.99999998245E-14  0.12500000000E+03  0.12500000000E+03 0.  0.
        -11    1    1    0    0    0  0.13580466421E+01 -0.28376477281E+01  0.63418556923E+01  0.70792421341E+01  0.51100000000E-03 0.  1.
         11    1    1    0    0    0  0.10434933500E+02 -0.23531212497E+02  0.49081290912E+02  0.55421827077E+02  0.51100000000E-03 0. -1.
         22    1    1    0    0    0 -0.11792980142E+02  0.26368860225E+02 -0.55423146604E+02  0.62498930789E+02  0.00000000000E+00 0. -1.
</event>
<event>
 4    1  0.1976955E-002  0.9118800E+02  0.7818608E-02  0.1130116E+00
         25   -1    0    0    0    0  0.00000000000E+00  0.00000000000E+00  0.99999998245E-14  0.12500000000E+03  0.12500000000E+03 0.  0.
        -11    1    1    0    0    0  0.44722093353E+02  0.22344110622E+02 -0.19827985906E+02  0.53781724951E+02  0.51100000000E-03 0.  1.
         11    1    1    0    0    0  0.72570875544E+01  0.36208078546E+01 -0.31988866632E+01  0.87182822527E+01  0.51100000000E-03 0. -1.
         22    1    1    0    0    0 -0.51979180907E+02 -0.25964918477E+02  0.23026872569E+02  0.62499992797E+02  0.00000000000E+00 0.  1.
</event>
<event>
 4    1  0.1976955E-002  0.9118800E+02  0.7818608E-02  0.1130116E+00
         25   -1    0    0    0    0  0.00000000000E+00  0.00000000000E+00  0.99999998245E-14  0.12500000000E+03  0.12500000000E+03 0.  0.
        -11    1    1    0    0    0  0.53499259467E-03 -0.20727940025E+00  0.26707342103E+01  0.26787658574E+01  0.51100000000E-03 0.  1.
         11    1    1    0    0    0  0.11753412144E+00 -0.43403210665E+01  0.59663471985E+02  0.59821251164E+02  0.51100000000E-03 0. -1.
         22    1    1    0    0    0 -0.11806911403E+00  0.45476004668E+01 -0.62334206195E+02  0.62499982979E+02  0.00000000000E+00 0.  1.
</event>
<event>
 4    1  0.1976955E-002  0.9118800E+02  0.7818608E-02  0.1130116E+00
         25   -1    0    0    0    0  0.00000000000E+00  0.00000000000E+00  0.99999998245E-14  0.12500000000E+03  0.12500000000E+03 0.  0.
        -11    1    1    0    0    0 -0.27373995568E+02  0.30568303714E+02 -0.35448881597E+02  0.54225271157E+02  0.51100000000E-03 0.  1.
         11    1    1    0    0    0 -0.41771151394E+01  0.46646964751E+01 -0.54095705223E+01  0.82747288529E+01  0.51100000000E-03 0.  1.
         22    1    1    0    0    0  0.31551110708E+02 -0.35233000189E+02  0.40858452119E+02  0.62499999990E+02  0.00000000000E+00 0.  1.
</event>
<event>
 4    1  0.1976955E-002  0.9118800E+02  0.7818608E-02  0.1130116E+00
         25   -1    0    0    0    0  0.00000000000E+00  0.00000000000E+00  0.99999998245E-14  0.12500000000E+03  0.12500000000E+03 0.  0.
        -11    1    1    0    0    0  0.35854648262E+01  0.31581862665E+02 -0.37731579094E+02  0.49334994361E+02  0.51100000000E-03 0.  1.
         11    1    1    0    0    0  0.93254153305E+00  0.84551082723E+01 -0.10047864687E+02  0.13165032269E+02  0.51100000000E-03 0. -1.
         22    1    1    0    0    0 -0.45180063592E+01 -0.40036970937E+02  0.47779443781E+02  0.62499973370E+02  0.00000000000E+00 0. -1.
</event>
<event>
 4    1  0.1976955E-002  0.9118800E+02  0.7818608E-02  0.1130116E+00
         25   -1    0    0    0    0  0.00000000000E+00  0.00000000000E+00  0.99999998245E-14  0.12500000000E+03  0.12500000000E+03 0.  0.
        -11    1    1    0    0    0 -0.32571667143E+02 -0.49650651360E+02 -0.14691735492E+02  0.61171462080E+02  0.51100000000E-03 0. -1.
         11    1    1    0    0    0 -0.71669423672E+00 -0.10706771605E+01 -0.32418564315E+00  0.13285694575E+01  0.51100000000E-03 0.  1.
         22    1    1    0    0    0  0.33288361380E+02  0.50721328521E+02  0.15015921135E+02  0.62499968462E+02  0.00000000000E+00 0. -1.
</event>
<event>
 4    1  0.1976955E-002  0.9118800E+02  0.7818608E-02  0.1130116E+00
         25   -1    0    0    0    0  0.00000000000E+00  0.00000000000E+00  0.99999998245E-14  0.12500000000E+03  0.12500000000E+03 0.  0.
        -11    1    1    0    0    0  0.28147733698E+02  0.32196381899E+02  0.29826289369E+02  0.52139327360E+02  0.51100000000E-03 0.  1.
         11    1    1    0    0    0  0.55777352856E+01  0.63995223124E+01  0.59395867405E+01  0.10360680849E+02  0.51100000000E-03 0. -1.
         22    1    1    0    0    0 -0.33725468984E+02 -0.38595904211E+02 -0.35765876109E+02  0.62499991792E+02  0.00000000000E+00 0.  1.
</event>
<event>
 4    1  0.1976955E-002  0.9118800E+02  0.7818608E-02  0.1130116E+00
         25   -1    0    0    0    0  0.00000000000E+00  0.00000000000E+00  0.99999998245E-14  0.12500000000E+03  0.12500000000E+03 0.  0.
        -11    1    1    0    0    0  0.60412092239E+01  0.25680170865E+02  0.24022982853E+02  0.35680121776E+02  0.51100000000E-03 0.  1.
         11    1    1    0    0    0  0.58596613129E+01  0.20252555419E+02  0.16617760364E+02  0.26844954675E+02  0.51100000000E-03 0. -1.
         22    1    1    0    0    0 -0.11900870537E+02 -0.45932726284E+02 -0.40640743216E+02  0.62474923550E+02  0.00000000000E+00 0.  1.
</event>
<event>
 4    1  0.1976955E-002  0.9118800E+02  0.7818608E-02  0.1130116E+00
         25   -1    0    0    0    0  0.00000000000E+00  0.00000000000E+00  0.99999998245E-14  0.12500000000E+03  0.12500000000E+03 0.  0.
        -11    1    1    0    0    0 -0.18574630761E+02 -0.11650072302E+01 -0.10750956845E+02  0.21493190156E+02  0.51100000000E-03 0.  1.
         11    1    1    0    0    0 -0.35393074915E+02 -0.22480616719E+01 -0.20587286547E+02  0.41006827490E+02  0.51100000000E-03 0. -1.
         22    1    1    0    0    0  0.53967705676E+02  0.34130689021E+01  0.31338243392E+02  0.62499982353E+02  0.00000000000E+00 0. -1.
</event>
<event>
 4    1  0.1976955E-002  0.9118800E+02  0.7818608E-02  0.1130116E+00
         25   -1    0    0    0    0  0.00000000000E+00  0.00000000000E+00  0.99999998245E-14  0.12500000000E+03  0.12500000000E+03 0.  0.
        -11    1    1    0    0    0 -0.19880175354E+00  0.94397949925E+01  0.22650856968E+02  0.24539979080E+02  0.51100000000E-03 0. -1.
         11    1    1    0    0    0 -0.10729410627E+01  0.14684881428E+02  0.34989756533E+02  0.37961559604E+02  0.51100000000E-03 0.  1.
         22    1    1    0    0    0  0.12717428162E+01 -0.24124676421E+02 -0.57640613500E+02  0.62498461316E+02  0.00000000000E+00 0.  1.
</event>
<event>
 4    1  0.1976955E-002  0.9118800E+02  0.7818608E-02  0.1130116E+00
         25   -1    0    0    0    0  0.00000000000E+00  0.00000000000E+00  0.99999998245E-14  0.12500000000E+03  0.12500000000E+03 0.  0.
        -11    1    1    0    0    0  0.28158811233E+02 -0.30554326404E+02 -0.18436021145E+02  0.45457368908E+02  0.51100000000E-03 0.  1.
         11    1    1    0    0    0  0.10415829196E+02 -0.11342437920E+02 -0.73061123330E+01  0.17044637676E+02  0.51100000000E-03 0. -1.
         22    1    1    0    0    0 -0.38574640429E+02  0.41896764325E+02  0.25742133478E+02  0.62497993417E+02  0.00000000000E+00 0.  1.
</event>
<event>
 4    1  0.1976955E-002  0.9118800E+02  0.7818608E-02  0.1130116E+00
         25   -1    0    0    0    0  0.00000000000E+00  0.00000000000E+00  0.99999998245E-14  0.12500000000E+03  0.12500000000E+03 0.  0.
        -11    1    1    0    0    0 -0.84129249094E+01  0.96139768305E+00 -0.13311511853E+02  0.15776499583E+02  0.51100000000E-03 0.  1.
         11    1    1    0    0    0 -0.24909490944E+02  0.28556377987E+01 -0.39426489827E+02  0.46723500582E+02  0.51100000000E-03 0. -1.
         22    1    1    0    0    0  0.33322415854E+02 -0.38170354817E+01  0.52738001679E+02  0.62499999835E+02  0.00000000000E+00 0. -1.
</event>
<event>
 4    1  0.1976955E-002  0.9118800E+02  0.7818608E-02  0.1130116E+00
         25   -1    0    0    0    0  0.00000000000E+00  0.00000000000E+00  0.99999998245E-14  0.12500000000E+03  0.12500000000E+03 0.  0.
        -11    1    1    0    0    0  0.16101092354E+02 -0.20228180212E+01 -0.81109620623E+01  0.18141793560E+02  0.51100000000E-03 0. -1.
         11    1    1    0    0    0  0.27229455124E+02 -0.38544497800E+02  0.37750517315E+01  0.47343136280E+02  0.51100000000E-03 0.  1.
         22    1    1    0    0    0 -0.43330547478E+02  0.40567315822E+02  0.43359103307E+01  0.59515070160E+02  0.00000000000E+00 0. -1.
</event>
<event>
 4    1  0.1976955E-002  0.9118800E+02  0.7818608E-02  0.1130116E+00
         25   -1    0    0    0    0  0.00000000000E+00  0.00000000000E+00  0.99999998245E-14  0.12500000000E+03  0.12500000000E+03 0.  0.
        -11    1    1    0    0    0 -0.17343595182E+01  0.12695879601E+01  0.52391174856E+01  0.56628799047E+01  0.51100000000E-03 0. -1.
         11    1    1    0    0    0  0.30865431655E+02  0.35392077197E+01  0.48746531471E+02  0.57805062004E+02  0.51100000000E-03 0.  1.
         22    1    1    0    0    0 -0.29131072136E+02 -0.48087956797E+01 -0.53985648957E+02  0.61532058092E+02  0.00000000000E+00 0.  1.
</event>
<event>
 4    1  0.1976955E-002  0.9118800E+02  0.7818608E-02  0.1130116E+00
         25   -1    0    0    0    0  0.00000000000E+00  0.00000000000E+00  0.99999998245E-14  0.12500000000E+03  0.12500000000E+03 0.  0.
        -11    1    1    0    0    0 -0.18555501264E+02  0.72219212769E+00 -0.16541767459E+01  0.18643081547E+02  0.51100000000E-03 0. -1.
         11    1    1    0    0    0 -0.43649937494E+02  0.17030659323E+01 -0.39002351148E+01  0.43856918622E+02  0.51100000000E-03 0.  1.
         22    1    1    0    0    0  0.62205438758E+02 -0.24252580599E+01  0.55544118607E+01  0.62499999831E+02  0.00000000000E+00 0.  1.
</event>
<event>
 4    1  0.1976955E-002  0.9118800E+02  0.7818608E-02  0.1130116E+00
         25   -1    0    0    0    0  0.00000000000E+00  0.00000000000E+00  0.99999998245E-14  0.12500000000E+03  0.12500000000E+03 0.  0.
        -11    1    1    0    0    0 -0.29458491964E+01  0.57923089324E+01  0.37711471967E+00  0.65093076459E+01  0.51100000000E-03 0.  1.
         11    1    1    0    0    0 -0.25339082955E+02  0.49829364252E+02  0.31501465347E+01  0.55990696461E+02  0.51100000000E-03 0. -1.
         22    1    1    0    0    0  0.28284932151E+02 -0.55621673184E+02 -0.35272612544E+01  0.62499995893E+02  0.00000000000E+00 0.  1.
</event>
<event>
 4    1  0.1976955E-002  0.9118800E+02  0.7818608E-02  0.1130116E+00
         25   -1    0    0    0    0  0.00000000000E+00  0.00000000000E+00  0.99999998245E-14  0.12500000000E+03  0.12500000000E+03 0.  0.
        -11    1    1    0    0    0  0.11726281792E+02  0.59807143113E-01 -0.81487434068E+01  0.14279750731E+02  0.51100000000E-03 0.  1.
         11    1    1    0    0    0  0.39599796213E+02  0.20375698182E+00 -0.27513761373E+02  0.48220249296E+02  0.51100000000E-03 0. -1.
         22    1    1    0    0    0 -0.51326078005E+02 -0.26356412493E+00  0.35662504780E+02  0.62499999973E+02  0.00000000000E+00 0. -1.
</event>
<event>
 4    1  0.1976955E-002  0.9118800E+02  0.7818608E-02  0.1130116E+00
         25   -1    0    0    0    0  0.00000000000E+00  0.00000000000E+00  0.99999998245E-14  0.12500000000E+03  0.12500000000E+03 0.  0.
        -11    1    1    0    0    0  0.13428360851E+02  0.29068392931E+01  0.30599198738E+02  0.33542235368E+02  0.51100000000E-03 0. -1.
         11    1    1    0    0    0  0.11194447056E+02  0.57375401032E+00  0.26720411868E+02  0.28976287706E+02  0.51100000000E-03 0.  1.
         22    1    1    0    0    0 -0.24622807907E+02 -0.34805933034E+01 -0.57319610605E+02  0.62481476927E+02  0.00000000000E+00 0. -1.
</event>
<event>
 4    1  0.1976955E-002  0.9118800E+02  0.7818608E-02  0.1130116E+00
         25   -1    0    0    0    0  0.00000000000E+00  0.00000000000E+00  0.99999998245E-14  0.12500000000E+03  0.12500000000E+03 0.  0.
        -11    1    1    0    0    0 -0.23960943581E+02 -0.52999946482E+02  0.16396563870E+02  0.60431518692E+02  0.51100000000E-03 0. -1.
         11    1    1    0    0    0 -0.10337351947E+01 -0.13425952374E+01  0.13607742181E+01  0.21732181570E+01  0.51100000000E-03 0.  1.
         22    1    1    0    0    0  0.24994678776E+02  0.54342541720E+02 -0.17757338089E+02  0.62395263151E+02  0.00000000000E+00 0. -1.
</event>
<event>
 4    1  0.1976955E-002  0.9118800E+02  0.7818608E-02  0.1130116E+00
         25   -1    0    0    0    0  0.00000000000E+00  0.00000000000E+00  0.99999998245E-14  0.12500000000E+03  0.12500000000E+03 0.  0.
        -11    1    1    0    0    0  0.36735432366E+02 -0.10580459089E+02 -0.43416382867E+02  0.57848253277E+02  0.51100000000E-03 0. -1.
         11    1    1    0    0    0  0.17380914557E+01 -0.29243822579E+01 -0.35758071921E+01  0.49355213337E+01  0.51100000000E-03 0.  1.
         22    1    1    0    0    0 -0.38473523822E+02  0.13504841347E+02  0.46992190059E+02  0.62216225389E+02  0.00000000000E+00 0. -1.
</event>
<event>
 4    1  0.1976955E-002  0.9118800E+02  0.7818608E-02  0.1130116E+00
         25   -1    0    0    0    0  0.00000000000E+00  0.00000000000E+00  0.99999998245E-14  0.12500000000E+03  0.12500000000E+03 0.  0.
        -11    1    1    0    0    0 -0.38122268861E+01  0.17198202246E+01  0.29463685762E+01  0.51158521757E+01  0.51100000000E-03 0. -1.
         11    1    1    0    0    0 -0.42779940682E+02  0.19237689401E+02  0.33056444720E+02  0.57384148996E+02  0.51100000000E-03 0.  1.
         22    1    1    0    0    0  0.46592167568E+02 -0.20957509626E+02 -0.36002813296E+02  0.62499998829E+02  0.00000000000E+00 0.  1.
</event>
<event>
 4    1  0.1976955E-002  0.9118800E+02  0.7818608E-02  0.1130116E+00
         25   -1    0    0    0    0  0.00000000000E+00  0.00000000000E+00  0.99999998245E-14  0.12500000000E+03  0.12500000000E+03 0.  0.
        -11    1    1    0    0    0 -0.12749058970E+02 -0.12132829747E+01 -0.29203030107E+02  0.31887733188E+02  0.51100000000E-03 0. -1.
         11    1    1    0    0    0 -0.12251799523E+02 -0.12648498627E+01 -0.28025114885E+02  0.30612309637E+02  0.51100000000E-03 0.  1.
         22    1    1    0    0    0  0.25000858492E+02  0.24781328374E+01  0.57228144992E+02  0.62499957175E+02  0.00000000000E+00 0.  1.
</event>
<event>
 4    1  0.1976955E-002  0.9118800E+02  0.7818608E-02  0.1130116E+00
         25   -1    0    0    0    0  0.00000000000E+00  0.00000000000E+00  0.99999998245E-14  0.12500000000E+03  0.12500000000E+03 0.  0.
        -11    1    1    0    0    0 -0.82366243905E+01  0.16134045602E+02 -0.19139140581E+02  0.26352535196E+02  0.51100000000E-03 0. -1.
         11    1    1    0    0    0 -0.22672476817E+01  0.10635122390E+02 -0.35377811343E+02  0.37011292546E+02  0.51100000000E-03 0.  1.
         22    1    1    0    0    0  0.10503872072E+02 -0.26769167992E+02  0.54516951924E+02  0.61636172257E+02  0.00000000000E+00 0. -1.
</event>
<event>
 4    1  0.1976955E-002  0.9118800E+02  0.7818608E-02  0.1130116E+00
         25   -1    0    0    0    0  0.00000000000E+00  0.00000000000E+00  0.99999998245E-14  0.12500000000E+03  0.12500000000E+03 0.  0.
        -11    1    1    0    0    0  0.12048085760E+02 -0.20118437518E+02 -0.41837713885E+02  0.47961465804E+02  0.51100000000E-03 0.  1.
         11    1    1    0    0    0 -0.12943003205E+02  0.97423968280E+01 -0.13278834418E+02  0.20946672091E+02  0.51100000000E-03 0. -1.
         22    1    1    0    0    0  0.89491744507E+00  0.10376040690E+02  0.55116548303E+02  0.56091862106E+02  0.00000000000E+00 0.  1.
</event>
<event>
 4    1  0.1976955E-002  0.9118800E+02  0.7818608E-02  0.1130116E+00
         25   -1    0    0    0    0  0.00000000000E+00  0.00000000000E+00  0.99999998245E-14  0.12500000000E+03  0.12500000000E+03 0.  0.
        -11    1    1    0    0    0  0.19909918398E+01 -0.18123209833E+01 -0.11909660032E+00  0.26949471450E+01  0.51100000000E-03 0.  1.
         11    1    1    0    0    0  0.44249339590E+02 -0.40149904549E+02 -0.25740546807E+01  0.59805055365E+02  0.51100000000E-03 0. -1.
         22    1    1    0    0    0 -0.46240331430E+02  0.41962225533E+02  0.26931512810E+01  0.62499997490E+02  0.00000000000E+00 0. -1.
</event>
<event>
 4    1  0.1976955E-002  0.9118800E+02  0.7818608E-02  0.1130116E+00
         25   -1    0    0    0    0  0.00000000000E+00  0.00000000000E+00  0.99999998245E-14  0.12500000000E+03  0.12500000000E+03 0.  0.
        -11    1    1    0    0    0 -0.49230032690E+02  0.14363994931E+01  0.16350260064E+02  0.51894030163E+02  0.51100000000E-03 0. -1.
         11    1    1    0    0    0 -0.93191562606E+01  0.11781474445E+01  0.51095553549E+01  0.10693094080E+02  0.51100000000E-03 0.  1.
         22    1    1    0    0    0  0.58549188951E+02 -0.26145469376E+01 -0.21459815419E+02  0.62412875757E+02  0.00000000000E+00 0. -1.
</event>
<event>
 4    1  0.1976955E-002  0.9118800E+02  0.7818608E-02  0.1130116E+00
         25   -1    0    0    0    0  0.00000000000E+00  0.00000000000E+00  0.99999998245E-14  0.12500000000E+03  0.12500000000E+03 0.  0.
        -11    1    1    0    0    0 -0.27726327071E+02 -0.40399517528E+02  0.21948084642E+01  0.49047807431E+02  0.51100000000E-03 0. -1.
         11    1    1    0    0    0 -0.76121516193E+01 -0.11075371977E+02  0.59399149400E+00  0.13452194722E+02  0.51100000000E-03 0.  1.
         22    1    1    0    0    0  0.35338478690E+02  0.51474889505E+02 -0.27887999582E+01  0.62499997847E+02  0.00000000000E+00 0. -1.
</event>
<event>
 4    1  0.1976955E-002  0.9118800E+02  0.7818608E-02  0.1130116E+00
         25   -1    0    0    0    0  0.00000000000E+00  0.00000000000E+00  0.99999998245E-14  0.12500000000E+03  0.12500000000E+03 0.  0.
        -11    1    1    0    0    0 -0.79250903831E+00  0.61359541527E+00  0.51055509902E+01  0.52030011613E+01  0.51100000000E-03 0.  1.
         11    1    1    0    0    0 -0.50875642729E+02  0.23242095241E+01  0.28238534888E+02  0.58233562710E+02  0.51100000000E-03 0. -1.
         22    1    1    0    0    0  0.51668151768E+02 -0.29378049394E+01 -0.33344085878E+02  0.61563436129E+02  0.00000000000E+00 0. -1.
</event>
<event>
 4    1  0.1976955E-002  0.9118800E+02  0.7818608E-02  0.1130116E+00
         25   -1    0    0    0    0  0.00000000000E+00  0.00000000000E+00  0.99999998245E-14  0.12500000000E+03  0.12500000000E+03 0.  0.
        -11    1    1    0    0    0  0.23759763466E+01  0.40282813528E+01  0.55241472899E+01  0.72379912820E+01  0.51100000000E-03 0.  1.
         11    1    1    0    0    0  0.18123090738E+02  0.30766085957E+02  0.42176903265E+02  0.55262008942E+02  0.51100000000E-03 0. -1.
         22    1    1    0    0    0 -0.20499067085E+02 -0.34794367310E+02 -0.47701050555E+02  0.62499999776E+02  0.00000000000E+00 0. -1.
</event>
<event>
 4    1  0.1976955E-002  0.9118800E+02  0.7818608E-02  0.1130116E+00
         25   -1    0    0    0    0  0.00000000000E+00  0.00000000000E+00  0.99999998245E-14  0.12500000000E+03  0.12500000000E+03 0.  0.
        -11    1    1    0    0    0 -0.18180871235E+02  0.21748291167E+01 -0.39920269792E+01  0.18740604052E+02  0.51100000000E-03 0.  1.
         11    1    1    0    0    0 -0.41397987621E+02  0.86218013215E+01 -0.11377151150E+02  0.43790049163E+02  0.51100000000E-03 0. -1.
         22    1    1    0    0    0  0.59578858856E+02 -0.10796630438E+02  0.15369178130E+02  0.62469346786E+02  0.00000000000E+00 0. -1.
</event>
<event>
 4    1  0.1976955E-002  0.9118800E+02  0.7818608E-02  0.1130116E+00
         25   -1    0    0    0    0  0.00000000000E+00  0.00000000000E+00  0.99999998245E-14  0.12500000000E+03  0.12500000000E+03 0.  0.
        -11    1    1    0    0    0 -0.18442076960E+00 -0.32483772785E+01  0.32457428332E+01  0.45957385439E+01  0.51100000000E-03 0. -1.
         11    1    1    0    0    0 -0.23227646273E+01 -0.40903965231E+02  0.40919114509E+02  0.57904261843E+02  0.51100000000E-03 0.  1.
         22    1    1    0    0    0  0.25071853969E+01  0.44152342509E+02 -0.44164857342E+02  0.62499999613E+02  0.00000000000E+00 0.  1.
</event>
<event>
 4    1  0.1976955E-002  0.9118800E+02  0.7818608E-02  0.1130116E+00
         25   -1    0    0    0    0  0.00000000000E+00  0.00000000000E+00  0.99999998245E-14  0.12500000000E+03  0.12500000000E+03 0.  0.
        -11    1    1    0    0    0 -0.24218107014E+02 -0.27941346230E+02  0.35507283715E+02  0.51264049134E+02  0.51100000000E-03 0.  1.
         11    1    1    0    0    0 -0.55357002479E+01 -0.72520101635E+01  0.66400648257E+01  0.11283886290E+02  0.51100000000E-03 0. -1.
         22    1    1    0    0    0  0.29753807262E+02  0.35193356394E+02 -0.42147348541E+02  0.62452064577E+02  0.00000000000E+00 0. -1.
</event>
<event>
 4    1  0.1976955E-002  0.9118800E+02  0.7818608E-02  0.1130116E+00
         25   -1    0    0    0    0  0.00000000000E+00  0.00000000000E+00  0.99999998245E-14  0.12500000000E+03  0.12500000000E+03 0.  0.
        -11    1    1    0    0    0  0.15861199109E+01  0.85396994766E+00  0.11380976370E+01  0.21307997409E+01  0.51100000000E-03 0. -1.
         11    1    1    0    0    0  0.44258490453E+02  0.39791809769E+02  0.10692096183E+02  0.60469190692E+02  0.51100000000E-03 0.  1.
         22    1    1    0    0    0 -0.45844610364E+02 -0.40645779716E+02 -0.11830193820E+02  0.62400009567E+02  0.00000000000E+00 0.  1.
</event>
<event>
 4    1  0.1976955E-002  0.9118800E+02  0.7818608E-02  0.1130116E+00
         25   -1    0    0    0    0  0.00000000000E+00  0.00000000000E+00  0.99999998245E-14  0.12500000000E+03  0.12500000000E+03 0.  0.
        -11    1    1    0    0    0  0.49671254660E+02  0.22698522854E+02  0.27552618499E+02  0.61168646100E+02  0.51100000000E-03 0.  1.
         11    1    1    0    0    0  0.10851493331E+01  0.49732375365E+00  0.58964879387E+00  0.13313774643E+01  0.51100000000E-03 0. -1.
         22    1    1    0    0    0 -0.50756403993E+02 -0.23195846607E+02 -0.28142267293E+02  0.62499976436E+02  0.00000000000E+00 0.  1.
</event>
<event>
 4    1  0.1976955E-002  0.9118800E+02  0.7818608E-02  0.1130116E+00
         25   -1    0    0    0    0  0.00000000000E+00  0.00000000000E+00  0.99999998245E-14  0.12500000000E+03  0.12500000000E+03 0.  0.
        -11    1    1    0    0    0 -0.23556329217E+02  0.15586522207E+02  0.15225661568E+02  0.32088332632E+02  0.51100000000E-03 0. -1.
         11    1    1    0    0    0 -0.15233319156E+02  0.25319469083E+02 -0.20989113992E+02  0.36244619375E+02  0.51100000000E-03 0.  1.
         22    1    1    0    0    0  0.38789648373E+02 -0.40905991291E+02  0.57634524243E+01  0.56667047993E+02  0.00000000000E+00 0.  1.
</event>
<event>
 4    1  0.1976955E-002  0.9118800E+02  0.7818608E-02  0.1130116E+00
         25   -1    0    0    0    0  0.00000000000E+00  0.00000000000E+00  0.99999998245E-14  0.12500000000E+03  0.12500000000E+03 0.  0.
        -11    1    1    0    0    0 -0.45644321258E+02  0.33779356291E+01 -0.36570840450E+02  0.58585329936E+02  0.51100000000E-03 0.  1.
         11    1    1    0    0    0 -0.30499411049E+01  0.22693529801E+00 -0.24435633659E+01  0.39146701722E+01  0.51100000000E-03 0. -1.
         22    1    1    0    0    0  0.48694262363E+02 -0.36048709271E+01  0.39014403816E+02  0.62499999892E+02  0.00000000000E+00 0.  1.
</event>
<event>
 4    1  0.1976955E-002  0.9118800E+02  0.7818608E-02  0.1130116E+00
         25   -1    0    0    0    0  0.00000000000E+00  0.00000000000E+00  0.99999998245E-14  0.12500000000E+03  0.12500000000E+03 0.  0.
        -11    1    1    0    0    0  0.17768381733E+01  0.44573911802E+01  0.40968945300E+00  0.48159459856E+01  0.51100000000E-03 0.  1.
         11    1    1    0    0    0  0.12355500664E+02  0.50389540989E+02  0.25605418330E+02  0.57856734144E+02  0.51100000000E-03 0. -1.
         22    1    1    0    0    0 -0.14132338837E+02 -0.54846932169E+02 -0.26015107783E+02  0.62327319871E+02  0.00000000000E+00 0. -1.
</event>
<event>
 4    1  0.1976955E-002  0.9118800E+02  0.7818608E-02  0.1130116E+00
         25   -1    0    0    0    0  0.00000000000E+00  0.00000000000E+00  0.99999998245E-14  0.12500000000E+03  0.12500000000E+03 0.  0.
        -11    1    1    0    0    0  0.43220362202E+02 -0.19911572566E+01 -0.35891105117E+02  0.56215085545E+02  0.51100000000E-03 0. -1.
         11    1    1    0    0    0  0.48320093330E+01 -0.22382352617E+00 -0.40126972330E+01  0.62849145189E+01  0.51100000000E-03 0. -1.
         22    1    1    0    0    0 -0.48052371535E+02  0.22149807828E+01  0.39903802350E+02  0.62499999936E+02  0.00000000000E+00 0. -1.
</event>
<event>
 4    1  0.1976955E-002  0.9118800E+02  0.7818608E-02  0.1130116E+00
         25   -1    0    0    0    0  0.00000000000E+00  0.00000000000E+00  0.99999998245E-14  0.12500000000E+03  0.12500000000E+03 0.  0.
        -11    1    1    0    0    0 -0.10000774375E+01 -0.40084078175E+02 -0.25095030188E+02  0.47302156594E+02  0.51100000000E-03 0.  1.
         11    1    1    0    0    0 -0.60262667774E-01 -0.12695726672E+02 -0.83582790702E+01  0.15200195281E+02  0.51100000000E-03 0. -1.
         22    1    1    0    0    0  0.10603401052E+01  0.52779804847E+02  0.33453309258E+02  0.62497648125E+02  0.00000000000E+00 0.  1.
</event>
<event>
 4    1  0.1976955E-002  0.9118800E+02  0.7818608E-02  0.1130116E+00
         25   -1    0    0    0    0  0.00000000000E+00  0.00000000000E+00  0.99999998245E-14  0.12500000000E+03  0.12500000000E+03 0.  0.
        -11    1    1    0    0    0  0.53619919549E+01  0.40133651735E+01  0.15972567793E+00  0.66995201540E+01  0.51100000000E-03 0. -1.
         11    1    1    0    0    0  0.45068904077E+02  0.32828501205E+02  0.22013135922E+01  0.55801096655E+02  0.51100000000E-03 0.  1.
         22    1    1    0    0    0 -0.50430896032E+02 -0.36841866378E+02 -0.23610392701E+01  0.62499383191E+02  0.00000000000E+00 0.  1.
</event>
<event>
 4    1  0.1976955E-002  0.9118800E+02  0.7818608E-02  0.1130116E+00
         25   -1    0    0    0    0  0.00000000000E+00  0.00000000000E+00  0.99999998245E-14  0.12500000000E+03  0.12500000000E+03 0.  0.
        -11    1    1    0    0    0  0.55352603861E+01 -0.38469428408E+02 -0.21031829790E+02  0.44191332794E+02  0.51100000000E-03 0. -1.
         11    1    1    0    0    0  0.23015147957E+01 -0.15943109726E+02 -0.87021638550E+01  0.18308669370E+02  0.51100000000E-03 0.  1.
         22    1    1    0    0    0 -0.78367751818E+01  0.54412538134E+02  0.29733993645E+02  0.62499997836E+02  0.00000000000E+00 0. -1.
</event>
<event>
 4    1  0.1976955E-002  0.9118800E+02  0.7818608E-02  0.1130116E+00
         25   -1    0    0    0    0  0.00000000000E+00  0.00000000000E+00  0.99999998245E-14  0.12500000000E+03  0.12500000000E+03 0.  0.
        -11    1    1    0    0    0  0.84286654494E+01  0.15946845353E+01 -0.29043910286E+01  0.90565394900E+01  0.51100000000E-03 0. -1.
         11    1    1    0    0    0  0.47523461286E+02  0.19910939229E+02 -0.14496041696E+02  0.53526256162E+02  0.51100000000E-03 0.  1.
         22    1    1    0    0    0 -0.55952126735E+02 -0.21505623764E+02  0.17400432725E+02  0.62417204348E+02  0.00000000000E+00 0.  1.
</event>
<event>
 4    1  0.1976955E-002  0.9118800E+02  0.7818608E-02  0.1130116E+00
         25   -1    0    0    0    0  0.00000000000E+00  0.00000000000E+00  0.99999998245E-14  0.12500000000E+03  0.12500000000E+03 0.  0.
        -11    1    1    0    0    0 -0.35766243189E+02  0.39006473682E+02 -0.10297758271E+02  0.53914496814E+02  0.51100000000E-03 0. -1.
         11    1    1    0    0    0 -0.72014283706E+01 -0.36315028593E+01 -0.90871416310E+01  0.12150083410E+02  0.51100000000E-03 0.  1.
         22    1    1    0    0    0  0.42967671560E+02 -0.35374970823E+02  0.19384899902E+02  0.58935419776E+02  0.00000000000E+00 0. -1.
</event>
<event>
 4    1  0.1976955E-002  0.9118800E+02  0.7818608E-02  0.1130116E+00
         25   -1    0    0    0    0  0.00000000000E+00  0.00000000000E+00  0.99999998245E-14  0.12500000000E+03  0.12500000000E+03 0.  0.
        -11    1    1    0    0    0 -0.17366132725E+02  0.11224061532E+02  0.30352249599E+02  0.36726300917E+02  0.51100000000E-03 0. -1.
         11    1    1    0    0    0 -0.17930000610E+02 -0.15693204334E+01  0.19432625277E+02  0.26487253801E+02  0.51100000000E-03 0.  1.
         22    1    1    0    0    0  0.35296133335E+02 -0.96547410984E+01 -0.49784874876E+02  0.61786445281E+02  0.00000000000E+00 0.  1.
</event>
<event>
 4    1  0.1976955E-002  0.9118800E+02  0.7818608E-02  0.1130116E+00
         25   -1    0    0    0    0  0.00000000000E+00  0.00000000000E+00  0.99999998245E-14  0.12500000000E+03  0.12500000000E+03 0.  0.
        -11    1    1    0    0    0 -0.13064192537E+02 -0.23276370936E+02  0.80898376053E+00  0.26704251077E+02  0.51100000000E-03 0. -1.
         11    1    1    0    0    0 -0.17491809841E+02 -0.31214863023E+02  0.10030445621E+01  0.35795770473E+02  0.51100000000E-03 0.  1.
         22    1    1    0    0    0  0.30556002378E+02  0.54491233959E+02 -0.18120283227E+01  0.62499978451E+02  0.00000000000E+00 0.  1.
</event>
<event>
 4    1  0.1976955E-002  0.9118800E+02  0.7818608E-02  0.1130116E+00
         25   -1    0    0    0    0  0.00000000000E+00  0.00000000000E+00  0.99999998245E-14  0.12500000000E+03  0.12500000000E+03 0.  0.
        -11    1    1    0    0    0 -0.88996700657E+00  0.22698324887E+02 -0.60663825072E+00  0.22723864200E+02  0.51100000000E-03 0.  1.
         11    1    1    0    0    0 -0.15408397792E+01  0.39732871265E+02 -0.10324452507E+01  0.39776138446E+02  0.51100000000E-03 0. -1.
         22    1    1    0    0    0  0.24308067858E+01 -0.62431196152E+02  0.16390835014E+01  0.62499997355E+02  0.00000000000E+00 0. -1.
</event>
<event>
 4    1  0.1976955E-002  0.9118800E+02  0.7818608E-02  0.1130116E+00
         25   -1    0    0    0    0  0.00000000000E+00  0.00000000000E+00  0.99999998245E-14  0.12500000000E+03  0.12500000000E+03 0.  0.
        -11    1    1    0    0    0  0.11631281267E+02 -0.85598905672E+01  0.52393121728E+02  0.54347011281E+02  0.51100000000E-03 0.  1.
         11    1    1    0    0    0  0.17449320686E+01 -0.12837989302E+01  0.78599171356E+01  0.81529887316E+01  0.51100000000E-03 0.  1.
         22    1    1    0    0    0 -0.13376213336E+02  0.98436894974E+01 -0.60253038864E+02  0.62499999988E+02  0.00000000000E+00 0.  1.
</event>
<event>
 4    1  0.1976955E-002  0.9118800E+02  0.7818608E-02  0.1130116E+00
         25   -1    0    0    0    0  0.00000000000E+00  0.00000000000E+00  0.99999998245E-14  0.12500000000E+03  0.12500000000E+03 0.  0.
        -11    1    1    0    0    0 -0.19614879102E+01  0.29717043945E+02 -0.27206283560E+02  0.40337724292E+02  0.51100000000E-03 0. -1.
         11    1    1    0    0    0 -0.10767365805E+01  0.16327935500E+02 -0.14946759713E+02  0.22162275730E+02  0.51100000000E-03 0. -1.
         22    1    1    0    0    0  0.30382244906E+01 -0.46044979445E+02  0.42153043273E+02  0.62499999978E+02  0.00000000000E+00 0. -1.
</event>
<event>
 4    1  0.1976955E-002  0.9118800E+02  0.7818608E-02  0.1130116E+00
         25   -1    0    0    0    0  0.00000000000E+00  0.00000000000E+00  0.99999998245E-14  0.12500000000E+03  0.12500000000E+03 0.  0.
        -11    1    1    0    0    0 -0.17324867146E+02 -0.55697985403E+01 -0.12488264035E+02  0.22071031155E+02  0.51100000000E-03 0. -1.
         11    1    1    0    0    0 -0.31728434541E+02 -0.10140051031E+02 -0.22912622479E+02  0.40428980478E+02  0.51100000000E-03 0.  1.
         22    1    1    0    0    0  0.49053301687E+02  0.15709849571E+02  0.35400886514E+02  0.62499988367E+02  0.00000000000E+00 0.  1.
</event>
<event>
 4    1  0.1976955E-002  0.9118800E+02  0.7818608E-02  0.1130116E+00
         25   -1    0    0    0    0  0.00000000000E+00  0.00000000000E+00  0.99999998245E-14  0.12500000000E+03  0.12500000000E+03 0.  0.
        -11    1    1    0    0    0  0.24348646720E+02  0.75528232567E-01 -0.73530032108E+01  0.25434798173E+02  0.51100000000E-03 0. -1.
         11    1    1    0    0    0  0.35489867154E+02  0.13044344638E+00 -0.10690263023E+02  0.37065204841E+02  0.51100000000E-03 0.  1.
         22    1    1    0    0    0 -0.59838513874E+02 -0.20597167894E+00  0.18043266234E+02  0.62499996987E+02  0.00000000000E+00 0.  1.
</event>
<event>
 4    1  0.1976955E-002  0.9118800E+02  0.7818608E-02  0.1130116E+00
         25   -1    0    0    0    0  0.00000000000E+00  0.00000000000E+00  0.99999998245E-14  0.12500000000E+03  0.12500000000E+03 0.  0.
        -11    1    1    0    0    0  0.50724515273E+02  0.15837837242E+02  0.10312910259E+02  0.54131041523E+02  0.51100000000E-03 0. -1.
         11    1    1    0    0    0  0.77310060464E+01  0.27088403109E+01  0.17248932937E+01  0.83714710449E+01  0.51100000000E-03 0.  1.
         22    1    1    0    0    0 -0.58455521319E+02 -0.18546677553E+02 -0.12037803552E+02  0.62497487432E+02  0.00000000000E+00 0. -1.
</event>
<event>
 4    1  0.1976955E-002  0.9118800E+02  0.7818608E-02  0.1130116E+00
         25   -1    0    0    0    0  0.00000000000E+00  0.00000000000E+00  0.99999998245E-14  0.12500000000E+03  0.12500000000E+03 0.  0.
        -11    1    1    0    0    0 -0.21001204067E+02  0.54034792690E+01  0.72226838747E+01  0.22856406609E+02  0.51100000000E-03 0.  1.
         11    1    1    0    0    0 -0.36426102985E+02  0.93705738924E+01  0.12527803628E+02  0.39643593402E+02  0.51100000000E-03 0. -1.
         22    1    1    0    0    0  0.57427307052E+02 -0.14774053161E+02 -0.19750487503E+02  0.62499999989E+02  0.00000000000E+00 0.  1.
</event>
<event>
 4    1  0.1976955E-002  0.9118800E+02  0.7818608E-02  0.1130116E+00
         25   -1    0    0    0    0  0.00000000000E+00  0.00000000000E+00  0.99999998245E-14  0.12500000000E+03  0.12500000000E+03 0.  0.
        -11    1    1    0    0    0  0.21943469599E+02  0.23904591525E+02  0.11172458046E+02  0.34318641772E+02  0.51100000000E-03 0. -1.
         11    1    1    0    0    0 -0.27165298962E+01  0.25068213063E+02  0.17567621042E+02  0.30731354513E+02  0.51100000000E-03 0.  1.
         22    1    1    0    0    0 -0.19226939703E+02 -0.48972804588E+02 -0.28740079088E+02  0.59950003716E+02  0.00000000000E+00 0.  1.
</event>
<event>
 4    1  0.1976955E-002  0.9118800E+02  0.7818608E-02  0.1130116E+00
         25   -1    0    0    0    0  0.00000000000E+00  0.00000000000E+00  0.99999998245E-14  0.12500000000E+03  0.12500000000E+03 0.  0.
        -11    1    1    0    0    0  0.57696424594E+02  0.18310188160E+01  0.11008403730E+02  0.58765763789E+02  0.51100000000E-03 0. -1.
         11    1    1    0    0    0  0.36656153424E+01  0.11202868940E+00  0.70374075340E+00  0.37342385535E+01  0.51100000000E-03 0.  1.
         22    1    1    0    0    0 -0.61362039936E+02 -0.19430475054E+01 -0.11712144483E+02  0.62499997657E+02  0.00000000000E+00 0. -1.
</event>
<event>
 4    1  0.1976955E-002  0.9118800E+02  0.7818608E-02  0.1130116E+00
         25   -1    0    0    0    0  0.00000000000E+00  0.00000000000E+00  0.99999998245E-14  0.12500000000E+03  0.12500000000E+03 0.  0.
        -11    1    1    0    0    0 -0.79967463996E+01  0.21306526638E+02  0.20567194083E+02  0.30674509011E+02  0.51100000000E-03 0.  1.
         11    1    1    0    0    0 -0.25661086338E+01  0.25002241185E+02  0.19796154532E+02  0.31993510472E+02  0.51100000000E-03 0. -1.
         22    1    1    0    0    0  0.10562855033E+02 -0.46308767823E+02 -0.40363348616E+02  0.62331980517E+02  0.00000000000E+00 0.  1.
</event>
<event>
 4    1  0.1976955E-002  0.9118800E+02  0.7818608E-02  0.1130116E+00
         25   -1    0    0    0    0  0.00000000000E+00  0.00000000000E+00  0.99999998245E-14  0.12500000000E+03  0.12500000000E+03 0.  0.
        -11    1    1    0    0    0 -0.11156193423E+02 -0.93804095868E+01 -0.39651227114E+01  0.15105460406E+02  0.51100000000E-03 0.  1.
         11    1    1    0    0    0 -0.34994765834E+02 -0.29425756050E+02 -0.12479335752E+02  0.47394541626E+02  0.51100000000E-03 0. -1.
         22    1    1    0    0    0  0.46150959257E+02  0.38806165637E+02  0.16444458463E+02  0.62499997967E+02  0.00000000000E+00 0. -1.
</event>
<event>
 4    1  0.1976955E-002  0.9118800E+02  0.7818608E-02  0.1130116E+00
         25   -1    0    0    0    0  0.00000000000E+00  0.00000000000E+00  0.99999998245E-14  0.12500000000E+03  0.12500000000E+03 0.  0.
        -11    1    1    0    0    0  0.61545163153E+01 -0.10203827917E+02  0.15229382992E+02  0.19337277001E+02  0.51100000000E-03 0. -1.
         11    1    1    0    0    0  0.13723288584E+02 -0.22974215076E+02  0.33865706651E+02  0.43162823067E+02  0.51100000000E-03 0.  1.
         22    1    1    0    0    0 -0.19877804899E+02  0.33178042992E+02 -0.49095089643E+02  0.62499899932E+02  0.00000000000E+00 0.  1.
</event>
<event>
 4    1  0.1976955E-002  0.9118800E+02  0.7818608E-02  0.1130116E+00
         25   -1    0    0    0    0  0.00000000000E+00  0.00000000000E+00  0.99999998245E-14  0.12500000000E+03  0.12500000000E+03 0.  0.
        -11    1    1    0    0    0  0.14585537220E+01 -0.11073807214E+02  0.17451707305E+02  0.20720006595E+02  0.51100000000E-03 0. -1.
         11    1    1    0    0    0  0.15143210396E+01 -0.21510686582E+02  0.35792089978E+02  0.41786080346E+02  0.51100000000E-03 0.  1.
         22    1    1    0    0    0 -0.29728747616E+01  0.32584493796E+02 -0.53243797283E+02  0.62493913059E+02  0.00000000000E+00 0.  1.
</event>
<event>
 4    1  0.1976955E-002  0.9118800E+02  0.7818608E-02  0.1130116E+00
         25   -1    0    0    0    0  0.00000000000E+00  0.00000000000E+00  0.99999998245E-14  0.12500000000E+03  0.12500000000E+03 0.  0.
        -11    1    1    0    0    0  0.54973550339E+02  0.39187276305E+01  0.17039050607E+02  0.57686886803E+02  0.51100000000E-03 0.  1.
         11    1    1    0    0    0  0.45869064235E+01  0.32618009575E+00  0.14212511770E+01  0.48131132505E+01  0.51100000000E-03 0.  1.
         22    1    1    0    0    0 -0.59560456763E+02 -0.42449077263E+01 -0.18460301784E+02  0.62499999947E+02  0.00000000000E+00 0.  1.
</event>
<event>
 4    1  0.1976955E-002  0.9118800E+02  0.7818608E-02  0.1130116E+00
         25   -1    0    0    0    0  0.00000000000E+00  0.00000000000E+00  0.99999998245E-14  0.12500000000E+03  0.12500000000E+03 0.  0.
        -11    1    1    0    0    0  0.11901267842E+01  0.47575003233E+00  0.60876794132E+01  0.62211398276E+01  0.51100000000E-03 0. -1.
         11    1    1    0    0    0  0.14110879840E+02  0.74216567686E+01  0.53983439217E+02  0.56288627884E+02  0.51100000000E-03 0.  1.
         22    1    1    0    0    0 -0.15301006625E+02 -0.78974068010E+01 -0.60071118631E+02  0.62490232288E+02  0.00000000000E+00 0.  1.
</event>
<event>
 4    1  0.1976955E-002  0.9118800E+02  0.7818608E-02  0.1130116E+00
         25   -1    0    0    0    0  0.00000000000E+00  0.00000000000E+00  0.99999998245E-14  0.12500000000E+03  0.12500000000E+03 0.  0.
        -11    1    1    0    0    0 -0.27937160466E-01  0.34241246506E-01  0.32958458915E+00  0.33253452516E+00  0.51100000000E-03 0.  1.
         11    1    1    0    0    0 -0.51998242819E+01  0.64383724329E+01  0.61614145947E+02  0.62167465713E+02  0.51100000000E-03 0.  1.
         22    1    1    0    0    0  0.52277614424E+01 -0.64726136794E+01 -0.61943730536E+02  0.62499999762E+02  0.00000000000E+00 0.  1.
</event>
<event>
 4    1  0.1976955E-002  0.9118800E+02  0.7818608E-02  0.1130116E+00
         25   -1    0    0    0    0  0.00000000000E+00  0.00000000000E+00  0.99999998245E-14  0.12500000000E+03  0.12500000000E+03 0.  0.
        -11    1    1    0    0    0 -0.34920898813E+02 -0.14143274830E+02  0.23567134854E+01  0.37749907225E+02  0.51100000000E-03 0. -1.
         11    1    1    0    0    0 -0.21762729049E+02 -0.11631583492E+02  0.24433159537E+01  0.24796772034E+02  0.51100000000E-03 0.  1.
         22    1    1    0    0    0  0.56683627861E+02  0.25774858322E+02 -0.48000294391E+01  0.62453320741E+02  0.00000000000E+00 0. -1.
</event>
<event>
 4    1  0.1976955E-002  0.9118800E+02  0.7818608E-02  0.1130116E+00
         25   -1    0    0    0    0  0.00000000000E+00  0.00000000000E+00  0.99999998245E-14  0.12500000000E+03  0.12500000000E+03 0.  0.
        -11    1    1    0    0    0 -0.21247263293E+00 -0.36777189131E+00  0.59465917252E+01  0.59617408691E+01  0.51100000000E-03 0.  1.
         11    1    1    0    0    0 -0.20009089386E+01 -0.35039177000E+01  0.56394092711E+02  0.56538259337E+02  0.51100000000E-03 0. -1.
         22    1    1    0    0    0  0.22133815715E+01  0.38716895913E+01 -0.62340684436E+02  0.62499999794E+02  0.00000000000E+00 0. -1.
</event>
<event>
 4    1  0.1976955E-002  0.9118800E+02  0.7818608E-02  0.1130116E+00
         25   -1    0    0    0    0  0.00000000000E+00  0.00000000000E+00  0.99999998245E-14  0.12500000000E+03  0.12500000000E+03 0.  0.
        -11    1    1    0    0    0 -0.18401841044E+02 -0.30419200362E+01 -0.26159789738E+00  0.18653403578E+02  0.51100000000E-03 0. -1.
         11    1    1    0    0    0 -0.43264077002E+02 -0.70746680011E+01 -0.83724186933E+00  0.43846690416E+02  0.51100000000E-03 0.  1.
         22    1    1    0    0    0  0.61665918046E+02  0.10116588037E+02  0.10988397667E+01  0.62499906007E+02  0.00000000000E+00 0.  1.
</event>
<event>
 4    1  0.1976955E-002  0.9118800E+02  0.7818608E-02  0.1130116E+00
         25   -1    0    0    0    0  0.00000000000E+00  0.00000000000E+00  0.99999998245E-14  0.12500000000E+03  0.12500000000E+03 0.  0.
        -11    1    1    0    0    0 -0.55288624203E+02  0.13739790262E+02  0.18314054153E+02  0.59841610795E+02  0.51100000000E-03 0.  1.
         11    1    1    0    0    0 -0.21696834021E+01  0.11774247675E+01  0.10982608478E+01  0.27018571945E+01  0.51100000000E-03 0. -1.
         22    1    1    0    0    0  0.57458307605E+02 -0.14917215029E+02 -0.19412315001E+02  0.62456532011E+02  0.00000000000E+00 0.  1.
</event>
<event>
 4    1  0.1976955E-002  0.9118800E+02  0.7818608E-02  0.1130116E+00
         25   -1    0    0    0    0  0.00000000000E+00  0.00000000000E+00  0.99999998245E-14  0.12500000000E+03  0.12500000000E+03 0.  0.
        -11    1    1    0    0    0  0.10023248948E+02  0.23153527317E+02  0.11326297116E+02  0.27655674884E+02  0.51100000000E-03 0.  1.
         11    1    1    0    0    0  0.38513402735E+01 -0.52245139719E+02  0.16331348009E+02  0.54873494278E+02  0.51100000000E-03 0. -1.
         22    1    1    0    0    0 -0.13874589221E+02  0.29091612402E+02 -0.27657645124E+02  0.42470830838E+02  0.00000000000E+00 0. -1.
</event>
<event>
 4    1  0.1976955E-002  0.9118800E+02  0.7818608E-02  0.1130116E+00
         25   -1    0    0    0    0  0.00000000000E+00  0.00000000000E+00  0.99999998245E-14  0.12500000000E+03  0.12500000000E+03 0.  0.
        -11    1    1    0    0    0 -0.82389966290E+01 -0.15275217565E+02  0.19056464525E+02  0.25775224103E+02  0.51100000000E-03 0.  1.
         11    1    1    0    0    0 -0.67495869914E+01 -0.16567040630E+02  0.32325636039E+02  0.36945507242E+02  0.51100000000E-03 0. -1.
         22    1    1    0    0    0  0.14988583620E+02  0.31842258195E+02 -0.51382100564E+02  0.62279268655E+02  0.00000000000E+00 0.  1.
</event>
<event>
 4    1  0.1976955E-002  0.9118800E+02  0.7818608E-02  0.1130116E+00
         25   -1    0    0    0    0  0.00000000000E+00  0.00000000000E+00  0.99999998245E-14  0.12500000000E+03  0.12500000000E+03 0.  0.
        -11    1    1    0    0    0  0.36713202557E+02  0.16733123850E+02  0.26705967693E+01  0.40434994289E+02  0.51100000000E-03 0. -1.
         11    1    1    0    0    0  0.20039931190E+02  0.91204812939E+01  0.14431108303E+01  0.22065008277E+02  0.51100000000E-03 0.  1.
         22    1    1    0    0    0 -0.56753133747E+02 -0.25853605144E+02 -0.41137075996E+01  0.62499997434E+02  0.00000000000E+00 0. -1.
</event>
<event>
 4    1  0.1976955E-002  0.9118800E+02  0.7818608E-02  0.1130116E+00
         25   -1    0    0    0    0  0.00000000000E+00  0.00000000000E+00  0.99999998245E-14  0.12500000000E+03  0.12500000000E+03 0.  0.
        -11    1    1    0    0    0 -0.14057361373E+02 -0.58280003348E+01 -0.33043098641E+02  0.36378858761E+02  0.51100000000E-03 0. -1.
         11    1    1    0    0    0 -0.10026146542E+02 -0.39193069485E+01 -0.23800270292E+02  0.26121589685E+02  0.51100000000E-03 0.  1.
         22    1    1    0    0    0  0.24083507915E+02  0.97473072833E+01  0.56843368933E+02  0.62499551554E+02  0.00000000000E+00 0.  1.
</event>
<event>
 4    1  0.1976955E-002  0.9118800E+02  0.7818608E-02  0.1130116E+00
         25   -1    0    0    0    0  0.00000000000E+00  0.00000000000E+00  0.99999998245E-14  0.12500000000E+03  0.12500000000E+03 0.  0.
        -11    1    1    0    0    0 -0.35176558912E+02 -0.87819878331E+01 -0.12442242503E+02  0.38331749320E+02  0.51100000000E-03 0. -1.
         11    1    1    0    0    0 -0.22180004421E+02 -0.55443309686E+01 -0.78365921431E+01  0.24168251461E+02  0.51100000000E-03 0.  1.
         22    1    1    0    0    0  0.57356563333E+02  0.14326318802E+02  0.20278834646E+02  0.62499999219E+02  0.00000000000E+00 0. -1.
</event>
<event>
 4    1  0.1976955E-002  0.9118800E+02  0.7818608E-02  0.1130116E+00
         25   -1    0    0    0    0  0.00000000000E+00  0.00000000000E+00  0.99999998245E-14  0.12500000000E+03  0.12500000000E+03 0.  0.
        -11    1    1    0    0    0  0.83952724014E+01  0.23229184693E+02  0.52369296635E+02  0.57901803517E+02  0.51100000000E-03 0. -1.
         11    1    1    0    0    0  0.71966994772E+00  0.16872152661E+01  0.42182003863E+01  0.45997646622E+01  0.51100000000E-03 0.  1.
         22    1    1    0    0    0 -0.91149423491E+01 -0.24916399959E+02 -0.56587497021E+02  0.62498431821E+02  0.00000000000E+00 0. -1.
</event>
<event>
 4    1  0.1976955E-002  0.9118800E+02  0.7818608E-02  0.1130116E+00
         25   -1    0    0    0    0  0.00000000000E+00  0.00000000000E+00  0.99999998245E-14  0.12500000000E+03  0.12500000000E+03 0.  0.
        -11    1    1    0    0    0  0.98536604283E+01  0.64688662396E+01 -0.92205016232E+01  0.14965243222E+02  0.51100000000E-03 0. -1.
         11    1    1    0    0    0  0.30931322237E+02  0.20808383339E+02 -0.29493168084E+02  0.47535065756E+02  0.51100000000E-03 0.  1.
         22    1    1    0    0    0 -0.40784982665E+02 -0.27277249579E+02  0.38713669707E+02  0.62499691022E+02  0.00000000000E+00 0.  1.
</event>
<event>
 4    1  0.1976955E-002  0.9118800E+02  0.7818608E-02  0.1130116E+00
         25   -1    0    0    0    0  0.00000000000E+00  0.00000000000E+00  0.99999998245E-14  0.12500000000E+03  0.12500000000E+03 0.  0.
        -11    1    1    0    0    0 -0.41638885597E+01 -0.85118182051E+01  0.12971643523E+01  0.95640813836E+01  0.51100000000E-03 0. -1.
         11    1    1    0    0    0 -0.23023671500E+02 -0.47141761317E+02  0.70553286285E+01  0.52935930819E+02  0.51100000000E-03 0.  1.
         22    1    1    0    0    0  0.27187560059E+02  0.55653579522E+02 -0.83524929808E+01  0.62499987797E+02  0.00000000000E+00 0.  1.
</event>
<event>
 4    1  0.1976955E-002  0.9118800E+02  0.7818608E-02  0.1130116E+00
         25   -1    0    0    0    0  0.00000000000E+00  0.00000000000E+00  0.99999998245E-14  0.12500000000E+03  0.12500000000E+03 0.  0.
        -11    1    1    0    0    0 -0.15117778535E+02  0.30010690162E+02 -0.28795753428E+02  0.44253634513E+02  0.51100000000E-03 0.  1.
         11    1    1    0    0    0 -0.62314742844E+01  0.12374154110E+02 -0.11873453290E+02  0.18246365528E+02  0.51100000000E-03 0. -1.
         22    1    1    0    0    0  0.21349252819E+02 -0.42384844272E+02  0.40669206718E+02  0.62499999960E+02  0.00000000000E+00 0.  1.
</event>
<event>
 4    1  0.1976955E-002  0.9118800E+02  0.7818608E-02  0.1130116E+00
         25   -1    0    0    0    0  0.00000000000E+00  0.00000000000E+00  0.99999998245E-14  0.12500000000E+03  0.12500000000E+03 0.  0.
        -11    1    1    0    0    0 -0.19200881772E+02 -0.54810092738E+02  0.17027118063E+02  0.60520598779E+02  0.51100000000E-03 0. -1.
         11    1    1    0    0    0  0.12617530992E+00 -0.20215204976E+01  0.36953824219E+00  0.20588890462E+01  0.51100000000E-03 0.  1.
         22    1    1    0    0    0  0.19074706462E+02  0.56831613235E+02 -0.17396656306E+02  0.62420512175E+02  0.00000000000E+00 0. -1.
</event>
<event>
 4    1  0.1976955E-002  0.9118800E+02  0.7818608E-02  0.1130116E+00
         25   -1    0    0    0    0  0.00000000000E+00  0.00000000000E+00  0.99999998245E-14  0.12500000000E+03  0.12500000000E+03 0.  0.
        -11    1    1    0    0    0 -0.17822130097E+00 -0.32008264934E+02 -0.27727264620E+02  0.42348104922E+02  0.51100000000E-03 0.  1.
         11    1    1    0    0    0 -0.10156300596E+00 -0.15231147125E+02 -0.13194726696E+02  0.20151897444E+02  0.51100000000E-03 0. -1.
         22    1    1    0    0    0  0.27978430693E+00  0.47239412059E+02  0.40921991316E+02  0.62499997633E+02  0.00000000000E+00 0.  1.
</event>
<event>
 4    1  0.1976955E-002  0.9118800E+02  0.7818608E-02  0.1130116E+00
         25   -1    0    0    0    0  0.00000000000E+00  0.00000000000E+00  0.99999998245E-14  0.12500000000E+03  0.12500000000E+03 0.  0.
        -11    1    1    0    0    0 -0.47194590877E+02 -0.16323302517E+02  0.27653045916E+02  0.57083014653E+02  0.51100000000E-03 0.  1.
         11    1    1    0    0    0 -0.28131344028E+01 -0.49275280260E+01  0.20003769493E+01  0.60162916997E+01  0.51100000000E-03 0. -1.
         22    1    1    0    0    0  0.50007725280E+02  0.21250830543E+02 -0.29653422865E+02  0.61900693648E+02  0.00000000000E+00 0.  1.
</event>
<event>
 4    1  0.1976955E-002  0.9118800E+02  0.7818608E-02  0.1130116E+00
         25   -1    0    0    0    0  0.00000000000E+00  0.00000000000E+00  0.99999998245E-14  0.12500000000E+03  0.12500000000E+03 0.  0.
        -11    1    1    0    0    0 -0.16981644743E+01  0.42726211392E+02 -0.83657241430E+01  0.43570612150E+02  0.51100000000E-03 0.  1.
         11    1    1    0    0    0 -0.12888581836E+02  0.52809186605E+01 -0.19555998350E+02  0.24009179815E+02  0.51100000000E-03 0. -1.
         22    1    1    0    0    0  0.14586746311E+02 -0.48007130052E+02  0.27921722493E+02  0.57420208035E+02  0.00000000000E+00 0.  1.
</event>
<event>
 4    1  0.1976955E-002  0.9118800E+02  0.7818608E-02  0.1130116E+00
         25   -1    0    0    0    0  0.00000000000E+00  0.00000000000E+00  0.99999998245E-14  0.12500000000E+03  0.12500000000E+03 0.  0.
        -11    1    1    0    0    0  0.66728810607E+01  0.58925410315E+02 -0.17933214386E+02  0.61954269432E+02  0.51100000000E-03 0.  1.
         11    1    1    0    0    0  0.32627802198E+00  0.47933031510E+00 -0.58632818783E-01  0.58279753531E+00  0.51100000000E-03 0. -1.
         22    1    1    0    0    0 -0.69991590826E+01 -0.59404740630E+02  0.17991847205E+02  0.62462933032E+02  0.00000000000E+00 0.  1.
</event>
<event>
 4    1  0.1976955E-002  0.9118800E+02  0.7818608E-02  0.1130116E+00
         25   -1    0    0    0    0  0.00000000000E+00  0.00000000000E+00  0.99999998245E-14  0.12500000000E+03  0.12500000000E+03 0.  0.
        -11    1    1    0    0    0 -0.23166567402E+02  0.10025696349E+02 -0.10236885970E+02  0.27239645135E+02  0.51100000000E-03 0. -1.
         11    1    1    0    0    0 -0.29351090906E+02  0.12135100274E+02 -0.15354238528E+02  0.35277469255E+02  0.51100000000E-03 0.  1.
         22    1    1    0    0    0  0.52517658308E+02 -0.22160796622E+02  0.25591124498E+02  0.62482885610E+02  0.00000000000E+00 0.  1.
</event>
<event>
 4    1  0.1976955E-002  0.9118800E+02  0.7818608E-02  0.1130116E+00
         25   -1    0    0    0    0  0.00000000000E+00  0.00000000000E+00  0.99999998245E-14  0.12500000000E+03  0.12500000000E+03 0.  0.
        -11    1    1    0    0    0  0.24322782604E+02 -0.74548018245E+01  0.33711856463E+01  0.25661970243E+02  0.51100000000E-03 0. -1.
         11    1    1    0    0    0  0.34914943549E+02 -0.10702614491E+02  0.48416110776E+01  0.36838029780E+02  0.51100000000E-03 0.  1.
         22    1    1    0    0    0 -0.59237726153E+02  0.18157416316E+02 -0.82127967239E+01  0.62499999977E+02  0.00000000000E+00 0.  1.
</event>
<event>
 4    1  0.1976955E-002  0.9118800E+02  0.7818608E-02  0.1130116E+00
         25   -1    0    0    0    0  0.00000000000E+00  0.00000000000E+00  0.99999998245E-14  0.12500000000E+03  0.12500000000E+03 0.  0.
        -11    1    1    0    0    0 -0.49952690831E+01 -0.59863344535E+01  0.10793274353E+02  0.13314791959E+02  0.51100000000E-03 0.  1.
         11    1    1    0    0    0 -0.18739963617E+02 -0.21464595667E+02  0.40091501003E+02  0.49185806453E+02  0.51100000000E-03 0. -1.
         22    1    1    0    0    0  0.23735232700E+02  0.27450930121E+02 -0.50884775356E+02  0.62499401588E+02  0.00000000000E+00 0. -1.
</event>
<event>
 4    1  0.1976955E-002  0.9118800E+02  0.7818608E-02  0.1130116E+00
         25   -1    0    0    0    0  0.00000000000E+00  0.00000000000E+00  0.99999998245E-14  0.12500000000E+03  0.12500000000E+03 0.  0.
        -11    1    1    0    0    0  0.30971985441E+01 -0.16764362855E+01  0.41884789703E+00  0.35466196952E+01  0.51100000000E-03 0. -1.
         11    1    1    0    0    0  0.59155056211E+02 -0.58342668099E+00  0.94169788407E-01  0.59158008166E+02  0.51100000000E-03 0.  1.
         22    1    1    0    0    0 -0.62252254755E+02  0.22598629665E+01 -0.51301768544E+00  0.62295372138E+02  0.00000000000E+00 0.  1.
</event>
<event>
 4    1  0.1976955E-002  0.9118800E+02  0.7818608E-02  0.1130116E+00
         25   -1    0    0    0    0  0.00000000000E+00  0.00000000000E+00  0.99999998245E-14  0.12500000000E+03  0.12500000000E+03 0.  0.
        -11    1    1    0    0    0 -0.11501157568E+02  0.95231341525E+01 -0.17403526481E+02  0.22931407365E+02  0.51100000000E-03 0. -1.
         11    1    1    0    0    0 -0.19844872685E+02  0.16432584336E+02 -0.30030396659E+02  0.39568592641E+02  0.51100000000E-03 0. -1.
         22    1    1    0    0    0  0.31346030252E+02 -0.25955718489E+02  0.47433923140E+02  0.62499999994E+02  0.00000000000E+00 0. -1.
</event>
<event>
 4    1  0.1976955E-002  0.9118800E+02  0.7818608E-02  0.1130116E+00
         25   -1    0    0    0    0  0.00000000000E+00  0.00000000000E+00  0.99999998245E-14  0.12500000000E+03  0.12500000000E+03 0.  0.
        -11    1    1    0    0    0  0.92817905894E+01  0.79003258689E+01 -0.19161097297E+02  0.22709346870E+02  0.51100000000E-03 0. -1.
         11    1    1    0    0    0  0.16266657769E+02  0.13841345998E+02 -0.33572445029E+02  0.39790653167E+02  0.51100000000E-03 0.  1.
         22    1    1    0    0    0 -0.25548448359E+02 -0.21741671867E+02  0.52733542326E+02  0.62499999963E+02  0.00000000000E+00 0.  1.
</event>
<event>
 4    1  0.1976955E-002  0.9118800E+02  0.7818608E-02  0.1130116E+00
         25   -1    0    0    0    0  0.00000000000E+00  0.00000000000E+00  0.99999998245E-14  0.12500000000E+03  0.12500000000E+03 0.  0.
        -11    1    1    0    0    0 -0.24047855223E+02  0.23928033522E+01  0.78460443381E+01  0.25408369895E+02  0.51100000000E-03 0. -1.
         11    1    1    0    0    0 -0.35014026349E+02 -0.16739908416E+01  0.12353230686E+02  0.37167009500E+02  0.51100000000E-03 0.  1.
         22    1    1    0    0    0  0.59061881572E+02 -0.71881251064E+00 -0.20199275024E+02  0.62424620605E+02  0.00000000000E+00 0. -1.
</event>
<event>
 4    1  0.1976955E-002  0.9118800E+02  0.7818608E-02  0.1130116E+00
         25   -1    0    0    0    0  0.00000000000E+00  0.00000000000E+00  0.99999998245E-14  0.12500000000E+03  0.12500000000E+03 0.  0.
        -11    1    1    0    0    0  0.63499854550E+01 -0.79295853214E+01  0.16474411068E+02  0.19354763211E+02  0.51100000000E-03 0.  1.
         11    1    1    0    0    0  0.12421099179E+02 -0.18174882374E+02  0.37113730782E+02  0.43151350697E+02  0.51100000000E-03 0. -1.
         22    1    1    0    0    0 -0.18771084634E+02  0.26104467695E+02 -0.53588141850E+02  0.62493886092E+02  0.00000000000E+00 0. -1.
</event>
<event>
 4    1  0.1976955E-002  0.9118800E+02  0.7818608E-02  0.1130116E+00
         25   -1    0    0    0    0  0.00000000000E+00  0.00000000000E+00  0.99999998245E-14  0.12500000000E+03  0.12500000000E+03 0.  0.
        -11    1    1    0    0    0  0.45942619724E+02  0.18331141285E+02 -0.60661475908E+01  0.49835260557E+02  0.51100000000E-03 0. -1.
         11    1    1    0    0    0  0.11751937649E+02  0.44808654589E+01 -0.14917561267E+01  0.12665367360E+02  0.51100000000E-03 0.  1.
         22    1    1    0    0    0 -0.57694557373E+02 -0.22812006744E+02  0.75579037175E+01  0.62499372083E+02  0.00000000000E+00 0. -1.
</event>
<event>
 4    1  0.1976955E-002  0.9118800E+02  0.7818608E-02  0.1130116E+00
         25   -1    0    0    0    0  0.00000000000E+00  0.00000000000E+00  0.99999998245E-14  0.12500000000E+03  0.12500000000E+03 0.  0.
        -11    1    1    0    0    0  0.29081968732E+02  0.21695691636E+02 -0.69022903223E+01  0.36933799599E+02  0.51100000000E-03 0. -1.
         11    1    1    0    0    0  0.20127616179E+02  0.15028521857E+02 -0.47595520054E+01  0.25566203039E+02  0.51100000000E-03 0.  1.
         22    1    1    0    0    0 -0.49209584911E+02 -0.36724213493E+02  0.11661842328E+02  0.62499997362E+02  0.00000000000E+00 0.  1.
</event>
<event>
 4    1  0.1976955E-002  0.9118800E+02  0.7818608E-02  0.1130116E+00
         25   -1    0    0    0    0  0.00000000000E+00  0.00000000000E+00  0.99999998245E-14  0.12500000000E+03  0.12500000000E+03 0.  0.
        -11    1    1    0    0    0  0.13552346475E+00  0.31518666741E+01 -0.86328501169E+00  0.32707631240E+01  0.51100000000E-03 0.  1.
         11    1    1    0    0    0  0.24127507002E+01  0.57070510622E+02 -0.15660077250E+02  0.59229237445E+02  0.51100000000E-03 0. -1.
         22    1    1    0    0    0 -0.25482741649E+01 -0.60222377296E+02  0.16523362262E+02  0.62499999431E+02  0.00000000000E+00 0. -1.
</event>
<event>
 4    1  0.1976955E-002  0.9118800E+02  0.7818608E-02  0.1130116E+00
         25   -1    0    0    0    0  0.00000000000E+00  0.00000000000E+00  0.99999998245E-14  0.12500000000E+03  0.12500000000E+03 0.  0.
        -11    1    1    0    0    0 -0.79170556114E+01  0.35088343428E+01 -0.16327847709E+02  0.18482161645E+02  0.51100000000E-03 0. -1.
         11    1    1    0    0    0 -0.18859513324E+02  0.83520524920E+01 -0.38886142464E+02  0.44017838425E+02  0.51100000000E-03 0.  1.
         22    1    1    0    0    0  0.26776568935E+02 -0.11860886835E+02  0.55213990173E+02  0.62499999930E+02  0.00000000000E+00 0.  1.
</event>
<event>
 4    1  0.1976955E-002  0.9118800E+02  0.7818608E-02  0.1130116E+00
         25   -1    0    0    0    0  0.00000000000E+00  0.00000000000E+00  0.99999998245E-14  0.12500000000E+03  0.12500000000E+03 0.  0.
        -11    1    1    0    0    0 -0.10073787690E+02  0.16476682283E+02 -0.27686348957E+01  0.19509679570E+02  0.51100000000E-03 0. -1.
         11    1    1    0    0    0 -0.13050281194E+02  0.37526066823E+02  0.19710035461E+02  0.44350885319E+02  0.51100000000E-03 0.  1.
         22    1    1    0    0    0  0.23124068884E+02 -0.54002749105E+02 -0.16941400565E+02  0.61139435112E+02  0.00000000000E+00 0.  1.
</event>
<event>
 4    1  0.1976955E-002  0.9118800E+02  0.7818608E-02  0.1130116E+00
         25   -1    0    0    0    0  0.00000000000E+00  0.00000000000E+00  0.99999998245E-14  0.12500000000E+03  0.12500000000E+03 0.  0.
        -11    1    1    0    0    0  0.45639344703E+01 -0.31688835684E+02 -0.23639839008E+01  0.32102962869E+02  0.51100000000E-03 0.  1.
         11    1    1    0    0    0  0.43233045161E+01 -0.30004878330E+02 -0.22352145834E+01  0.30397037192E+02  0.51100000000E-03 0. -1.
         22    1    1    0    0    0 -0.88872389864E+01  0.61693714014E+02  0.45991984842E+01  0.62499999939E+02  0.00000000000E+00 0.  1.
</event>
<event>
 4    1  0.1976955E-002  0.9118800E+02  0.7818608E-02  0.1130116E+00
         25   -1    0    0    0    0  0.00000000000E+00  0.00000000000E+00  0.99999998245E-14  0.12500000000E+03  0.12500000000E+03 0.  0.
        -11    1    1    0    0    0 -0.20838763274E+01  0.41573137701E+02 -0.72020500238E+01  0.42243790593E+02  0.51100000000E-03 0.  1.
         11    1    1    0    0    0 -0.10727128452E+01  0.19929827945E+02 -0.34593509440E+01  0.20256254934E+02  0.51100000000E-03 0. -1.
         22    1    1    0    0    0  0.31565891725E+01 -0.61502965646E+02  0.10661400968E+02  0.62499954472E+02  0.00000000000E+00 0.  1.
</event>
<event>
 4    1  0.1976955E-002  0.9118800E+02  0.7818608E-02  0.1130116E+00
         25   -1    0    0    0    0  0.00000000000E+00  0.00000000000E+00  0.99999998245E-14  0.12500000000E+03  0.12500000000E+03 0.  0.
        -11    1    1    0    0    0 -0.59416191476E+01  0.19424950899E+02 -0.56945916121E+02  0.60460474019E+02  0.51100000000E-03 0. -1.
         11    1    1    0    0    0  0.99571062454E+00  0.10100133081E+00 -0.20057957663E+01  0.22416194668E+01  0.51100000000E-03 0.  1.
         22    1    1    0    0    0  0.49459085230E+01 -0.19525952229E+02  0.58951711887E+02  0.62297906514E+02  0.00000000000E+00 0. -1.
</event>
<event>
 4    1  0.1976955E-002  0.9118800E+02  0.7818608E-02  0.1130116E+00
         25   -1    0    0    0    0  0.00000000000E+00  0.00000000000E+00  0.99999998245E-14  0.12500000000E+03  0.12500000000E+03 0.  0.
        -11    1    1    0    0    0 -0.80142942364E+01  0.12983559783E+01  0.11903339905E+02  0.14408474642E+02  0.51100000000E-03 0.  1.
         11    1    1    0    0    0 -0.26758272384E+02  0.43414847035E+01  0.39723308051E+02  0.48091525586E+02  0.51100000000E-03 0. -1.
         22    1    1    0    0    0  0.34772566620E+02 -0.56398406818E+01 -0.51626647956E+02  0.62499999772E+02  0.00000000000E+00 0. -1.
</event>
<event>
 4    1  0.1976955E-002  0.9118800E+02  0.7818608E-02  0.1130116E+00
         25   -1    0    0    0    0  0.00000000000E+00  0.00000000000E+00  0.99999998245E-14  0.12500000000E+03  0.12500000000E+03 0.  0.
        -11    1    1    0    0    0  0.10593249351E+02  0.97595678313E+00 -0.26456701340E+01  0.10962161929E+02  0.51100000000E-03 0. -1.
         11    1    1    0    0    0  0.49187267777E+02  0.16227816646E+02  0.17506225389E+01  0.51824646878E+02  0.51100000000E-03 0.  1.
         22    1    1    0    0    0 -0.59780517127E+02 -0.17203773429E+02  0.89504759510E+00  0.62213191193E+02  0.00000000000E+00 0.  1.
</event>
<event>
 4    1  0.1976955E-002  0.9118800E+02  0.7818608E-02  0.1130116E+00
         25   -1    0    0    0    0  0.00000000000E+00  0.00000000000E+00  0.99999998245E-14  0.12500000000E+03  0.12500000000E+03 0.  0.
        -11    1    1    0    0    0  0.33051563425E+01 -0.10426532081E+02 -0.10112011642E+02  0.14895952786E+02  0.51100000000E-03 0.  1.
         11    1    1    0    0    0 -0.36984290192E+02 -0.25075412918E+02  0.33519480182E+02  0.55858478371E+02  0.51100000000E-03 0. -1.
         22    1    1    0    0    0  0.33679133850E+02  0.35501944999E+02 -0.23407468540E+02  0.54245568842E+02  0.00000000000E+00 0. -1.
</event>
<event>
 4    1  0.1976955E-002  0.9118800E+02  0.7818608E-02  0.1130116E+00
         25   -1    0    0    0    0  0.00000000000E+00  0.00000000000E+00  0.99999998245E-14  0.12500000000E+03  0.12500000000E+03 0.  0.
        -11    1    1    0    0    0  0.18536391632E+02  0.10506515634E+02  0.11772652000E+02  0.24342966559E+02  0.51100000000E-03 0. -1.
         11    1    1    0    0    0  0.27975688110E+02  0.16200644238E+02  0.20291834669E+02  0.38168816506E+02  0.51100000000E-03 0.  1.
         22    1    1    0    0    0 -0.46512079743E+02 -0.26707159872E+02 -0.32064486669E+02  0.62488216935E+02  0.00000000000E+00 0.  1.
</event>
<event>
 4    1  0.1976955E-002  0.9118800E+02  0.7818608E-02  0.1130116E+00
         25   -1    0    0    0    0  0.00000000000E+00  0.00000000000E+00  0.99999998245E-14  0.12500000000E+03  0.12500000000E+03 0.  0.
        -11    1    1    0    0    0  0.80942833717E+01 -0.21609599612E+02  0.81273003101E+01  0.24465184023E+02  0.51100000000E-03 0. -1.
         11    1    1    0    0    0  0.19954389536E+02 -0.31348828067E+02 -0.15284327774E+02  0.40181306085E+02  0.51100000000E-03 0.  1.
         22    1    1    0    0    0 -0.28048672908E+02  0.52958427679E+02  0.71570274641E+01  0.60353509892E+02  0.00000000000E+00 0.  1.
</event>
<event>
 4    1  0.1976955E-002  0.9118800E+02  0.7818608E-02  0.1130116E+00
         25   -1    0    0    0    0  0.00000000000E+00  0.00000000000E+00  0.99999998245E-14  0.12500000000E+03  0.12500000000E+03 0.  0.
        -11    1    1    0    0    0 -0.11386611808E+01  0.55400670015E+00 -0.88976549986E+01  0.89873098001E+01  0.51100000000E-03 0. -1.
         11    1    1    0    0    0 -0.67813703848E+01  0.32978416590E+01 -0.52978724686E+02  0.53512690210E+02  0.51100000000E-03 0. -1.
         22    1    1    0    0    0  0.79200315656E+01 -0.38518483592E+01  0.61876379685E+02  0.62499999990E+02  0.00000000000E+00 0. -1.
</event>
<event>
 4    1  0.1976955E-002  0.9118800E+02  0.7818608E-02  0.1130116E+00
         25   -1    0    0    0    0  0.00000000000E+00  0.00000000000E+00  0.99999998245E-14  0.12500000000E+03  0.12500000000E+03 0.  0.
        -11    1    1    0    0    0  0.42257040343E+00 -0.30029946994E+02 -0.47304839686E+01  0.30403186692E+02  0.51100000000E-03 0. -1.
         11    1    1    0    0    0  0.42743756918E+00 -0.31692882130E+02 -0.50581670698E+01  0.32096830606E+02  0.51100000000E-03 0.  1.
         22    1    1    0    0    0 -0.85000797261E+00  0.61722829124E+02  0.97886510383E+01  0.62499982702E+02  0.00000000000E+00 0.  1.
</event>
<event>
 4    1  0.1976955E-002  0.9118800E+02  0.7818608E-02  0.1130116E+00
         25   -1    0    0    0    0  0.00000000000E+00  0.00000000000E+00  0.99999998245E-14  0.12500000000E+03  0.12500000000E+03 0.  0.
        -11    1    1    0    0    0 -0.45418685615E+01 -0.39229703717E+01  0.83380209122E+01  0.10273308112E+02  0.51100000000E-03 0.  1.
         11    1    1    0    0    0 -0.23055811096E+02 -0.19912871119E+02  0.42420923406E+02  0.52226694366E+02  0.51100000000E-03 0. -1.
         22    1    1    0    0    0  0.27597679658E+02  0.23835841490E+02 -0.50758944318E+02  0.62499997523E+02  0.00000000000E+00 0. -1.
</event>
<event>
 4    1  0.1976955E-002  0.9118800E+02  0.7818608E-02  0.1130116E+00
         25   -1    0    0    0    0  0.00000000000E+00  0.00000000000E+00  0.99999998245E-14  0.12500000000E+03  0.12500000000E+03 0.  0.
        -11    1    1    0    0    0 -0.16942777539E+02  0.12850179908E+02  0.83733804335E+01  0.22853847259E+02  0.51100000000E-03 0. -1.
         11    1    1    0    0    0 -0.29395319419E+02  0.22289820076E+02  0.14522277715E+02  0.39646152815E+02  0.51100000000E-03 0.  1.
         22    1    1    0    0    0  0.46338096958E+02 -0.35139999984E+02 -0.22895658148E+02  0.62499999925E+02  0.00000000000E+00 0.  1.
</event>
<event>
 4    1  0.1976955E-002  0.9118800E+02  0.7818608E-02  0.1130116E+00
         25   -1    0    0    0    0  0.00000000000E+00  0.00000000000E+00  0.99999998245E-14  0.12500000000E+03  0.12500000000E+03 0.  0.
        -11    1    1    0    0    0 -0.46110927775E+01 -0.57295614448E+01 -0.40951701008E+02  0.41606872829E+02  0.51100000000E-03 0.  1.
         11    1    1    0    0    0 -0.22476132729E+01 -0.29058103220E+01 -0.20567670631E+02  0.20893170523E+02  0.51100000000E-03 0. -1.
         22    1    1    0    0    0  0.68587060504E+01  0.86353717668E+01  0.61519371638E+02  0.62499956648E+02  0.00000000000E+00 0.  1.
</event>
<event>
 4    1  0.1976955E-002  0.9118800E+02  0.7818608E-02  0.1130116E+00
         25   -1    0    0    0    0  0.00000000000E+00  0.00000000000E+00  0.99999998245E-14  0.12500000000E+03  0.12500000000E+03 0.  0.
        -11    1    1    0    0    0 -0.14831291457E+02 -0.17090137971E+02 -0.71625063485E+01  0.23734816612E+02  0.51100000000E-03 0.  1.
         11    1    1    0    0    0 -0.24398729307E+02 -0.29394929061E+02 -0.69362417342E+01  0.38826167671E+02  0.51100000000E-03 0. -1.
         22    1    1    0    0    0  0.39230020765E+02  0.46485067032E+02  0.14098748083E+02  0.62439015717E+02  0.00000000000E+00 0. -1.
</event>
<event>
 4    1  0.1976955E-002  0.9118800E+02  0.7818608E-02  0.1130116E+00
         25   -1    0    0    0    0  0.00000000000E+00  0.00000000000E+00  0.99999998245E-14  0.12500000000E+03  0.12500000000E+03 0.  0.
        -11    1    1    0    0    0  0.27092878842E+02 -0.97890416892E+01  0.16121298908E+02  0.33011296550E+02  0.51100000000E-03 0. -1.
         11    1    1    0    0    0  0.24311996462E+02 -0.85396155184E+01  0.14338784328E+02  0.29488963044E+02  0.51100000000E-03 0.  1.
         22    1    1    0    0    0 -0.51404875304E+02  0.18328657208E+02 -0.30460083236E+02  0.62499740406E+02  0.00000000000E+00 0. -1.
</event>
<event>
 4    1  0.1976955E-002  0.9118800E+02  0.7818608E-02  0.1130116E+00
         25   -1    0    0    0    0  0.00000000000E+00  0.00000000000E+00  0.99999998245E-14  0.12500000000E+03  0.12500000000E+03 0.  0.
        -11    1    1    0    0    0  0.23271705445E+02 -0.11270296269E+02 -0.18181530757E+02  0.31609490872E+02  0.51100000000E-03 0. -1.
         11    1    1    0    0    0  0.22607494735E+02 -0.11014805346E+02 -0.17939085913E+02  0.30890703434E+02  0.51100000000E-03 0.  1.
         22    1    1    0    0    0 -0.45879200179E+02  0.22285101615E+02  0.36120616670E+02  0.62499805693E+02  0.00000000000E+00 0.  1.
</event>
<event>
 4    1  0.1976955E-002  0.9118800E+02  0.7818608E-02  0.1130116E+00
         25   -1    0    0    0    0  0.00000000000E+00  0.00000000000E+00  0.99999998245E-14  0.12500000000E+03  0.12500000000E+03 0.  0.
        -11    1    1    0    0    0 -0.16182940630E+01  0.30993057081E+02 -0.10695937615E+02  0.32826689517E+02  0.51100000000E-03 0.  1.
         11    1    1    0    0    0  0.93974774178E+00  0.28566826732E+02 -0.81112367651E+01  0.29710921855E+02  0.51100000000E-03 0. -1.
         22    1    1    0    0    0  0.67854632119E+00 -0.59559883813E+02  0.18807174381E+02  0.62462388628E+02  0.00000000000E+00 0.  1.
</event>
<event>
 4    1  0.1976955E-002  0.9118800E+02  0.7818608E-02  0.1130116E+00
         25   -1    0    0    0    0  0.00000000000E+00  0.00000000000E+00  0.99999998245E-14  0.12500000000E+03  0.12500000000E+03 0.  0.
        -11    1    1    0    0    0 -0.40396437461E+01  0.20771962180E+02  0.28698128611E+02  0.35656355961E+02  0.51100000000E-03 0. -1.
         11    1    1    0    0    0 -0.31859147352E+01  0.15587642116E+02  0.21620900832E+02  0.26843770087E+02  0.51100000000E-03 0.  1.
         22    1    1    0    0    0  0.72255584813E+01 -0.36359604296E+02 -0.50319029443E+02  0.62499873952E+02  0.00000000000E+00 0.  1.
</event>
<event>
 4    1  0.1976955E-002  0.9118800E+02  0.7818608E-02  0.1130116E+00
         25   -1    0    0    0    0  0.00000000000E+00  0.00000000000E+00  0.99999998245E-14  0.12500000000E+03  0.12500000000E+03 0.  0.
        -11    1    1    0    0    0 -0.40018868674E+02  0.10307986689E+02  0.63349029770E+01  0.41807839402E+02  0.51100000000E-03 0. -1.
         11    1    1    0    0    0 -0.19805854375E+02  0.51028061942E+01  0.31392701825E+01  0.20692160741E+02  0.51100000000E-03 0.  1.
         22    1    1    0    0    0  0.59824723048E+02 -0.15410792883E+02 -0.94741731595E+01  0.62499999857E+02  0.00000000000E+00 0. -1.
</event>
<event>
 4    1  0.1976955E-002  0.9118800E+02  0.7818608E-02  0.1130116E+00
         25   -1    0    0    0    0  0.00000000000E+00  0.00000000000E+00  0.99999998245E-14  0.12500000000E+03  0.12500000000E+03 0.  0.
        -11    1    1    0    0    0 -0.33343875058E+02 -0.98501031581E+01  0.26868432038E+02  0.43940313797E+02  0.51100000000E-03 0.  1.
         11    1    1    0    0    0 -0.14081349255E+02 -0.42034589861E+01  0.11336189559E+02  0.18559705231E+02  0.51100000000E-03 0. -1.
         22    1    1    0    0    0  0.47425224313E+02  0.14053562144E+02 -0.38204621597E+02  0.62499980972E+02  0.00000000000E+00 0.  1.
</event>
<event>
 4    1  0.1976955E-002  0.9118800E+02  0.7818608E-02  0.1130116E+00
         25   -1    0    0    0    0  0.00000000000E+00  0.00000000000E+00  0.99999998245E-14  0.12500000000E+03  0.12500000000E+03 0.  0.
        -11    1    1    0    0    0  0.34129259923E-01  0.26337776251E+01 -0.19640886609E+01  0.32856649120E+01  0.51100000000E-03 0. -1.
         11    1    1    0    0    0 -0.71491754127E+01  0.46167847400E+02 -0.36406214862E+02  0.59228315217E+02  0.51100000000E-03 0.  1.
         22    1    1    0    0    0  0.71150461528E+01 -0.48801625025E+02  0.38370303523E+02  0.62486019871E+02  0.00000000000E+00 0.  1.
</event>
<event>
 4    1  0.1976955E-002  0.9118800E+02  0.7818608E-02  0.1130116E+00
         25   -1    0    0    0    0  0.00000000000E+00  0.00000000000E+00  0.99999998245E-14  0.12500000000E+03  0.12500000000E+03 0.  0.
        -11    1    1    0    0    0  0.28357879834E+01 -0.18890928089E+01  0.38156633334E+01  0.51156282178E+01  0.51100000000E-03 0.  1.
         11    1    1    0    0    0  0.31799758335E+02 -0.21170282954E+02  0.42820096343E+02  0.57384372103E+02  0.51100000000E-03 0. -1.
         22    1    1    0    0    0 -0.34635546319E+02  0.23059375763E+02 -0.46635759677E+02  0.62499999680E+02  0.00000000000E+00 0. -1.
</event>
<event>
 4    1  0.1976955E-002  0.9118800E+02  0.7818608E-02  0.1130116E+00
         25   -1    0    0    0    0  0.00000000000E+00  0.00000000000E+00  0.99999998245E-14  0.12500000000E+03  0.12500000000E+03 0.  0.
        -11    1    1    0    0    0  0.26517492736E+02 -0.44474499020E+02 -0.53117939533E+01  0.52051643963E+02  0.51100000000E-03 0.  1.
         11    1    1    0    0    0  0.53198162050E+01 -0.89294329140E+01 -0.10643938107E+01  0.10448356381E+02  0.51100000000E-03 0. -1.
         22    1    1    0    0    0 -0.31837308941E+02  0.53403931933E+02  0.63761877640E+01  0.62499999656E+02  0.00000000000E+00 0.  1.
</event>
<event>
 4    1  0.1976955E-002  0.9118800E+02  0.7818608E-02  0.1130116E+00
         25   -1    0    0    0    0  0.00000000000E+00  0.00000000000E+00  0.99999998245E-14  0.12500000000E+03  0.12500000000E+03 0.  0.
        -11    1    1    0    0    0  0.64472787213E+01  0.13015584183E+02  0.46001964676E+02  0.48240580312E+02  0.51100000000E-03 0.  1.
         11    1    1    0    0    0  0.19246615495E+01  0.38524719495E+01  0.13593577256E+02  0.14259425131E+02  0.51100000000E-03 0. -1.
         22    1    1    0    0    0 -0.83719402707E+01 -0.16868056133E+02 -0.59595541931E+02  0.62499994557E+02  0.00000000000E+00 0.  1.
</event>
<event>
 4    1  0.1976955E-002  0.9118800E+02  0.7818608E-02  0.1130116E+00
         25   -1    0    0    0    0  0.00000000000E+00  0.00000000000E+00  0.99999998245E-14  0.12500000000E+03  0.12500000000E+03 0.  0.
        -11    1    1    0    0    0 -0.17220397529E+01 -0.13131792293E+02 -0.90340965176E+01  0.16031977104E+02  0.51100000000E-03 0. -1.
         11    1    1    0    0    0 -0.58315671048E+01 -0.37543871017E+02 -0.26756206220E+02  0.46469818134E+02  0.51100000000E-03 0.  1.
         22    1    1    0    0    0  0.75536068576E+01  0.50675663309E+02  0.35790302738E+02  0.62498204762E+02  0.00000000000E+00 0. -1.
</event>
<event>
 4    1  0.1976955E-002  0.9118800E+02  0.7818608E-02  0.1130116E+00
         25   -1    0    0    0    0  0.00000000000E+00  0.00000000000E+00  0.99999998245E-14  0.12500000000E+03  0.12500000000E+03 0.  0.
        -11    1    1    0    0    0  0.12303007250E+02  0.12654350411E+01 -0.29372421752E+02  0.31870118812E+02  0.51100000000E-03 0.  1.
         11    1    1    0    0    0  0.87712754807E+01  0.40716605619E+01 -0.29143585766E+02  0.30706062673E+02  0.51100000000E-03 0. -1.
         22    1    1    0    0    0 -0.21074282731E+02 -0.53370956030E+01  0.58516007518E+02  0.62423818515E+02  0.00000000000E+00 0.  1.
</event>
<event>
 4    1  0.1976955E-002  0.9118800E+02  0.7818608E-02  0.1130116E+00
         25   -1    0    0    0    0  0.00000000000E+00  0.00000000000E+00  0.99999998245E-14  0.12500000000E+03  0.12500000000E+03 0.  0.
        -11    1    1    0    0    0 -0.24374204280E+00 -0.13858875147E+01  0.51465349477E+01  0.53354396834E+01  0.51100000000E-03 0.  1.
         11    1    1    0    0    0  0.83820740776E+01 -0.49654786614E+01  0.56411656844E+02  0.57246748137E+02  0.51100000000E-03 0. -1.
         22    1    1    0    0    0 -0.81383320348E+01  0.63513661761E+01 -0.61558191791E+02  0.62417812179E+02  0.00000000000E+00 0. -1.
</event>
<event>
 4    1  0.1976955E-002  0.9118800E+02  0.7818608E-02  0.1130116E+00
         25   -1    0    0    0    0  0.00000000000E+00  0.00000000000E+00  0.99999998245E-14  0.12500000000E+03  0.12500000000E+03 0.  0.
        -11    1    1    0    0    0  0.53232283378E+01  0.28450229054E+02  0.15743141370E+02  0.32948426270E+02  0.51100000000E-03 0. -1.
         11    1    1    0    0    0  0.48108860193E+01  0.25498875029E+02  0.14140679187E+02  0.29551583040E+02  0.51100000000E-03 0.  1.
         22    1    1    0    0    0 -0.10134114357E+02 -0.53949104084E+02 -0.29883820557E+02  0.62499990690E+02  0.00000000000E+00 0.  1.
</event>
<event>
 4    1  0.1976955E-002  0.9118800E+02  0.7818608E-02  0.1130116E+00
         25   -1    0    0    0    0  0.00000000000E+00  0.00000000000E+00  0.99999998245E-14  0.12500000000E+03  0.12500000000E+03 0.  0.
        -11    1    1    0    0    0  0.24061558033E+02 -0.23733435964E+02  0.11682540145E+01  0.33817146174E+02  0.51100000000E-03 0. -1.
         11    1    1    0    0    0  0.20407980427E+02 -0.20130497640E+02  0.99171746263E+00  0.28682853835E+02  0.51100000000E-03 0. -1.
         22    1    1    0    0    0 -0.44469538460E+02  0.43863933604E+02 -0.21599714771E+01  0.62499999991E+02  0.00000000000E+00 0. -1.
</event>
<event>
 4    1  0.1976955E-002  0.9118800E+02  0.7818608E-02  0.1130116E+00
         25   -1    0    0    0    0  0.00000000000E+00  0.00000000000E+00  0.99999998245E-14  0.12500000000E+03  0.12500000000E+03 0.  0.
        -11    1    1    0    0    0 -0.63653110988E+01  0.29880069370E+02 -0.17944917182E+02  0.35431000323E+02  0.51100000000E-03 0. -1.
         11    1    1    0    0    0 -0.85044634853E+01  0.20565812699E+02 -0.15610739240E+02  0.27184071274E+02  0.51100000000E-03 0.  1.
         22    1    1    0    0    0  0.14869774584E+02 -0.50445882069E+02  0.33555656423E+02  0.62384928403E+02  0.00000000000E+00 0. -1.
</event>
<event>
 4    1  0.1976955E-002  0.9118800E+02  0.7818608E-02  0.1130116E+00
         25   -1    0    0    0    0  0.00000000000E+00  0.00000000000E+00  0.99999998245E-14  0.12500000000E+03  0.12500000000E+03 0.  0.
        -11    1    1    0    0    0  0.42981392550E+00  0.72288526099E+00 -0.12662114622E+01  0.15200640905E+01  0.51100000000E-03 0. -1.
         11    1    1    0    0    0  0.17247849948E+02  0.29021879534E+02 -0.50781835117E+02  0.60979936026E+02  0.51100000000E-03 0.  1.
         22    1    1    0    0    0 -0.17677663874E+02 -0.29744764795E+02  0.52048046580E+02  0.62499999884E+02  0.00000000000E+00 0.  1.
</event>
<event>
 4    1  0.1976955E-002  0.9118800E+02  0.7818608E-02  0.1130116E+00
         25   -1    0    0    0    0  0.00000000000E+00  0.00000000000E+00  0.99999998245E-14  0.12500000000E+03  0.12500000000E+03 0.  0.
        -11    1    1    0    0    0  0.15354190936E+02 -0.58377873282E+02 -0.15379845802E+02  0.62291788587E+02  0.51100000000E-03 0. -1.
         11    1    1    0    0    0  0.52311989560E-01 -0.19493625270E+00 -0.51144085175E-01  0.20821302899E+00  0.51100000000E-03 0. -1.
         22    1    1    0    0    0 -0.15406502925E+02  0.58572809534E+02  0.15430989888E+02  0.62499998384E+02  0.00000000000E+00 0. -1.
</event>
<event>
 4    1  0.1976955E-002  0.9118800E+02  0.7818608E-02  0.1130116E+00
         25   -1    0    0    0    0  0.00000000000E+00  0.00000000000E+00  0.99999998245E-14  0.12500000000E+03  0.12500000000E+03 0.  0.
        -11    1    1    0    0    0 -0.46779049831E+00 -0.19327426290E+02  0.25662708552E+02  0.32130092522E+02  0.51100000000E-03 0.  1.
         11    1    1    0    0    0 -0.20010214114E+01 -0.17365090149E+02  0.24853712817E+02  0.30385152355E+02  0.51100000000E-03 0. -1.
         22    1    1    0    0    0  0.24688119097E+01  0.36692516439E+02 -0.50516421369E+02  0.62484755124E+02  0.00000000000E+00 0.  1.
</event>
<event>
 4    1  0.1976955E-002  0.9118800E+02  0.7818608E-02  0.1130116E+00
         25   -1    0    0    0    0  0.00000000000E+00  0.00000000000E+00  0.99999998245E-14  0.12500000000E+03  0.12500000000E+03 0.  0.
        -11    1    1    0    0    0  0.52852128310E+01 -0.53818795055E+02 -0.91961168467E+01  0.54854031221E+02  0.51100000000E-03 0.  1.
         11    1    1    0    0    0  0.99214275467E+00 -0.76109498929E+01 -0.24224649476E+00  0.76791659146E+01  0.51100000000E-03 0. -1.
         22    1    1    0    0    0 -0.62773555857E+01  0.61429744948E+02  0.94383633415E+01  0.62466802864E+02  0.00000000000E+00 0.  1.
</event>
<event>
 4    1  0.1976955E-002  0.9118800E+02  0.7818608E-02  0.1130116E+00
         25   -1    0    0    0    0  0.00000000000E+00  0.00000000000E+00  0.99999998245E-14  0.12500000000E+03  0.12500000000E+03 0.  0.
        -11    1    1    0    0    0 -0.43855848417E+01  0.36558360773E+01 -0.21942643563E+01  0.61166402668E+01  0.51100000000E-03 0.  1.
         11    1    1    0    0    0 -0.40466034121E+02  0.33796095058E+02 -0.19985261673E+02  0.56383389780E+02  0.51100000000E-03 0. -1.
         22    1    1    0    0    0  0.44851618962E+02 -0.37451931136E+02  0.22179526029E+02  0.62499969954E+02  0.00000000000E+00 0. -1.
</event>
<event>
 4    1  0.1976955E-002  0.9118800E+02  0.7818608E-02  0.1130116E+00
         25   -1    0    0    0    0  0.00000000000E+00  0.00000000000E+00  0.99999998245E-14  0.12500000000E+03  0.12500000000E+03 0.  0.
        -11    1    1    0    0    0 -0.48894588220E+01  0.15775636478E+02  0.62664667510E+01  0.17664827191E+02  0.51100000000E-03 0.  1.
         11    1    1    0    0    0 -0.12419358028E+02  0.40038662032E+02  0.15901503841E+02  0.44835172976E+02  0.51100000000E-03 0. -1.
         22    1    1    0    0    0  0.17308816850E+02 -0.55814298510E+02 -0.22167970592E+02  0.62499999833E+02  0.00000000000E+00 0. -1.
</event>
<event>
 4    1  0.1976955E-002  0.9118800E+02  0.7818608E-02  0.1130116E+00
         25   -1    0    0    0    0  0.00000000000E+00  0.00000000000E+00  0.99999998245E-14  0.12500000000E+03  0.12500000000E+03 0.  0.
        -11    1    1    0    0    0  0.26309763622E+01  0.74356421202E+01 -0.74474807436E+01  0.10847846793E+02  0.51100000000E-03 0.  1.
         11    1    1    0    0    0  0.13079885209E+02  0.34640284933E+02 -0.36014107539E+02  0.51653157497E+02  0.51100000000E-03 0. -1.
         22    1    1    0    0    0 -0.15710861571E+02 -0.42075927053E+02  0.43461588282E+02  0.62498995710E+02  0.00000000000E+00 0. -1.
</event>
<event>
 4    1  0.1976955E-002  0.9118800E+02  0.7818608E-02  0.1130116E+00
         25   -1    0    0    0    0  0.00000000000E+00  0.00000000000E+00  0.99999998245E-14  0.12500000000E+03  0.12500000000E+03 0.  0.
        -11    1    1    0    0    0 -0.21470391044E+02  0.33225841033E+02  0.22450022846E+02  0.45485577164E+02  0.51100000000E-03 0. -1.
         11    1    1    0    0    0 -0.80280923491E+01  0.12425915990E+02  0.84045792719E+01  0.17014423527E+02  0.51100000000E-03 0.  1.
         22    1    1    0    0    0  0.29498483393E+02 -0.45651757023E+02 -0.30854602117E+02  0.62499999309E+02  0.00000000000E+00 0. -1.
</event>
<event>
 4    1  0.1976955E-002  0.9118800E+02  0.7818608E-02  0.1130116E+00
         25   -1    0    0    0    0  0.00000000000E+00  0.00000000000E+00  0.99999998245E-14  0.12500000000E+03  0.12500000000E+03 0.  0.
        -11    1    1    0    0    0  0.29369623850E+01  0.62254878466E+01 -0.59099663668E+01  0.90724941277E+01  0.51100000000E-03 0.  1.
         11    1    1    0    0    0  0.17480485179E+02  0.36553788709E+02 -0.34824630786E+02  0.53427537289E+02  0.51100000000E-03 0. -1.
         22    1    1    0    0    0 -0.20417447564E+02 -0.42779276556E+02  0.40734597153E+02  0.62499968583E+02  0.00000000000E+00 0. -1.
</event>
<event>
 4    1  0.1976955E-002  0.9118800E+02  0.7818608E-02  0.1130116E+00
         25   -1    0    0    0    0  0.00000000000E+00  0.00000000000E+00  0.99999998245E-14  0.12500000000E+03  0.12500000000E+03 0.  0.
        -11    1    1    0    0    0  0.18564153982E+02 -0.21100068323E+02  0.11680809040E+02  0.30434881245E+02  0.51100000000E-03 0.  1.
         11    1    1    0    0    0  0.19558746330E+02 -0.22230439684E+02  0.12305886167E+02  0.32065118761E+02  0.51100000000E-03 0.  1.
         22    1    1    0    0    0 -0.38122900312E+02  0.43330508007E+02 -0.23986695207E+02  0.62499999994E+02  0.00000000000E+00 0.  1.
</event>
<event>
 4    1  0.1976955E-002  0.9118800E+02  0.7818608E-02  0.1130116E+00
         25   -1    0    0    0    0  0.00000000000E+00  0.00000000000E+00  0.99999998245E-14  0.12500000000E+03  0.12500000000E+03 0.  0.
        -11    1    1    0    0    0 -0.40936921778E+01 -0.77503130983E+01  0.28774433160E+01  0.92252560434E+01  0.51100000000E-03 0.  1.
         11    1    1    0    0    0 -0.41430224750E+02  0.24545704768E+02  0.30389513304E+02  0.56942757788E+02  0.51100000000E-03 0. -1.
         22    1    1    0    0    0  0.45523916928E+02 -0.16795391670E+02 -0.33266956620E+02  0.58831986169E+02  0.00000000000E+00 0. -1.
</event>
<event>
 4    1  0.1976955E-002  0.9118800E+02  0.7818608E-02  0.1130116E+00
         25   -1    0    0    0    0  0.00000000000E+00  0.00000000000E+00  0.99999998245E-14  0.12500000000E+03  0.12500000000E+03 0.  0.
        -11    1    1    0    0    0 -0.13329956103E+01 -0.22925863581E+01 -0.19680326580E+01  0.33024206744E+01  0.51100000000E-03 0.  1.
         11    1    1    0    0    0 -0.51993684280E+02 -0.16293102463E+02 -0.24002699332E+02  0.59539381659E+02  0.51100000000E-03 0. -1.
         22    1    1    0    0    0  0.53326679890E+02  0.18585688822E+02  0.25970731990E+02  0.62158197667E+02  0.00000000000E+00 0. -1.
</event>
<event>
 4    1  0.1976955E-002  0.9118800E+02  0.7818608E-02  0.1130116E+00
         25   -1    0    0    0    0  0.00000000000E+00  0.00000000000E+00  0.99999998245E-14  0.12500000000E+03  0.12500000000E+03 0.  0.
        -11    1    1    0    0    0  0.19981120208E+02 -0.19686512006E+02 -0.13640217847E+02  0.31190695134E+02  0.51100000000E-03 0. -1.
         11    1    1    0    0    0  0.22617558803E+02 -0.19607496871E+02 -0.95022969383E+01  0.31405438177E+02  0.51100000000E-03 0.  1.
         22    1    1    0    0    0 -0.42598679011E+02  0.39294008877E+02  0.23142514785E+02  0.62403866689E+02  0.00000000000E+00 0.  1.
</event>
<event>
 4    1  0.1976955E-002  0.9118800E+02  0.7818608E-02  0.1130116E+00
         25   -1    0    0    0    0  0.00000000000E+00  0.00000000000E+00  0.99999998245E-14  0.12500000000E+03  0.12500000000E+03 0.  0.
        -11    1    1    0    0    0  0.22480024623E+01 -0.32762679974E+01  0.69218741203E+01  0.79812147359E+01  0.51100000000E-03 0.  1.
         11    1    1    0    0    0 -0.28373059949E+02 -0.27735975639E+02  0.39083176594E+02  0.55693891662E+02  0.51100000000E-03 0. -1.
         22    1    1    0    0    0  0.26125057487E+02  0.31012243637E+02 -0.46005050714E+02  0.61324893602E+02  0.00000000000E+00 0. -1.
</event>
<event>
 4    1  0.1976955E-002  0.9118800E+02  0.7818608E-02  0.1130116E+00
         25   -1    0    0    0    0  0.00000000000E+00  0.00000000000E+00  0.99999998245E-14  0.12500000000E+03  0.12500000000E+03 0.  0.
        -11    1    1    0    0    0 -0.65045232757E+01 -0.25614580468E+01  0.92461662122E+01  0.11591439956E+02  0.51100000000E-03 0. -1.
         11    1    1    0    0    0 -0.42377655114E+02 -0.19772408349E+02  0.21525655297E+02  0.51479778760E+02  0.51100000000E-03 0.  1.
         22    1    1    0    0    0  0.48882178390E+02  0.22333866396E+02 -0.30771821509E+02  0.61928781284E+02  0.00000000000E+00 0.  1.
</event>
<event>
 4    1  0.1976955E-002  0.9118800E+02  0.7818608E-02  0.1130116E+00
         25   -1    0    0    0    0  0.00000000000E+00  0.00000000000E+00  0.99999998245E-14  0.12500000000E+03  0.12500000000E+03 0.  0.
        -11    1    1    0    0    0  0.33901560851E+01  0.22183122470E+02 -0.45944049864E+01  0.22906170309E+02  0.51100000000E-03 0.  1.
         11    1    1    0    0    0  0.14687115096E+02  0.36549032254E+02 -0.56557286835E+01  0.39793597171E+02  0.51100000000E-03 0. -1.
         22    1    1    0    0    0 -0.18077271181E+02 -0.58732154724E+02  0.10250133670E+02  0.62300232521E+02  0.00000000000E+00 0. -1.
</event>
<event>
 4    1  0.1976955E-002  0.9118800E+02  0.7818608E-02  0.1130116E+00
         25   -1    0    0    0    0  0.00000000000E+00  0.00000000000E+00  0.99999998245E-14  0.12500000000E+03  0.12500000000E+03 0.  0.
        -11    1    1    0    0    0  0.52663117063E+02 -0.17263083483E+02  0.10662288228E+02  0.56436710931E+02  0.51100000000E-03 0. -1.
         11    1    1    0    0    0  0.56414246212E+01 -0.19783190399E+01  0.10189755425E+01  0.60644644774E+01  0.51100000000E-03 0.  1.
         22    1    1    0    0    0 -0.58304541685E+02  0.19241402523E+02 -0.11681263770E+02  0.62498824592E+02  0.00000000000E+00 0. -1.
</event>
<event>
 4    1  0.1976955E-002  0.9118800E+02  0.7818608E-02  0.1130116E+00
         25   -1    0    0    0    0  0.00000000000E+00  0.00000000000E+00  0.99999998245E-14  0.12500000000E+03  0.12500000000E+03 0.  0.
        -11    1    1    0    0    0 -0.83689434659E-01  0.41529369286E+00 -0.73746447988E+00  0.85048626856E+00  0.51100000000E-03 0. -1.
         11    1    1    0    0    0 -0.55848926863E+01  0.30287097479E+02 -0.53405665218E+02  0.61649528608E+02  0.51100000000E-03 0.  1.
         22    1    1    0    0    0  0.56685821209E+01 -0.30702391172E+02  0.54143129698E+02  0.62499985123E+02  0.00000000000E+00 0.  1.
</event>
<event>
 4    1  0.1976955E-002  0.9118800E+02  0.7818608E-02  0.1130116E+00
         25   -1    0    0    0    0  0.00000000000E+00  0.00000000000E+00  0.99999998245E-14  0.12500000000E+03  0.12500000000E+03 0.  0.
        -11    1    1    0    0    0  0.10746052232E+02 -0.70116703541E+01  0.16297211656E+02  0.20742233914E+02  0.51100000000E-03 0. -1.
         11    1    1    0    0    0  0.21712139855E+02 -0.13921986269E+02  0.32840214975E+02  0.41757854813E+02  0.51100000000E-03 0.  1.
         22    1    1    0    0    0 -0.32458192087E+02  0.20933656623E+02 -0.49137426631E+02  0.62499911273E+02  0.00000000000E+00 0.  1.
</event>
<event>
 4    1  0.1976955E-002  0.9118800E+02  0.7818608E-02  0.1130116E+00
         25   -1    0    0    0    0  0.00000000000E+00  0.00000000000E+00  0.99999998245E-14  0.12500000000E+03  0.12500000000E+03 0.  0.
        -11    1    1    0    0    0  0.51388728017E+00  0.17541919815E+01 -0.12223436003E+01  0.21989528833E+01  0.51100000000E-03 0.  1.
         11    1    1    0    0    0  0.12570224960E+02  0.43370736430E+02 -0.39979420025E+02  0.60310740004E+02  0.51100000000E-03 0. -1.
         22    1    1    0    0    0 -0.13084112240E+02 -0.45124928411E+02  0.41201763626E+02  0.62490307113E+02  0.00000000000E+00 0. -1.
</event>
<event>
 4    1  0.1976955E-002  0.9118800E+02  0.7818608E-02  0.1130116E+00
         25   -1    0    0    0    0  0.00000000000E+00  0.00000000000E+00  0.99999998245E-14  0.12500000000E+03  0.12500000000E+03 0.  0.
        -11    1    1    0    0    0  0.97226046646E+00 -0.20414902420E+02  0.23353093418E+02  0.31033538369E+02  0.51100000000E-03 0.  1.
         11    1    1    0    0    0  0.94907416704E+00 -0.20709857739E+02  0.23671494095E+02  0.31466467585E+02  0.51100000000E-03 0. -1.
         22    1    1    0    0    0 -0.19213346335E+01  0.41124760159E+02 -0.47024587513E+02  0.62499994046E+02  0.00000000000E+00 0.  1.
</event>
<event>
 4    1  0.1976955E-002  0.9118800E+02  0.7818608E-02  0.1130116E+00
         25   -1    0    0    0    0  0.00000000000E+00  0.00000000000E+00  0.99999998245E-14  0.12500000000E+03  0.12500000000E+03 0.  0.
        -11    1    1    0    0    0 -0.48781060571E+00  0.17536824111E+02  0.57358355963E+01  0.18457463784E+02  0.51100000000E-03 0.  1.
         11    1    1    0    0    0 -0.11678758436E+01  0.41847219726E+02  0.13681786062E+02  0.44042536290E+02  0.51100000000E-03 0. -1.
         22    1    1    0    0    0  0.16556864493E+01 -0.59384043836E+02 -0.19417621658E+02  0.62499999927E+02  0.00000000000E+00 0.  1.
</event>
<event>
 4    1  0.1976955E-002  0.9118800E+02  0.7818608E-02  0.1130116E+00
         25   -1    0    0    0    0  0.00000000000E+00  0.00000000000E+00  0.99999998245E-14  0.12500000000E+03  0.12500000000E+03 0.  0.
        -11    1    1    0    0    0 -0.22255234552E+02 -0.38992922239E+02 -0.21954848141E+02  0.49977583044E+02  0.51100000000E-03 0.  1.
         11    1    1    0    0    0 -0.55742058936E+01 -0.97620181077E+01 -0.55174535070E+01  0.12522422383E+02  0.51100000000E-03 0. -1.
         22    1    1    0    0    0  0.27829440446E+02  0.48754940347E+02  0.27472301648E+02  0.62499994573E+02  0.00000000000E+00 0.  1.
</event>
<event>
 4    1  0.1976955E-002  0.9118800E+02  0.7818608E-02  0.1130116E+00
         25   -1    0    0    0    0  0.00000000000E+00  0.00000000000E+00  0.99999998245E-14  0.12500000000E+03  0.12500000000E+03 0.  0.
        -11    1    1    0    0    0  0.50562747360E+02  0.18707098241E+02 -0.48294287635E+01  0.54128276599E+02  0.51100000000E-03 0. -1.
         11    1    1    0    0    0  0.78350740855E+01  0.28604002123E+01 -0.71860241959E+00  0.83717778876E+01  0.51100000000E-03 0.  1.
         22    1    1    0    0    0 -0.58397821446E+02 -0.21567498453E+02  0.55480311831E+01  0.62499945513E+02  0.00000000000E+00 0. -1.
</event>
<event>
 4    1  0.1976955E-002  0.9118800E+02  0.7818608E-02  0.1130116E+00
         25   -1    0    0    0    0  0.00000000000E+00  0.00000000000E+00  0.99999998245E-14  0.12500000000E+03  0.12500000000E+03 0.  0.
        -11    1    1    0    0    0 -0.93578800483E+01  0.50533829536E+01  0.78541088499E+01  0.13220953988E+02  0.51100000000E-03 0.  1.
         11    1    1    0    0    0 -0.34888230155E+02  0.18825683952E+02  0.29271648663E+02  0.49279046209E+02  0.51100000000E-03 0. -1.
         22    1    1    0    0    0  0.44246110203E+02 -0.23879066905E+02 -0.37125757513E+02  0.62499999802E+02  0.00000000000E+00 0. -1.
</event>
<event>
 4    1  0.1976955E-002  0.9118800E+02  0.7818608E-02  0.1130116E+00
         25   -1    0    0    0    0  0.00000000000E+00  0.00000000000E+00  0.99999998245E-14  0.12500000000E+03  0.12500000000E+03 0.  0.
        -11    1    1    0    0    0  0.77883426146E+01  0.65812008568E+01  0.45539797506E+01  0.11167328115E+02  0.51100000000E-03 0.  1.
         11    1    1    0    0    0  0.35807513697E+02  0.30246774773E+02  0.20928396751E+02  0.51332671975E+02  0.51100000000E-03 0.  1.
         22    1    1    0    0    0 -0.43595856312E+02 -0.36827975630E+02 -0.25482376501E+02  0.62499999909E+02  0.00000000000E+00 0.  1.
</event>
<event>
 4    1  0.1976955E-002  0.9118800E+02  0.7818608E-02  0.1130116E+00
         25   -1    0    0    0    0  0.00000000000E+00  0.00000000000E+00  0.99999998245E-14  0.12500000000E+03  0.12500000000E+03 0.  0.
        -11    1    1    0    0    0  0.11155789232E+00  0.58279569440E+01  0.35578263088E+01  0.68290303564E+01  0.51100000000E-03 0.  1.
         11    1    1    0    0    0  0.91313972832E+00  0.47519511426E+02  0.28988257801E+02  0.55670969822E+02  0.51100000000E-03 0. -1.
         22    1    1    0    0    0 -0.10246976206E+01 -0.53347468370E+02 -0.32546084110E+02  0.62499999821E+02  0.00000000000E+00 0. -1.
</event>
<event>
 4    1  0.1976955E-002  0.9118800E+02  0.7818608E-02  0.1130116E+00
         25   -1    0    0    0    0  0.00000000000E+00  0.00000000000E+00  0.99999998245E-14  0.12500000000E+03  0.12500000000E+03 0.  0.
        -11    1    1    0    0    0  0.11921183929E+01  0.19054674472E+01  0.16311205432E+00  0.22535656766E+01  0.51100000000E-03 0.  1.
         11    1    1    0    0    0  0.32506458919E+02  0.50468394239E+02  0.50916718012E+01  0.60246608291E+02  0.51100000000E-03 0. -1.
         22    1    1    0    0    0 -0.33698577312E+02 -0.52373861686E+02 -0.52547838555E+01  0.62499826033E+02  0.00000000000E+00 0. -1.
</event>
<event>
 4    1  0.1976955E-002  0.9118800E+02  0.7818608E-02  0.1130116E+00
         25   -1    0    0    0    0  0.00000000000E+00  0.00000000000E+00  0.99999998245E-14  0.12500000000E+03  0.12500000000E+03 0.  0.
        -11    1    1    0    0    0 -0.16035484754E+02  0.28861202461E+01  0.29627248500E+02  0.33811836912E+02  0.51100000000E-03 0.  1.
         11    1    1    0    0    0 -0.13687001956E+02  0.25151919270E+01  0.25086932317E+02  0.28688227312E+02  0.51100000000E-03 0. -1.
         22    1    1    0    0    0  0.29722486710E+02 -0.54013121731E+01 -0.54714180818E+02  0.62499935776E+02  0.00000000000E+00 0. -1.
</event>
<event>
 4    1  0.1976955E-002  0.9118800E+02  0.7818608E-02  0.1130116E+00
         25   -1    0    0    0    0  0.00000000000E+00  0.00000000000E+00  0.99999998245E-14  0.12500000000E+03  0.12500000000E+03 0.  0.
        -11    1    1    0    0    0  0.99960882972E+01 -0.21492882126E+02  0.72046223603E+01  0.24774429296E+02  0.51100000000E-03 0.  1.
         11    1    1    0    0    0  0.15229088529E+02 -0.32724756058E+02  0.10971959829E+02  0.37725570893E+02  0.51100000000E-03 0. -1.
         22    1    1    0    0    0 -0.25225176826E+02  0.54217638184E+02 -0.18176582189E+02  0.62499999810E+02  0.00000000000E+00 0. -1.
</event>
<event>
 4    1  0.1976955E-002  0.9118800E+02  0.7818608E-02  0.1130116E+00
         25   -1    0    0    0    0  0.00000000000E+00  0.00000000000E+00  0.99999998245E-14  0.12500000000E+03  0.12500000000E+03 0.  0.
        -11    1    1    0    0    0  0.86589541276E+01 -0.31309858812E+02 -0.11241587368E+02  0.34375253195E+02  0.51100000000E-03 0.  1.
         11    1    1    0    0    0  0.22973300447E+01 -0.27017129592E+02 -0.79426082653E+01  0.28253991630E+02  0.51100000000E-03 0. -1.
         22    1    1    0    0    0 -0.10956284172E+02  0.58326988403E+02  0.19184195633E+02  0.62370755175E+02  0.00000000000E+00 0. -1.
</event>
<event>
 4    1  0.1976955E-002  0.9118800E+02  0.7818608E-02  0.1130116E+00
         25   -1    0    0    0    0  0.00000000000E+00  0.00000000000E+00  0.99999998245E-14  0.12500000000E+03  0.12500000000E+03 0.  0.
        -11    1    1    0    0    0 -0.24400057625E+02 -0.12365025169E+02 -0.27022787374E+02  0.38451107881E+02  0.51100000000E-03 0.  1.
         11    1    1    0    0    0 -0.15036737570E+02  0.17196232603E+02 -0.16074162711E+02  0.27931927960E+02  0.51100000000E-03 0. -1.
         22    1    1    0    0    0  0.39436795195E+02 -0.48312074336E+01  0.43096950085E+02  0.58616964159E+02  0.00000000000E+00 0. -1.
</event>
<event>
 4    1  0.1976955E-002  0.9118800E+02  0.7818608E-02  0.1130116E+00
         25   -1    0    0    0    0  0.00000000000E+00  0.00000000000E+00  0.99999998245E-14  0.12500000000E+03  0.12500000000E+03 0.  0.
        -11    1    1    0    0    0 -0.17631211986E+02  0.20934620944E+02 -0.67703972471E+01  0.28194968865E+02  0.51100000000E-03 0. -1.
         11    1    1    0    0    0 -0.21465522270E+02  0.25463199224E+02 -0.82275196124E+01  0.34305032288E+02  0.51100000000E-03 0.  1.
         22    1    1    0    0    0  0.39096734256E+02 -0.46397820168E+02  0.14997916860E+02  0.62499998847E+02  0.00000000000E+00 0.  1.
</event>
<event>
 4    1  0.1976955E-002  0.9118800E+02  0.7818608E-02  0.1130116E+00
         25   -1    0    0    0    0  0.00000000000E+00  0.00000000000E+00  0.99999998245E-14  0.12500000000E+03  0.12500000000E+03 0.  0.
        -11    1    1    0    0    0  0.40217522085E+01  0.41686395486E+01  0.11311733781E+02  0.12708554911E+02  0.51100000000E-03 0.  1.
         11    1    1    0    0    0  0.21229776388E+02  0.20098275951E+02  0.40380820945E+02  0.49852329957E+02  0.51100000000E-03 0. -1.
         22    1    1    0    0    0 -0.25251528597E+02 -0.24266915499E+02 -0.51692554727E+02  0.62439115132E+02  0.00000000000E+00 0. -1.
</event>
<event>
 4    1  0.1976955E-002  0.9118800E+02  0.7818608E-02  0.1130116E+00
         25   -1    0    0    0    0  0.00000000000E+00  0.00000000000E+00  0.99999998245E-14  0.12500000000E+03  0.12500000000E+03 0.  0.
        -11    1    1    0    0    0  0.56998429588E+02  0.10835096364E+02 -0.63935503145E+01  0.58370350133E+02  0.51100000000E-03 0.  1.
         11    1    1    0    0    0  0.37466203418E+01  0.15580476696E+01 -0.10410351970E+01  0.41890847531E+01  0.51100000000E-03 0. -1.
         22    1    1    0    0    0 -0.60745049930E+02 -0.12393144033E+02  0.74345855115E+01  0.62440565114E+02  0.00000000000E+00 0.  1.
</event>
<event>
 4    1  0.1976955E-002  0.9118800E+02  0.7818608E-02  0.1130116E+00
         25   -1    0    0    0    0  0.00000000000E+00  0.00000000000E+00  0.99999998245E-14  0.12500000000E+03  0.12500000000E+03 0.  0.
        -11    1    1    0    0    0 -0.35558900182E+01  0.67470996290E+00 -0.51062161897E+00  0.36551774313E+01  0.51100000000E-03 0. -1.
         11    1    1    0    0    0 -0.57336743170E+02  0.10851272026E+02 -0.75811028622E+01  0.58844926229E+02  0.51100000000E-03 0.  1.
         22    1    1    0    0    0  0.60892633189E+02 -0.11525981989E+02  0.80917244811E+01  0.62499896340E+02  0.00000000000E+00 0.  1.
</event>
<event>
 4    1  0.1976955E-002  0.9118800E+02  0.7818608E-02  0.1130116E+00
         25   -1    0    0    0    0  0.00000000000E+00  0.00000000000E+00  0.99999998245E-14  0.12500000000E+03  0.12500000000E+03 0.  0.
        -11    1    1    0    0    0 -0.36539148414E+00  0.74232641508E+01 -0.63906785793E+01  0.98019964576E+01  0.51100000000E-03 0.  1.
         11    1    1    0    0    0 -0.20892763869E+01  0.39948932826E+02 -0.34304501699E+02  0.52698018433E+02  0.51100000000E-03 0. -1.
         22    1    1    0    0    0  0.24546678710E+01 -0.47372196977E+02  0.40695180278E+02  0.62499985109E+02  0.00000000000E+00 0. -1.
</event>
<event>
 4    1  0.1976955E-002  0.9118800E+02  0.7818608E-02  0.1130116E+00
         25   -1    0    0    0    0  0.00000000000E+00  0.00000000000E+00  0.99999998245E-14  0.12500000000E+03  0.12500000000E+03 0.  0.
        -11    1    1    0    0    0 -0.13738723230E+02  0.24674918448E+02  0.27429637484E+02  0.39369901310E+02  0.51100000000E-03 0.  1.
         11    1    1    0    0    0 -0.80574851300E+01  0.14525546252E+02  0.16096190310E+02  0.23130108156E+02  0.51100000000E-03 0. -1.
         22    1    1    0    0    0  0.21796208360E+02 -0.39200464700E+02 -0.43525827794E+02  0.62499990534E+02  0.00000000000E+00 0. -1.
</event>
<event>
 4    1  0.1976955E-002  0.9118800E+02  0.7818608E-02  0.1130116E+00
         25   -1    0    0    0    0  0.00000000000E+00  0.00000000000E+00  0.99999998245E-14  0.12500000000E+03  0.12500000000E+03 0.  0.
        -11    1    1    0    0    0  0.47819183965E+02  0.14486395638E+02 -0.17553677331E+01  0.49996113147E+02  0.51100000000E-03 0. -1.
         11    1    1    0    0    0  0.11961376284E+02  0.36157618895E+01 -0.44606283994E+00  0.12503888554E+02  0.51100000000E-03 0.  1.
         22    1    1    0    0    0 -0.59780560249E+02 -0.18102157527E+02  0.22014305731E+01  0.62499998299E+02  0.00000000000E+00 0. -1.
</event>
<event>
 4    1  0.1976955E-002  0.9118800E+02  0.7818608E-02  0.1130116E+00
         25   -1    0    0    0    0  0.00000000000E+00  0.00000000000E+00  0.99999998245E-14  0.12500000000E+03  0.12500000000E+03 0.  0.
        -11    1    1    0    0    0  0.78495641808E+01  0.15205389212E+02  0.24052431473E+02  0.29518451499E+02  0.51100000000E-03 0. -1.
         11    1    1    0    0    0  0.87699742065E+01  0.16989120542E+02  0.26874520968E+02  0.32981548506E+02  0.51100000000E-03 0. -1.
         22    1    1    0    0    0 -0.16619538387E+02 -0.32194509753E+02 -0.50926952440E+02  0.62499999995E+02  0.00000000000E+00 0. -1.
</event>
<event>
 4    1  0.1976955E-002  0.9118800E+02  0.7818608E-02  0.1130116E+00
         25   -1    0    0    0    0  0.00000000000E+00  0.00000000000E+00  0.99999998245E-14  0.12500000000E+03  0.12500000000E+03 0.  0.
        -11    1    1    0    0    0 -0.16928201443E+01  0.30599217057E+01 -0.16321989223E+01  0.38591235364E+01  0.51100000000E-03 0. -1.
         11    1    1    0    0    0 -0.25691028339E+02  0.46504476069E+02 -0.24820499733E+02  0.58640876859E+02  0.51100000000E-03 0.  1.
         22    1    1    0    0    0  0.27383848483E+02 -0.49564397774E+02  0.26452698655E+02  0.62499999605E+02  0.00000000000E+00 0.  1.
</event>
<event>
 4    1  0.1976955E-002  0.9118800E+02  0.7818608E-02  0.1130116E+00
         25   -1    0    0    0    0  0.00000000000E+00  0.00000000000E+00  0.99999998245E-14  0.12500000000E+03  0.12500000000E+03 0.  0.
        -11    1    1    0    0    0 -0.16167137628E+01 -0.23019857820E+01 -0.50451511910E+00  0.28578729324E+01  0.51100000000E-03 0.  1.
         11    1    1    0    0    0 -0.32958810224E+02 -0.48277705210E+02 -0.11841365661E+02  0.59642584893E+02  0.51100000000E-03 0. -1.
         22    1    1    0    0    0  0.34575523987E+02  0.50579690992E+02  0.12345880780E+02  0.62499542175E+02  0.00000000000E+00 0. -1.
</event>
<event>
 4    1  0.1976955E-002  0.9118800E+02  0.7818608E-02  0.1130116E+00
         25   -1    0    0    0    0  0.00000000000E+00  0.00000000000E+00  0.99999998245E-14  0.12500000000E+03  0.12500000000E+03 0.  0.
        -11    1    1    0    0    0 -0.12849212182E+02 -0.29055632813E+02  0.22008668226E+02  0.38648590261E+02  0.51100000000E-03 0. -1.
         11    1    1    0    0    0 -0.79302418784E+01 -0.17931348067E+02  0.13581891138E+02  0.23851409746E+02  0.51100000000E-03 0. -1.
         22    1    1    0    0    0  0.20779454060E+02  0.46986980880E+02 -0.35590559364E+02  0.62499999992E+02  0.00000000000E+00 0. -1.
</event>
<event>
 4    1  0.1976955E-002  0.9118800E+02  0.7818608E-02  0.1130116E+00
         25   -1    0    0    0    0  0.00000000000E+00  0.00000000000E+00  0.99999998245E-14  0.12500000000E+03  0.12500000000E+03 0.  0.
        -11    1    1    0    0    0 -0.34110436315E-01  0.61654431111E-01  0.58406770721E-01  0.91522689691E-01  0.51100000000E-03 0. -1.
         11    1    1    0    0    0 -0.25525755347E+02  0.43416437576E+02  0.36854830125E+02  0.62408571058E+02  0.51100000000E-03 0.  1.
         22    1    1    0    0    0  0.25559865783E+02 -0.43478092007E+02 -0.36913236895E+02  0.62499906252E+02  0.00000000000E+00 0.  1.
</event>
<event>
 4    1  0.1976955E-002  0.9118800E+02  0.7818608E-02  0.1130116E+00
         25   -1    0    0    0    0  0.00000000000E+00  0.00000000000E+00  0.99999998245E-14  0.12500000000E+03  0.12500000000E+03 0.  0.
        -11    1    1    0    0    0 -0.18843711808E+02 -0.22375668733E+02  0.31429337533E+02  0.42936689253E+02  0.51100000000E-03 0.  1.
         11    1    1    0    0    0 -0.15876406822E+02  0.20149322535E+02  0.10378651222E+02  0.27672583791E+02  0.51100000000E-03 0. -1.
         22    1    1    0    0    0  0.34720118631E+02  0.22263461987E+01 -0.41807988755E+02  0.54390726956E+02  0.00000000000E+00 0.  1.
</event>
<event>
 4    1  0.1976955E-002  0.9118800E+02  0.7818608E-02  0.1130116E+00
         25   -1    0    0    0    0  0.00000000000E+00  0.00000000000E+00  0.99999998245E-14  0.12500000000E+03  0.12500000000E+03 0.  0.
        -11    1    1    0    0    0  0.55060257568E+02  0.68165783272E+01 -0.25459330302E+02  0.61043224057E+02  0.51100000000E-03 0.  1.
         11    1    1    0    0    0  0.13197392865E+01  0.15348720321E+00 -0.59752208714E+00  0.14568126206E+01  0.51100000000E-03 0. -1.
         22    1    1    0    0    0 -0.56379996855E+02 -0.69700655304E+01  0.26056852389E+02  0.62499963322E+02  0.00000000000E+00 0.  1.
</event>
<event>
 4    1  0.1976955E-002  0.9118800E+02  0.7818608E-02  0.1130116E+00
         25   -1    0    0    0    0  0.00000000000E+00  0.00000000000E+00  0.99999998245E-14  0.12500000000E+03  0.12500000000E+03 0.  0.
        -11    1    1    0    0    0  0.19145224846E+02  0.34646292612E+02  0.14573178663E+02  0.42181545286E+02  0.51100000000E-03 0.  1.
         11    1    1    0    0    0  0.81966881468E+01  0.17520164591E+02  0.62824722993E+01  0.20337436474E+02  0.51100000000E-03 0. -1.
         22    1    1    0    0    0 -0.27341912993E+02 -0.52166457203E+02 -0.20855650962E+02  0.62481018240E+02  0.00000000000E+00 0. -1.
</event>
<event>
 4    1  0.1976955E-002  0.9118800E+02  0.7818608E-02  0.1130116E+00
         25   -1    0    0    0    0  0.00000000000E+00  0.00000000000E+00  0.99999998245E-14  0.12500000000E+03  0.12500000000E+03 0.  0.
        -11    1    1    0    0    0 -0.27681772574E+02  0.16093283159E+02  0.21950804579E+02  0.38821541927E+02  0.51100000000E-03 0.  1.
         11    1    1    0    0    0 -0.16884493483E+02  0.98168741013E+01  0.13387017609E+02  0.23678458101E+02  0.51100000000E-03 0. -1.
         22    1    1    0    0    0  0.44566266058E+02 -0.25910157260E+02 -0.35337822188E+02  0.62499999972E+02  0.00000000000E+00 0.  1.
</event>
<event>
 4    1  0.1976955E-002  0.9118800E+02  0.7818608E-02  0.1130116E+00
         25   -1    0    0    0    0  0.00000000000E+00  0.00000000000E+00  0.99999998245E-14  0.12500000000E+03  0.12500000000E+03 0.  0.
        -11    1    1    0    0    0  0.55851464052E+01  0.85186318488E+00  0.34769372658E+01  0.66338996273E+01  0.51100000000E-03 0. -1.
         11    1    1    0    0    0  0.47024498108E+02  0.71604355172E+01  0.29299248219E+02  0.55866100683E+02  0.51100000000E-03 0.  1.
         22    1    1    0    0    0 -0.52609644513E+02 -0.80122987021E+01 -0.32776185485E+02  0.62499999690E+02  0.00000000000E+00 0.  1.
</event>
<event>
 4    1  0.1976955E-002  0.9118800E+02  0.7818608E-02  0.1130116E+00
         25   -1    0    0    0    0  0.00000000000E+00  0.00000000000E+00  0.99999998245E-14  0.12500000000E+03  0.12500000000E+03 0.  0.
        -11    1    1    0    0    0 -0.29811425178E+01 -0.79872859365E+00  0.73943293996E+00  0.31736318961E+01  0.51100000000E-03 0.  1.
         11    1    1    0    0    0 -0.54942732461E+02 -0.11435837413E+02  0.19266919244E+02  0.59335456559E+02  0.51100000000E-03 0. -1.
         22    1    1    0    0    0  0.57923874979E+02  0.12234566007E+02 -0.20006352184E+02  0.62490911545E+02  0.00000000000E+00 0. -1.
</event>
<event>
 4    1  0.1976955E-002  0.9118800E+02  0.7818608E-02  0.1130116E+00
         25   -1    0    0    0    0  0.00000000000E+00  0.00000000000E+00  0.99999998245E-14  0.12500000000E+03  0.12500000000E+03 0.  0.
        -11    1    1    0    0    0 -0.49988467884E+02 -0.41970559326E+01 -0.29952214827E+02  0.58425999120E+02  0.51100000000E-03 0.  1.
         11    1    1    0    0    0  0.34328942362E+01 -0.27021519025E+01 -0.59484680059E+01  0.73804240813E+01  0.51100000000E-03 0. -1.
         22    1    1    0    0    0  0.46555573647E+02  0.68992078351E+01  0.35900682833E+02  0.59193576799E+02  0.00000000000E+00 0.  1.
</event>
<event>
 4    1  0.1976955E-002  0.9118800E+02  0.7818608E-02  0.1130116E+00
         25   -1    0    0    0    0  0.00000000000E+00  0.00000000000E+00  0.99999998245E-14  0.12500000000E+03  0.12500000000E+03 0.  0.
        -11    1    1    0    0    0 -0.12405361609E+02 -0.19475508704E+02  0.15029896175E+02  0.27551519291E+02  0.51100000000E-03 0. -1.
         11    1    1    0    0    0 -0.15733691350E+02 -0.24705974616E+02  0.19064681496E+02  0.34948480739E+02  0.51100000000E-03 0.  1.
         22    1    1    0    0    0  0.28139052959E+02  0.44181483320E+02 -0.34094577671E+02  0.62499999970E+02  0.00000000000E+00 0.  1.
</event>
<event>
 4    1  0.1976955E-002  0.9118800E+02  0.7818608E-02  0.1130116E+00
         25   -1    0    0    0    0  0.00000000000E+00  0.00000000000E+00  0.99999998245E-14  0.12500000000E+03  0.12500000000E+03 0.  0.
        -11    1    1    0    0    0  0.34176662011E+01 -0.48222922903E+00 -0.37328043674E+01  0.50839763962E+01  0.51100000000E-03 0.  1.
         11    1    1    0    0    0 -0.16447055909E+02  0.34003138452E+02 -0.45380280805E+02  0.59043111020E+02  0.51100000000E-03 0. -1.
         22    1    1    0    0    0  0.13029389708E+02 -0.33520909223E+02  0.49113085173E+02  0.60872912584E+02  0.00000000000E+00 0. -1.
</event>
<event>
 4    1  0.1976955E-002  0.9118800E+02  0.7818608E-02  0.1130116E+00
         25   -1    0    0    0    0  0.00000000000E+00  0.00000000000E+00  0.99999998245E-14  0.12500000000E+03  0.12500000000E+03 0.  0.
        -11    1    1    0    0    0 -0.67676169514E+01 -0.29632513033E+02  0.80296647135E+01  0.31438224878E+02  0.51100000000E-03 0.  1.
         11    1    1    0    0    0 -0.66853692994E+01 -0.29277784975E+02  0.79341677857E+01  0.31061775134E+02  0.51100000000E-03 0. -1.
         22    1    1    0    0    0  0.13452986251E+02  0.58910298008E+02 -0.15963832499E+02  0.62499999988E+02  0.00000000000E+00 0.  1.
</event>
<event>
 4    1  0.1976955E-002  0.9118800E+02  0.7818608E-02  0.1130116E+00
         25   -1    0    0    0    0  0.00000000000E+00  0.00000000000E+00  0.99999998245E-14  0.12500000000E+03  0.12500000000E+03 0.  0.
        -11    1    1    0    0    0  0.96499608648E+01  0.32441831047E+01  0.47406171961E+01  0.11230312568E+02  0.51100000000E-03 0.  1.
         11    1    1    0    0    0  0.42727612543E+02  0.29461920373E+02 -0.10977259223E+01  0.51912027780E+02  0.51100000000E-03 0. -1.
         22    1    1    0    0    0 -0.52377573408E+02 -0.32706103478E+02 -0.36428912738E+01  0.61857659652E+02  0.00000000000E+00 0. -1.
</event>
<event>
 4    1  0.1976955E-002  0.9118800E+02  0.7818608E-02  0.1130116E+00
         25   -1    0    0    0    0  0.00000000000E+00  0.00000000000E+00  0.99999998245E-14  0.12500000000E+03  0.12500000000E+03 0.  0.
        -11    1    1    0    0    0 -0.20012808843E+02  0.14913216009E+01 -0.29492518909E+02  0.35672751923E+02  0.51100000000E-03 0.  1.
         11    1    1    0    0    0 -0.90668028856E+01  0.85171222092E+01 -0.24337008026E+02  0.27332000388E+02  0.51100000000E-03 0. -1.
         22    1    1    0    0    0  0.29079611729E+02 -0.10008443810E+02  0.53829526936E+02  0.61995247688E+02  0.00000000000E+00 0. -1.
</event>
<event>
 4    1  0.1976955E-002  0.9118800E+02  0.7818608E-02  0.1130116E+00
         25   -1    0    0    0    0  0.00000000000E+00  0.00000000000E+00  0.99999998245E-14  0.12500000000E+03  0.12500000000E+03 0.  0.
        -11    1    1    0    0    0 -0.73765139590E+01 -0.68749420298E+01  0.34224099074E+01  0.10648505808E+02  0.51100000000E-03 0.  1.
         11    1    1    0    0    0 -0.36688757826E+02 -0.31595312361E+02  0.18571766078E+02  0.51857875097E+02  0.51100000000E-03 0. -1.
         22    1    1    0    0    0  0.44065271785E+02  0.38470254391E+02 -0.21994175985E+02  0.62493619096E+02  0.00000000000E+00 0. -1.
</event>
<event>
 4    1  0.1976955E-002  0.9118800E+02  0.7818608E-02  0.1130116E+00
         25   -1    0    0    0    0  0.00000000000E+00  0.00000000000E+00  0.99999998245E-14  0.12500000000E+03  0.12500000000E+03 0.  0.
        -11    1    1    0    0    0  0.28812676920E+02 -0.36453733510E+02  0.39085992624E+02  0.60718694467E+02  0.51100000000E-03 0.  1.
         11    1    1    0    0    0  0.68027637149E+00 -0.17548279443E+01  0.39568371206E+00  0.19232168148E+01  0.51100000000E-03 0. -1.
         22    1    1    0    0    0 -0.29492953292E+02  0.38208561454E+02 -0.39481676336E+02  0.62358088718E+02  0.00000000000E+00 0.  1.
</event>
<event>
 4    1  0.1976955E-002  0.9118800E+02  0.7818608E-02  0.1130116E+00
         25   -1    0    0    0    0  0.00000000000E+00  0.00000000000E+00  0.99999998245E-14  0.12500000000E+03  0.12500000000E+03 0.  0.
        -11    1    1    0    0    0 -0.12071407437E+02  0.36818207113E+02  0.37353204365E+02  0.53819709485E+02  0.51100000000E-03 0. -1.
         11    1    1    0    0    0 -0.17247237988E+01  0.56065790809E+01  0.64086845230E+01  0.86879018611E+01  0.51100000000E-03 0.  1.
         22    1    1    0    0    0  0.13796131236E+02 -0.42424786194E+02 -0.43761888888E+02  0.62492388654E+02  0.00000000000E+00 0. -1.
</event>
<event>
 4    1  0.1976955E-002  0.9118800E+02  0.7818608E-02  0.1130116E+00
         25   -1    0    0    0    0  0.00000000000E+00  0.00000000000E+00  0.99999998245E-14  0.12500000000E+03  0.12500000000E+03 0.  0.
        -11    1    1    0    0    0  0.30779701029E+02  0.44817445321E+01 -0.43490419701E+02  0.53468613556E+02  0.51100000000E-03 0.  1.
         11    1    1    0    0    0  0.49632597777E+01  0.10911632244E+01 -0.74712524909E+01  0.90357179487E+01  0.51100000000E-03 0. -1.
         22    1    1    0    0    0 -0.35742960807E+02 -0.55729077565E+01  0.50961672192E+02  0.62495668496E+02  0.00000000000E+00 0.  1.
</event>
<event>
 4    1  0.1976955E-002  0.9118800E+02  0.7818608E-02  0.1130116E+00
         25   -1    0    0    0    0  0.00000000000E+00  0.00000000000E+00  0.99999998245E-14  0.12500000000E+03  0.12500000000E+03 0.  0.
        -11    1    1    0    0    0  0.47056272832E+02  0.68022552242E+01  0.68618107386E+01  0.48037984302E+02  0.51100000000E-03 0. -1.
         11    1    1    0    0    0  0.12300329587E+02 -0.28108722803E+00  0.89213570315E+01  0.15197622496E+02  0.51100000000E-03 0.  1.
         22    1    1    0    0    0 -0.59356602419E+02 -0.65211679962E+01 -0.15783167770E+02  0.61764393202E+02  0.00000000000E+00 0. -1.
</event>
<event>
 4    1  0.1976955E-002  0.9118800E+02  0.7818608E-02  0.1130116E+00
         25   -1    0    0    0    0  0.00000000000E+00  0.00000000000E+00  0.99999998245E-14  0.12500000000E+03  0.12500000000E+03 0.  0.
        -11    1    1    0    0    0  0.54536528941E+01  0.24099498869E+01  0.17434314660E+01  0.62120642209E+01  0.51100000000E-03 0. -1.
         11    1    1    0    0    0  0.13885101330E+02 -0.11264853568E+02 -0.56915523284E+02  0.59657939587E+02  0.51100000000E-03 0.  1.
         22    1    1    0    0    0 -0.19338754224E+02  0.88549036812E+01  0.55172091818E+02  0.59129996192E+02  0.00000000000E+00 0.  1.
</event>
<event>
 4    1  0.1976955E-002  0.9118800E+02  0.7818608E-02  0.1130116E+00
         25   -1    0    0    0    0  0.00000000000E+00  0.00000000000E+00  0.99999998245E-14  0.12500000000E+03  0.12500000000E+03 0.  0.
        -11    1    1    0    0    0 -0.78612874863E+01 -0.31939344222E+01 -0.19629643205E+02  0.21385133871E+02  0.51100000000E-03 0. -1.
         11    1    1    0    0    0 -0.18411168752E+02 -0.71642921949E+01 -0.36092081401E+02  0.41145310275E+02  0.51100000000E-03 0.  1.
         22    1    1    0    0    0  0.26272456239E+02  0.10358226617E+02  0.55721724607E+02  0.62469555854E+02  0.00000000000E+00 0.  1.
</event>
<event>
 4    1  0.1976955E-002  0.9118800E+02  0.7818608E-02  0.1130116E+00
         25   -1    0    0    0    0  0.00000000000E+00  0.00000000000E+00  0.99999998245E-14  0.12500000000E+03  0.12500000000E+03 0.  0.
        -11    1    1    0    0    0  0.22631518748E+02  0.22270025984E+02  0.37362374664E+01  0.31970285717E+02  0.51100000000E-03 0.  1.
         11    1    1    0    0    0  0.21377420654E+02  0.21463978115E+02  0.37952896960E+01  0.30530324179E+02  0.51100000000E-03 0. -1.
         22    1    1    0    0    0 -0.44008939402E+02 -0.43734004099E+02 -0.75315271624E+01  0.62499390103E+02  0.00000000000E+00 0.  1.
</event>
<event>
 4    1  0.1976955E-002  0.9118800E+02  0.7818608E-02  0.1130116E+00
         25   -1    0    0    0    0  0.00000000000E+00  0.00000000000E+00  0.99999998245E-14  0.12500000000E+03  0.12500000000E+03 0.  0.
        -11    1    1    0    0    0 -0.83090450718E+01 -0.13690189858E+02 -0.35297910081E+01  0.16398809505E+02  0.51100000000E-03 0.  1.
         11    1    1    0    0    0 -0.23363800748E+02 -0.38924948258E+02 -0.80490367825E+01  0.46106461323E+02  0.51100000000E-03 0. -1.
         22    1    1    0    0    0  0.31672845820E+02  0.52615138116E+02  0.11578827791E+02  0.62494729172E+02  0.00000000000E+00 0. -1.
</event>
<event>
 4    1  0.1976955E-002  0.9118800E+02  0.7818608E-02  0.1130116E+00
         25   -1    0    0    0    0  0.00000000000E+00  0.00000000000E+00  0.99999998245E-14  0.12500000000E+03  0.12500000000E+03 0.  0.
        -11    1    1    0    0    0 -0.13274529511E+01  0.75882752917E+00 -0.26663636134E+01  0.30736697507E+01  0.51100000000E-03 0.  1.
         11    1    1    0    0    0 -0.25656882678E+02  0.14669462705E+02 -0.51555988660E+02  0.59426330290E+02  0.51100000000E-03 0.  1.
         22    1    1    0    0    0  0.26984335629E+02 -0.15428290234E+02  0.54222352273E+02  0.62499999959E+02  0.00000000000E+00 0.  1.
</event>
<event>
 4    1  0.1976955E-002  0.9118800E+02  0.7818608E-02  0.1130116E+00
         25   -1    0    0    0    0  0.00000000000E+00  0.00000000000E+00  0.99999998245E-14  0.12500000000E+03  0.12500000000E+03 0.  0.
        -11    1    1    0    0    0 -0.15039836548E+02  0.62112481616E+01  0.55125887885E+01  0.17180364447E+02  0.51100000000E-03 0.  1.
         11    1    1    0    0    0 -0.43241339057E+02  0.14645611887E+02  0.21227866988E+00  0.45654708558E+02  0.51100000000E-03 0. -1.
         22    1    1    0    0    0  0.58281175605E+02 -0.20856860048E+02 -0.57248674583E+01  0.62164926996E+02  0.00000000000E+00 0. -1.
</event>
<event>
 4    1  0.1976955E-002  0.9118800E+02  0.7818608E-02  0.1130116E+00
         25   -1    0    0    0    0  0.00000000000E+00  0.00000000000E+00  0.99999998245E-14  0.12500000000E+03  0.12500000000E+03 0.  0.
        -11    1    1    0    0    0 -0.16034236966E+02 -0.19099429450E+02 -0.13871412464E+02  0.28535960548E+02  0.51100000000E-03 0. -1.
         11    1    1    0    0    0 -0.86611544035E+01  0.32095821493E+02 -0.29795062830E+02  0.44641943531E+02  0.51100000000E-03 0.  1.
         22    1    1    0    0    0  0.24695391369E+02 -0.12996392043E+02  0.43666475294E+02  0.51822095921E+02  0.00000000000E+00 0.  1.
</event>
<event>
 4    1  0.1976955E-002  0.9118800E+02  0.7818608E-02  0.1130116E+00
         25   -1    0    0    0    0  0.00000000000E+00  0.00000000000E+00  0.99999998245E-14  0.12500000000E+03  0.12500000000E+03 0.  0.
        -11    1    1    0    0    0  0.16758593599E+02 -0.43917861730E+02  0.25115373974E+02  0.53295506831E+02  0.51100000000E-03 0.  1.
         11    1    1    0    0    0  0.30358249577E+01 -0.75492282876E+01  0.43040878564E+01  0.92050124089E+01  0.51100000000E-03 0. -1.
         22    1    1    0    0    0 -0.19794418556E+02  0.51467090017E+02 -0.29419461831E+02  0.62499480760E+02  0.00000000000E+00 0.  1.
</event>
<event>
 4    1  0.1976955E-002  0.9118800E+02  0.7818608E-02  0.1130116E+00
         25   -1    0    0    0    0  0.00000000000E+00  0.00000000000E+00  0.99999998245E-14  0.12500000000E+03  0.12500000000E+03 0.  0.
        -11    1    1    0    0    0 -0.20623729922E+02  0.98050443437E+01  0.35530897340E+01  0.23110637754E+02  0.51100000000E-03 0.  1.
         11    1    1    0    0    0 -0.35151208733E+02  0.16710864350E+02  0.60548654679E+01  0.39389362254E+02  0.51100000000E-03 0.  1.
         22    1    1    0    0    0  0.55774938655E+02 -0.26515908694E+02 -0.96079552019E+01  0.62499999992E+02  0.00000000000E+00 0.  1.
</event>
<event>
 4    1  0.1976955E-002  0.9118800E+02  0.7818608E-02  0.1130116E+00
         25   -1    0    0    0    0  0.00000000000E+00  0.00000000000E+00  0.99999998245E-14  0.12500000000E+03  0.12500000000E+03 0.  0.
        -11    1    1    0    0    0 -0.46896229782E+02 -0.21312839501E+02 -0.25939043652E+02  0.57674322547E+02  0.51100000000E-03 0. -1.
         11    1    1    0    0    0 -0.39604294434E+01 -0.17727873230E+01 -0.21122527146E+01  0.48259080037E+01  0.51100000000E-03 0.  1.
         22    1    1    0    0    0  0.50856659225E+02  0.23085626824E+02  0.28051296367E+02  0.62499769450E+02  0.00000000000E+00 0. -1.
</event>
<event>
 4    1  0.1976955E-002  0.9118800E+02  0.7818608E-02  0.1130116E+00
         25   -1    0    0    0    0  0.00000000000E+00  0.00000000000E+00  0.99999998245E-14  0.12500000000E+03  0.12500000000E+03 0.  0.
        -11    1    1    0    0    0 -0.10827381779E+02 -0.94178471580E+00  0.49585959264E+01  0.11945996336E+02  0.51100000000E-03 0. -1.
         11    1    1    0    0    0 -0.23328874939E+02  0.19924427529E+02  0.41969138489E+02  0.51986804134E+02  0.51100000000E-03 0.  1.
         22    1    1    0    0    0  0.34156256717E+02 -0.18982642813E+02 -0.46927734416E+02  0.61067199530E+02  0.00000000000E+00 0.  1.
</event>
<event>
 4    1  0.1976955E-002  0.9118800E+02  0.7818608E-02  0.1130116E+00
         25   -1    0    0    0    0  0.00000000000E+00  0.00000000000E+00  0.99999998245E-14  0.12500000000E+03  0.12500000000E+03 0.  0.
        -11    1    1    0    0    0 -0.33435107375E+01 -0.14695911154E+02  0.56885236145E+02  0.58847930807E+02  0.51100000000E-03 0.  1.
         11    1    1    0    0    0 -0.20965274037E+00 -0.91036981050E+00  0.35305644475E+01  0.36520696930E+01  0.51100000000E-03 0. -1.
         22    1    1    0    0    0  0.35531634779E+01  0.15606280964E+02 -0.60415800593E+02  0.62499999500E+02  0.00000000000E+00 0.  1.
</event>
<event>
 4    1  0.1976955E-002  0.9118800E+02  0.7818608E-02  0.1130116E+00
         25   -1    0    0    0    0  0.00000000000E+00  0.00000000000E+00  0.99999998245E-14  0.12500000000E+03  0.12500000000E+03 0.  0.
        -11    1    1    0    0    0  0.13335039173E+02  0.56261480799E+02  0.51977210377E+01  0.58053370235E+02  0.51100000000E-03 0. -1.
         11    1    1    0    0    0  0.10217769005E+01  0.43077754179E+01  0.41434594380E+00  0.44466436677E+01  0.51100000000E-03 0.  1.
         22    1    1    0    0    0 -0.14356816073E+02 -0.60569256216E+02 -0.56120669815E+01  0.62499986097E+02  0.00000000000E+00 0. -1.
</event>
<event>
 4    1  0.1976955E-002  0.9118800E+02  0.7818608E-02  0.1130116E+00
         25   -1    0    0    0    0  0.00000000000E+00  0.00000000000E+00  0.99999998245E-14  0.12500000000E+03  0.12500000000E+03 0.  0.
        -11    1    1    0    0    0  0.22540782514E+01 -0.26972237842E+02  0.15097765102E+02  0.30992337670E+02  0.51100000000E-03 0. -1.
         11    1    1    0    0    0  0.22925829078E+01 -0.27420662741E+02  0.15348749272E+02  0.31507662338E+02  0.51100000000E-03 0. -1.
         22    1    1    0    0    0 -0.45466611592E+01  0.54392900582E+02 -0.30446514373E+02  0.62499999992E+02  0.00000000000E+00 0. -1.
</event>
<event>
 4    1  0.1976955E-002  0.9118800E+02  0.7818608E-02  0.1130116E+00
         25   -1    0    0    0    0  0.00000000000E+00  0.00000000000E+00  0.99999998245E-14  0.12500000000E+03  0.12500000000E+03 0.  0.
        -11    1    1    0    0    0  0.76026075462E+01  0.82508970474E+00  0.65041698809E+01  0.10039155374E+02  0.51100000000E-03 0.  1.
         11    1    1    0    0    0  0.39737711647E+02  0.43125785096E+01  0.33977289120E+02  0.52460844795E+02  0.51100000000E-03 0. -1.
         22    1    1    0    0    0 -0.47340319193E+02 -0.51376682143E+01 -0.40481459001E+02  0.62499999831E+02  0.00000000000E+00 0. -1.
</event>
<event>
 4    1  0.1976955E-002  0.9118800E+02  0.7818608E-02  0.1130116E+00
         25   -1    0    0    0    0  0.00000000000E+00  0.00000000000E+00  0.99999998245E-14  0.12500000000E+03  0.12500000000E+03 0.  0.
        -11    1    1    0    0    0 -0.58981151085E+01 -0.12912644816E+02 -0.22624284284E+01  0.14375073587E+02  0.51100000000E-03 0. -1.
         11    1    1    0    0    0 -0.19909324615E+02 -0.43868873864E+02  0.27206201060E+01  0.48252057726E+02  0.51100000000E-03 0.  1.
         22    1    1    0    0    0  0.25807439724E+02  0.56781518680E+02 -0.45819167756E+00  0.62372868687E+02  0.00000000000E+00 0.  1.
</event>
<event>
 4    1  0.1976955E-002  0.9118800E+02  0.7818608E-02  0.1130116E+00
         25   -1    0    0    0    0  0.00000000000E+00  0.00000000000E+00  0.99999998245E-14  0.12500000000E+03  0.12500000000E+03 0.  0.
        -11    1    1    0    0    0  0.33574778269E+02  0.42778366997E+02  0.12328670951E+01  0.54394617199E+02  0.51100000000E-03 0. -1.
         11    1    1    0    0    0  0.50009885560E+01  0.63764936521E+01  0.16673742586E+00  0.81053907656E+01  0.51100000000E-03 0.  1.
         22    1    1    0    0    0 -0.38575766824E+02 -0.49154860649E+02 -0.13996045210E+01  0.62499992035E+02  0.00000000000E+00 0. -1.
</event>
<event>
 4    1  0.1976955E-002  0.9118800E+02  0.7818608E-02  0.1130116E+00
         25   -1    0    0    0    0  0.00000000000E+00  0.00000000000E+00  0.99999998245E-14  0.12500000000E+03  0.12500000000E+03 0.  0.
        -11    1    1    0    0    0  0.27092594604E+02  0.33063384902E-01  0.18258322868E+02  0.32670722823E+02  0.51100000000E-03 0.  1.
         11    1    1    0    0    0  0.24736548330E+02  0.30574763323E-01  0.16669973572E+02  0.29829277183E+02  0.51100000000E-03 0.  1.
         22    1    1    0    0    0 -0.51829142934E+02 -0.63638148226E-01 -0.34928296440E+02  0.62499999994E+02  0.00000000000E+00 0.  1.
</event>
<event>
 4    1  0.1976955E-002  0.9118800E+02  0.7818608E-02  0.1130116E+00
         25   -1    0    0    0    0  0.00000000000E+00  0.00000000000E+00  0.99999998245E-14  0.12500000000E+03  0.12500000000E+03 0.  0.
        -11    1    1    0    0    0 -0.25916607688E+02  0.45105257475E+02 -0.59479762888E+01  0.52359652674E+02  0.51100000000E-03 0. -1.
         11    1    1    0    0    0 -0.10811933432E+02 -0.22912586935E+02  0.14048577127E+02  0.28969761203E+02  0.51100000000E-03 0.  1.
         22    1    1    0    0    0  0.36728541119E+02 -0.22192670540E+02 -0.81006008384E+01  0.43670586123E+02  0.00000000000E+00 0. -1.
</event>
<event>
 4    1  0.1976955E-002  0.9118800E+02  0.7818608E-02  0.1130116E+00
         25   -1    0    0    0    0  0.00000000000E+00  0.00000000000E+00  0.99999998245E-14  0.12500000000E+03  0.12500000000E+03 0.  0.
        -11    1    1    0    0    0  0.47888546609E+01 -0.14473898906E+01  0.60436688854E+00  0.50391791054E+01  0.51100000000E-03 0. -1.
         11    1    1    0    0    0  0.54642741452E+02 -0.16270628842E+02  0.71546089170E+01  0.57460864815E+02  0.51100000000E-03 0.  1.
         22    1    1    0    0    0 -0.59431596113E+02  0.17718018733E+02 -0.77589758055E+01  0.62499956079E+02  0.00000000000E+00 0.  1.
</event>
<event>
 4    1  0.1976955E-002  0.9118800E+02  0.7818608E-02  0.1130116E+00
         25   -1    0    0    0    0  0.00000000000E+00  0.00000000000E+00  0.99999998245E-14  0.12500000000E+03  0.12500000000E+03 0.  0.
        -11    1    1    0    0    0 -0.75540724121E+01  0.37840614113E+02 -0.33082487883E+02  0.50827424598E+02  0.51100000000E-03 0. -1.
         11    1    1    0    0    0 -0.17332339705E+01  0.86940619884E+01 -0.75933007815E+01  0.11672576017E+02  0.51100000000E-03 0.  1.
         22    1    1    0    0    0  0.92873063826E+01 -0.46534676101E+02  0.40675788664E+02  0.62499999385E+02  0.00000000000E+00 0. -1.
</event>
<event>
 4    1  0.1976955E-002  0.9118800E+02  0.7818608E-02  0.1130116E+00
         25   -1    0    0    0    0  0.00000000000E+00  0.00000000000E+00  0.99999998245E-14  0.12500000000E+03  0.12500000000E+03 0.  0.
        -11    1    1    0    0    0 -0.10372869761E+01 -0.12055367966E+02 -0.19973682560E+02  0.23352855422E+02  0.51100000000E-03 0. -1.
         11    1    1    0    0    0 -0.16833279022E+01 -0.20246612371E+02 -0.33462530401E+02  0.39147156301E+02  0.51100000000E-03 0.  1.
         22    1    1    0    0    0  0.27206148783E+01  0.32301980337E+02  0.53436212962E+02  0.62499988277E+02  0.00000000000E+00 0.  1.
</event>
<event>
 4    1  0.1976955E-002  0.9118800E+02  0.7818608E-02  0.1130116E+00
         25   -1    0    0    0    0  0.00000000000E+00  0.00000000000E+00  0.99999998245E-14  0.12500000000E+03  0.12500000000E+03 0.  0.
        -11    1    1    0    0    0 -0.36530593109E+01  0.63553558418E+00 -0.16243127001E+00  0.37114864928E+01  0.51100000000E-03 0.  1.
         11    1    1    0    0    0 -0.57838897660E+02  0.10208615461E+02 -0.25565668055E+01  0.58788518831E+02  0.51100000000E-03 0. -1.
         22    1    1    0    0    0  0.61491956971E+02 -0.10844151045E+02  0.27189980755E+01  0.62499994677E+02  0.00000000000E+00 0. -1.
</event>
<event>
 4    1  0.1976955E-002  0.9118800E+02  0.7818608E-02  0.1130116E+00
         25   -1    0    0    0    0  0.00000000000E+00  0.00000000000E+00  0.99999998245E-14  0.12500000000E+03  0.12500000000E+03 0.  0.
        -11    1    1    0    0    0  0.25135675480E+01  0.84949517126E+00  0.66423461552E+01  0.71526517160E+01  0.51100000000E-03 0.  1.
         11    1    1    0    0    0  0.19457693844E+02  0.65720399791E+01  0.51395869558E+02  0.55347348329E+02  0.51100000000E-03 0. -1.
         22    1    1    0    0    0 -0.21971261391E+02 -0.74215351504E+01 -0.58038215713E+02  0.62499999955E+02  0.00000000000E+00 0. -1.
</event>
<event>
 4    1  0.1976955E-002  0.9118800E+02  0.7818608E-02  0.1130116E+00
         25   -1    0    0    0    0  0.00000000000E+00  0.00000000000E+00  0.99999998245E-14  0.12500000000E+03  0.12500000000E+03 0.  0.
        -11    1    1    0    0    0  0.49055463957E+00 -0.85802496129E+00 -0.23543063845E+00  0.10160110901E+01  0.51100000000E-03 0. -1.
         11    1    1    0    0    0  0.44651143581E+02  0.43074237661E+02 -0.27905491933E+01  0.62103959119E+02  0.51100000000E-03 0.  1.
         22    1    1    0    0    0 -0.45141698221E+02 -0.42216212700E+02  0.30259798318E+01  0.61880029791E+02  0.00000000000E+00 0.  1.
</event>
<event>
 4    1  0.1976955E-002  0.9118800E+02  0.7818608E-02  0.1130116E+00
         25   -1    0    0    0    0  0.00000000000E+00  0.00000000000E+00  0.99999998245E-14  0.12500000000E+03  0.12500000000E+03 0.  0.
        -11    1    1    0    0    0 -0.68253742294E+01  0.34523258032E+02  0.13178949839E+02  0.37578262302E+02  0.51100000000E-03 0. -1.
         11    1    1    0    0    0 -0.42986474166E+01  0.23129137539E+02  0.82320874291E+01  0.24923937021E+02  0.51100000000E-03 0.  1.
         22    1    1    0    0    0  0.11124021646E+02 -0.57652395571E+02 -0.21411037268E+02  0.62497800678E+02  0.00000000000E+00 0.  1.
</event>
<event>
 4    1  0.1976955E-002  0.9118800E+02  0.7818608E-02  0.1130116E+00
         25   -1    0    0    0    0  0.00000000000E+00  0.00000000000E+00  0.99999998245E-14  0.12500000000E+03  0.12500000000E+03 0.  0.
        -11    1    1    0    0    0  0.22316882379E+01  0.38649980996E+01 -0.62481225373E+01  0.76783903393E+01  0.51100000000E-03 0. -1.
         11    1    1    0    0    0  0.15935366817E+02  0.27594454779E+02 -0.44609629416E+02  0.54821609672E+02  0.51100000000E-03 0.  1.
         22    1    1    0    0    0 -0.18167055055E+02 -0.31459452878E+02  0.50857751954E+02  0.62499999988E+02  0.00000000000E+00 0.  1.
</event>
<event>
 4    1  0.1976955E-002  0.9118800E+02  0.7818608E-02  0.1130116E+00
         25   -1    0    0    0    0  0.00000000000E+00  0.00000000000E+00  0.99999998245E-14  0.12500000000E+03  0.12500000000E+03 0.  0.
        -11    1    1    0    0    0  0.11559099331E+02  0.49848805047E+00 -0.22818030351E+01  0.11792705077E+02  0.51100000000E-03 0.  1.
         11    1    1    0    0    0  0.49716525306E+02  0.21182356049E+01 -0.97473285755E+01  0.50707299526E+02  0.51100000000E-03 0. -1.
         22    1    1    0    0    0 -0.61275624637E+02 -0.26167236554E+01  0.12029131611E+02  0.62499995397E+02  0.00000000000E+00 0. -1.
</event>
<event>
 4    1  0.1976955E-002  0.9118800E+02  0.7818608E-02  0.1130116E+00
         25   -1    0    0    0    0  0.00000000000E+00  0.00000000000E+00  0.99999998245E-14  0.12500000000E+03  0.12500000000E+03 0.  0.
        -11    1    1    0    0    0  0.42728993373E+01  0.11284766698E+01  0.35371281010E+01  0.56606010109E+01  0.51100000000E-03 0. -1.
         11    1    1    0    0    0  0.42903819136E+02  0.11340299284E+02  0.35515872482E+02  0.56839399035E+02  0.51100000000E-03 0.  1.
         22    1    1    0    0    0 -0.47176718473E+02 -0.12468775954E+02 -0.39053000583E+02  0.62499999954E+02  0.00000000000E+00 0.  1.
</event>
<event>
 4    1  0.1976955E-002  0.9118800E+02  0.7818608E-02  0.1130116E+00
         25   -1    0    0    0    0  0.00000000000E+00  0.00000000000E+00  0.99999998245E-14  0.12500000000E+03  0.12500000000E+03 0.  0.
        -11    1    1    0    0    0 -0.47214119085E+01 -0.72962552203E+01 -0.29475740941E+01  0.91768874871E+01  0.51100000000E-03 0.  1.
         11    1    1    0    0    0 -0.27434449972E+02 -0.42395312936E+02 -0.17127250932E+02  0.53323112521E+02  0.51100000000E-03 0.  1.
         22    1    1    0    0    0  0.32155861881E+02  0.49691568156E+02  0.20074825027E+02  0.62499999992E+02  0.00000000000E+00 0.  1.
</event>
<event>
 4    1  0.1976955E-002  0.9118800E+02  0.7818608E-02  0.1130116E+00
         25   -1    0    0    0    0  0.00000000000E+00  0.00000000000E+00  0.99999998245E-14  0.12500000000E+03  0.12500000000E+03 0.  0.
        -11    1    1    0    0    0  0.84383432828E-01 -0.49349853697E+00 -0.18588305244E+01  0.19250746867E+01  0.51100000000E-03 0. -1.
         11    1    1    0    0    0  0.20973144251E+02 -0.26420587144E+01  0.58693242324E+02  0.62383891741E+02  0.51100000000E-03 0.  1.
         22    1    1    0    0    0 -0.21057527684E+02  0.31355572513E+01 -0.56834411800E+02  0.60691033572E+02  0.00000000000E+00 0.  1.
</event>
<event>
 4    1  0.1976955E-002  0.9118800E+02  0.7818608E-02  0.1130116E+00
         25   -1    0    0    0    0  0.00000000000E+00  0.00000000000E+00  0.99999998245E-14  0.12500000000E+03  0.12500000000E+03 0.  0.
        -11    1    1    0    0    0  0.38931768565E+01  0.62525709457E+01 -0.63522524860E+00  0.73929007058E+01  0.51100000000E-03 0. -1.
         11    1    1    0    0    0  0.29018157004E+02  0.46608128464E+02 -0.47351155150E+01  0.55107099307E+02  0.51100000000E-03 0. -1.
         22    1    1    0    0    0 -0.32911333860E+02 -0.52860699409E+02  0.53703407636E+01  0.62499999988E+02  0.00000000000E+00 0. -1.
</event>
<event>
 4    1  0.1976955E-002  0.9118800E+02  0.7818608E-02  0.1130116E+00
         25   -1    0    0    0    0  0.00000000000E+00  0.00000000000E+00  0.99999998245E-14  0.12500000000E+03  0.12500000000E+03 0.  0.
        -11    1    1    0    0    0  0.23505183158E+01  0.48150956962E+02 -0.17734463947E+02  0.51366825914E+02  0.51100000000E-03 0.  1.
         11    1    1    0    0    0  0.50906116865E+00  0.10436176825E+02 -0.38437787668E+01  0.11133174096E+02  0.51100000000E-03 0.  1.
         22    1    1    0    0    0 -0.28595794845E+01 -0.58587133787E+02  0.21578242714E+02  0.62499999990E+02  0.00000000000E+00 0.  1.
</event>
<event>
 4    1  0.1976955E-002  0.9118800E+02  0.7818608E-02  0.1130116E+00
         25   -1    0    0    0    0  0.00000000000E+00  0.00000000000E+00  0.99999998245E-14  0.12500000000E+03  0.12500000000E+03 0.  0.
        -11    1    1    0    0    0 -0.15059239122E+02  0.37778347893E+01 -0.18614214572E+00  0.15526988368E+02  0.51100000000E-03 0. -1.
         11    1    1    0    0    0 -0.45543935968E+02  0.11484511020E+02 -0.56580452743E+00  0.46973015997E+02  0.51100000000E-03 0.  1.
         22    1    1    0    0    0  0.60603175090E+02 -0.15262345809E+02  0.75194667315E+00  0.62499995635E+02  0.00000000000E+00 0.  1.
</event>
<event>
 4    1  0.1976955E-002  0.9118800E+02  0.7818608E-02  0.1130116E+00
         25   -1    0    0    0    0  0.00000000000E+00  0.00000000000E+00  0.99999998245E-14  0.12500000000E+03  0.12500000000E+03 0.  0.
        -11    1    1    0    0    0 -0.46084086509E+02  0.37379486153E+02  0.17641475946E+02  0.61904690357E+02  0.51100000000E-03 0.  1.
         11    1    1    0    0    0 -0.44329928438E+00  0.35864802428E+00  0.17103234410E+00  0.59531083032E+00  0.51100000000E-03 0. -1.
         22    1    1    0    0    0  0.46527385794E+02 -0.37738134177E+02 -0.17812508290E+02  0.62499998812E+02  0.00000000000E+00 0.  1.
</event>
<event>
 4    1  0.1976955E-002  0.9118800E+02  0.7818608E-02  0.1130116E+00
         25   -1    0    0    0    0  0.00000000000E+00  0.00000000000E+00  0.99999998245E-14  0.12500000000E+03  0.12500000000E+03 0.  0.
        -11    1    1    0    0    0 -0.42577479620E+01  0.22196100148E+02  0.23493370265E+02  0.32599597025E+02  0.51100000000E-03 0.  1.
         11    1    1    0    0    0 -0.39047494157E+01  0.20359426528E+02  0.21547175735E+02  0.29900402990E+02  0.51100000000E-03 0.  1.
         22    1    1    0    0    0  0.81624973777E+01 -0.42555526676E+02 -0.45040546000E+02  0.62499999985E+02  0.00000000000E+00 0.  1.
</event>
<event>
 4    1  0.1976955E-002  0.9118800E+02  0.7818608E-02  0.1130116E+00
         25   -1    0    0    0    0  0.00000000000E+00  0.00000000000E+00  0.99999998245E-14  0.12500000000E+03  0.12500000000E+03 0.  0.
        -11    1    1    0    0    0 -0.52999285130E+00  0.56726879433E+01 -0.44200859672E+01  0.72109251239E+01  0.51100000000E-03 0.  1.
         11    1    1    0    0    0  0.14727512645E+01  0.49526552852E+02 -0.24709687764E+02  0.55368015165E+02  0.51100000000E-03 0. -1.
         22    1    1    0    0    0 -0.94275841320E+00 -0.55199240795E+02  0.29129773731E+02  0.62421059711E+02  0.00000000000E+00 0. -1.
</event>
<event>
 4    1  0.1976955E-002  0.9118800E+02  0.7818608E-02  0.1130116E+00
         25   -1    0    0    0    0  0.00000000000E+00  0.00000000000E+00  0.99999998245E-14  0.12500000000E+03  0.12500000000E+03 0.  0.
        -11    1    1    0    0    0 -0.10416535327E+02 -0.23475765982E+02  0.29906332922E+02  0.39420864346E+02  0.51100000000E-03 0. -1.
         11    1    1    0    0    0 -0.60965453293E+01 -0.13745162952E+02  0.17508544614E+02  0.23079135692E+02  0.51100000000E-03 0.  1.
         22    1    1    0    0    0  0.16513080657E+02  0.37220928934E+02 -0.47414877536E+02  0.62499999962E+02  0.00000000000E+00 0. -1.
</event>
<event>
 4    1  0.1976955E-002  0.9118800E+02  0.7818608E-02  0.1130116E+00
         25   -1    0    0    0    0  0.00000000000E+00  0.00000000000E+00  0.99999998245E-14  0.12500000000E+03  0.12500000000E+03 0.  0.
        -11    1    1    0    0    0 -0.96086312338E+01 -0.86659621495E+01 -0.46202425932E+02  0.47980088124E+02  0.51100000000E-03 0. -1.
         11    1    1    0    0    0 -0.29089649346E+01 -0.26267816529E+01 -0.13980908047E+02  0.14519912153E+02  0.51100000000E-03 0.  1.
         22    1    1    0    0    0  0.12517596168E+02  0.11292743802E+02  0.60183333979E+02  0.62499999722E+02  0.00000000000E+00 0. -1.
</event>
<event>
 4    1  0.1976955E-002  0.9118800E+02  0.7818608E-02  0.1130116E+00
         25   -1    0    0    0    0  0.00000000000E+00  0.00000000000E+00  0.99999998245E-14  0.12500000000E+03  0.12500000000E+03 0.  0.
        -11    1    1    0    0    0 -0.30194958305E+02 -0.49166779976E+02  0.94720042702E+01  0.58470733067E+02  0.51100000000E-03 0. -1.
         11    1    1    0    0    0 -0.18949870194E+01 -0.34421502737E+01  0.92010257845E+00  0.40355871105E+01  0.51100000000E-03 0.  1.
         22    1    1    0    0    0  0.32089945325E+02  0.52608930250E+02 -0.10392106849E+02  0.62493679822E+02  0.00000000000E+00 0. -1.
</event>
<event>
 4    1  0.1976955E-002  0.9118800E+02  0.7818608E-02  0.1130116E+00
         25   -1    0    0    0    0  0.00000000000E+00  0.00000000000E+00  0.99999998245E-14  0.12500000000E+03  0.12500000000E+03 0.  0.
        -11    1    1    0    0    0  0.57747868919E+01  0.18391814446E+01 -0.28695231048E+01  0.67055883517E+01  0.51100000000E-03 0.  1.
         11    1    1    0    0    0  0.48709131709E+02  0.12958359573E+02 -0.23933997130E+02  0.55797265287E+02  0.51100000000E-03 0. -1.
         22    1    1    0    0    0 -0.54483918601E+02 -0.14797541018E+02  0.26803520235E+02  0.62497146361E+02  0.00000000000E+00 0. -1.
</event>
<event>
 4    1  0.1976955E-002  0.9118800E+02  0.7818608E-02  0.1130116E+00
         25   -1    0    0    0    0  0.00000000000E+00  0.00000000000E+00  0.99999998245E-14  0.12500000000E+03  0.12500000000E+03 0.  0.
        -11    1    1    0    0    0  0.13997570992E+02 -0.26735867419E+02 -0.50383888790E+02  0.58730527412E+02  0.51100000000E-03 0. -1.
         11    1    1    0    0    0  0.89921066915E+00 -0.17165756782E+01 -0.32332200973E+01  0.37694726880E+01  0.51100000000E-03 0.  1.
         22    1    1    0    0    0 -0.14896781661E+02  0.28452443097E+02  0.53617108887E+02  0.62499999900E+02  0.00000000000E+00 0. -1.
</event>
<event>
 4    1  0.1976955E-002  0.9118800E+02  0.7818608E-02  0.1130116E+00
         25   -1    0    0    0    0  0.00000000000E+00  0.00000000000E+00  0.99999998245E-14  0.12500000000E+03  0.12500000000E+03 0.  0.
        -11    1    1    0    0    0  0.63134309635E+01  0.75864126284E+01 -0.28940405623E+02  0.30577117996E+02  0.51100000000E-03 0.  1.
         11    1    1    0    0    0  0.65780174061E+01  0.79196192587E+01 -0.30217209646E+02  0.31922882722E+02  0.51100000000E-03 0.  1.
         22    1    1    0    0    0 -0.12891448370E+02 -0.15506031887E+02  0.59157615269E+02  0.62499999282E+02  0.00000000000E+00 0.  1.
</event>
<event>
 4    1  0.1976955E-002  0.9118800E+02  0.7818608E-02  0.1130116E+00
         25   -1    0    0    0    0  0.00000000000E+00  0.00000000000E+00  0.99999998245E-14  0.12500000000E+03  0.12500000000E+03 0.  0.
        -11    1    1    0    0    0 -0.28268357520E+01 -0.76766440701E+01 -0.66703449678E+01  0.10555347782E+02  0.51100000000E-03 0. -1.
         11    1    1    0    0    0 -0.13917040503E+02 -0.37790027751E+02 -0.32809704627E+02  0.51944652581E+02  0.51100000000E-03 0.  1.
         22    1    1    0    0    0  0.16743876256E+02  0.45466671821E+02  0.39480049595E+02  0.62499999637E+02  0.00000000000E+00 0.  1.
</event>
<event>
 4    1  0.1976955E-002  0.9118800E+02  0.7818608E-02  0.1130116E+00
         25   -1    0    0    0    0  0.00000000000E+00  0.00000000000E+00  0.99999998245E-14  0.12500000000E+03  0.12500000000E+03 0.  0.
        -11    1    1    0    0    0  0.12674342217E+02 -0.75247959694E+01 -0.34078880936E+00  0.14743732305E+02  0.51100000000E-03 0. -1.
         11    1    1    0    0    0  0.41051037919E+02 -0.24376576212E+02 -0.11206951531E+01  0.47756268070E+02  0.51100000000E-03 0.  1.
         22    1    1    0    0    0 -0.53725380136E+02  0.31901372182E+02  0.14614839625E+01  0.62499999625E+02  0.00000000000E+00 0.  1.
</event>
<event>
 4    1  0.1976955E-002  0.9118800E+02  0.7818608E-02  0.1130116E+00
         25   -1    0    0    0    0  0.00000000000E+00  0.00000000000E+00  0.99999998245E-14  0.12500000000E+03  0.12500000000E+03 0.  0.
        -11    1    1    0    0    0  0.28028647188E+02  0.27047423025E+02 -0.21866611343E+02  0.44668969625E+02  0.51100000000E-03 0.  1.
         11    1    1    0    0    0  0.11189141324E+02  0.10796314698E+02 -0.87285938040E+01  0.17831030387E+02  0.51100000000E-03 0.  1.
         22    1    1    0    0    0 -0.39217788512E+02 -0.37843737722E+02  0.30595205147E+02  0.62499999988E+02  0.00000000000E+00 0.  1.
</event>
<event>
 4    1  0.1976955E-002  0.9118800E+02  0.7818608E-02  0.1130116E+00
         25   -1    0    0    0    0  0.00000000000E+00  0.00000000000E+00  0.99999998245E-14  0.12500000000E+03  0.12500000000E+03 0.  0.
        -11    1    1    0    0    0  0.10478717367E+01  0.13862810067E+01 -0.64405891984E+01  0.66709069615E+01  0.51100000000E-03 0.  1.
         11    1    1    0    0    0  0.94510201217E+01  0.12494956780E+01 -0.55061994554E+02  0.55881179885E+02  0.51100000000E-03 0. -1.
         22    1    1    0    0    0 -0.10498891858E+02 -0.26357766847E+01  0.61502583753E+02  0.62447913153E+02  0.00000000000E+00 0. -1.
</event>
<event>
 4    1  0.1976955E-002  0.9118800E+02  0.7818608E-02  0.1130116E+00
         25   -1    0    0    0    0  0.00000000000E+00  0.00000000000E+00  0.99999998245E-14  0.12500000000E+03  0.12500000000E+03 0.  0.
        -11    1    1    0    0    0 -0.75310625975E+01  0.26601826973E+02 -0.37681272938E+02  0.46735986485E+02  0.51100000000E-03 0.  1.
         11    1    1    0    0    0 -0.25408719438E+01  0.89716904230E+01 -0.12710502095E+02  0.15764013545E+02  0.51100000000E-03 0. -1.
         22    1    1    0    0    0  0.10071934541E+02 -0.35573517396E+02  0.50391775033E+02  0.62499999971E+02  0.00000000000E+00 0.  1.
</event>
<event>
 4    1  0.1976955E-002  0.9118800E+02  0.7818608E-02  0.1130116E+00
         25   -1    0    0    0    0  0.00000000000E+00  0.00000000000E+00  0.99999998245E-14  0.12500000000E+03  0.12500000000E+03 0.  0.
        -11    1    1    0    0    0 -0.25700117200E+02  0.97584715229E+01 -0.22471132953E+01  0.27582119371E+02  0.51100000000E-03 0. -1.
         11    1    1    0    0    0 -0.32535861805E+02  0.12353061530E+02 -0.28421746593E+01  0.34917880657E+02  0.51100000000E-03 0.  1.
         22    1    1    0    0    0  0.58235979005E+02 -0.22111533053E+02  0.50892879546E+01  0.62499999972E+02  0.00000000000E+00 0.  1.
</event>
<event>
 4    1  0.1976955E-002  0.9118800E+02  0.7818608E-02  0.1130116E+00
         25   -1    0    0    0    0  0.00000000000E+00  0.00000000000E+00  0.99999998245E-14  0.12500000000E+03  0.12500000000E+03 0.  0.
        -11    1    1    0    0    0  0.52177723548E+02  0.24145505902E+02 -0.16588401533E+02  0.59838911718E+02  0.51100000000E-03 0. -1.
         11    1    1    0    0    0  0.23396793979E+01  0.10151292497E+01 -0.76084462248E+00  0.26614792653E+01  0.51100000000E-03 0.  1.
         22    1    1    0    0    0 -0.54517402945E+02 -0.25160635151E+02  0.17349246156E+02  0.62499609017E+02  0.00000000000E+00 0. -1.
</event>
<event>
 4    1  0.1976955E-002  0.9118800E+02  0.7818608E-02  0.1130116E+00
         25   -1    0    0    0    0  0.00000000000E+00  0.00000000000E+00  0.99999998245E-14  0.12500000000E+03  0.12500000000E+03 0.  0.
        -11    1    1    0    0    0 -0.17427643673E+02 -0.36218531878E+02  0.62216332563E+01  0.40672023997E+02  0.51100000000E-03 0. -1.
         11    1    1    0    0    0 -0.90214344454E+01 -0.20004859611E+02 -0.24177500716E+01  0.22077730934E+02  0.51100000000E-03 0.  1.
         22    1    1    0    0    0  0.26449078119E+02  0.56223391489E+02 -0.38038831847E+01  0.62250245069E+02  0.00000000000E+00 0. -1.
</event>
<event>
 4    1  0.1976955E-002  0.9118800E+02  0.7818608E-02  0.1130116E+00
         25   -1    0    0    0    0  0.00000000000E+00  0.00000000000E+00  0.99999998245E-14  0.12500000000E+03  0.12500000000E+03 0.  0.
        -11    1    1    0    0    0  0.43333002859E+01 -0.24767066025E+02 -0.18790697408E+02  0.31389096199E+02  0.51100000000E-03 0.  1.
         11    1    1    0    0    0  0.95056090963E+01 -0.22502768595E+02 -0.19473542746E+02  0.31240199521E+02  0.51100000000E-03 0. -1.
         22    1    1    0    0    0 -0.13838909382E+02  0.47269834620E+02  0.38264240154E+02  0.62370704281E+02  0.00000000000E+00 0. -1.
</event>
<event>
 4    1  0.1976955E-002  0.9118800E+02  0.7818608E-02  0.1130116E+00
         25   -1    0    0    0    0  0.00000000000E+00  0.00000000000E+00  0.99999998245E-14  0.12500000000E+03  0.12500000000E+03 0.  0.
        -11    1    1    0    0    0  0.18045262344E+01 -0.41201939935E+02 -0.81533308660E+01  0.42039659535E+02  0.51100000000E-03 0. -1.
         11    1    1    0    0    0  0.88008623137E+00 -0.20052505780E+02 -0.39683741280E+01  0.20460340498E+02  0.51100000000E-03 0.  1.
         22    1    1    0    0    0 -0.26846124657E+01  0.61254445715E+02  0.12121704994E+02  0.62499999967E+02  0.00000000000E+00 0. -1.
</event>
<event>
 4    1  0.1976955E-002  0.9118800E+02  0.7818608E-02  0.1130116E+00
         25   -1    0    0    0    0  0.00000000000E+00  0.00000000000E+00  0.99999998245E-14  0.12500000000E+03  0.12500000000E+03 0.  0.
        -11    1    1    0    0    0 -0.76258200069E+01  0.25169022223E+02  0.83815605606E+01  0.27602234840E+02  0.51100000000E-03 0. -1.
         11    1    1    0    0    0  0.10991867332E+02  0.34759269626E+02  0.18795004138E+01  0.36504253101E+02  0.51100000000E-03 0.  1.
         22    1    1    0    0    0 -0.33660473249E+01 -0.59928291850E+02 -0.10261060974E+02  0.60893512059E+02  0.00000000000E+00 0. -1.
</event>
<event>
 4    1  0.1976955E-002  0.9118800E+02  0.7818608E-02  0.1130116E+00
         25   -1    0    0    0    0  0.00000000000E+00  0.00000000000E+00  0.99999998245E-14  0.12500000000E+03  0.12500000000E+03 0.  0.
        -11    1    1    0    0    0  0.18051479500E+02  0.14693999601E+02 -0.25135858921E+02  0.34257567636E+02  0.51100000000E-03 0. -1.
         11    1    1    0    0    0  0.14880941481E+02  0.12093950968E+02 -0.20734730964E+02  0.28242435054E+02  0.51100000000E-03 0.  1.
         22    1    1    0    0    0 -0.32932420981E+02 -0.26787950569E+02  0.45870589884E+02  0.62499997310E+02  0.00000000000E+00 0.  1.
</event>
<event>
 4    1  0.1976955E-002  0.9118800E+02  0.7818608E-02  0.1130116E+00
         25   -1    0    0    0    0  0.00000000000E+00  0.00000000000E+00  0.99999998245E-14  0.12500000000E+03  0.12500000000E+03 0.  0.
        -11    1    1    0    0    0  0.21505701846E+02 -0.68312071575E+01 -0.15172620165E+02  0.27191340645E+02  0.51100000000E-03 0. -1.
         11    1    1    0    0    0  0.27925074863E+02 -0.88717271317E+01 -0.19702387611E+02  0.35308659366E+02  0.51100000000E-03 0. -1.
         22    1    1    0    0    0 -0.49430776709E+02  0.15702934289E+02  0.34875007775E+02  0.62499999989E+02  0.00000000000E+00 0. -1.
</event>
<event>
 4    1  0.1976955E-002  0.9118800E+02  0.7818608E-02  0.1130116E+00
         25   -1    0    0    0    0  0.00000000000E+00  0.00000000000E+00  0.99999998245E-14  0.12500000000E+03  0.12500000000E+03 0.  0.
        -11    1    1    0    0    0 -0.24109823051E+01  0.97929799649E+00 -0.12494894685E+01  0.28867082351E+01  0.51100000000E-03 0.  1.
         11    1    1    0    0    0 -0.49906637961E+02  0.20846496337E+02 -0.25070247792E+02  0.59613473701E+02  0.51100000000E-03 0. -1.
         22    1    1    0    0    0  0.52317620266E+02 -0.21825794334E+02  0.26319737261E+02  0.62499818064E+02  0.00000000000E+00 0. -1.
</event>
<event>
 4    1  0.1976955E-002  0.9118800E+02  0.7818608E-02  0.1130116E+00
         25   -1    0    0    0    0  0.00000000000E+00  0.00000000000E+00  0.99999998245E-14  0.12500000000E+03  0.12500000000E+03 0.  0.
        -11    1    1    0    0    0 -0.22072231468E+01 -0.11313173380E+02  0.40570075680E+00  0.11533616922E+02  0.51100000000E-03 0. -1.
         11    1    1    0    0    0 -0.10935049936E+02 -0.49742270870E+02  0.19597216469E+01  0.50967728393E+02  0.51100000000E-03 0.  1.
         22    1    1    0    0    0  0.13142273083E+02  0.61055444249E+02 -0.23654224037E+01  0.62498654685E+02  0.00000000000E+00 0.  1.
</event>
<event>
 4    1  0.1976955E-002  0.9118800E+02  0.7818608E-02  0.1130116E+00
         25   -1    0    0    0    0  0.00000000000E+00  0.00000000000E+00  0.99999998245E-14  0.12500000000E+03  0.12500000000E+03 0.  0.
        -11    1    1    0    0    0  0.47768350546E+01  0.73777017935E+01  0.57693236871E+02  0.58358874370E+02  0.51100000000E-03 0.  1.
         11    1    1    0    0    0  0.33629285477E+00  0.52935854857E+00  0.40933638220E+01  0.41411279861E+01  0.51100000000E-03 0. -1.
         22    1    1    0    0    0 -0.51131279093E+01 -0.79070603421E+01 -0.61786600693E+02  0.62499997643E+02  0.00000000000E+00 0.  1.
</event>
<event>
 4    1  0.1976955E-002  0.9118800E+02  0.7818608E-02  0.1130116E+00
         25   -1    0    0    0    0  0.00000000000E+00  0.00000000000E+00  0.99999998245E-14  0.12500000000E+03  0.12500000000E+03 0.  0.
        -11    1    1    0    0    0  0.38077773391E+02  0.19858854222E+02 -0.19239394625E+02  0.47057892252E+02  0.51100000000E-03 0.  1.
         11    1    1    0    0    0  0.12588439971E+02  0.62150565559E+01 -0.64347500735E+01  0.15443502118E+02  0.51100000000E-03 0. -1.
         22    1    1    0    0    0 -0.50666213362E+02 -0.26073910778E+02  0.25674144699E+02  0.62498605630E+02  0.00000000000E+00 0.  1.
</event>
<event>
 4    1  0.1976955E-002  0.9118800E+02  0.7818608E-02  0.1130116E+00
         25   -1    0    0    0    0  0.00000000000E+00  0.00000000000E+00  0.99999998245E-14  0.12500000000E+03  0.12500000000E+03 0.  0.
        -11    1    1    0    0    0  0.21557054320E+02 -0.27021397651E+02  0.99870468982E+00  0.34581207806E+02  0.51100000000E-03 0. -1.
         11    1    1    0    0    0  0.17402049032E+02 -0.21817001873E+02  0.80379077814E+00  0.27918792258E+02  0.51100000000E-03 0.  1.
         22    1    1    0    0    0 -0.38959103353E+02  0.48838399524E+02 -0.18024954680E+01  0.62499999936E+02  0.00000000000E+00 0. -1.
</event>
<event>
 4    1  0.1976955E-002  0.9118800E+02  0.7818608E-02  0.1130116E+00
         25   -1    0    0    0    0  0.00000000000E+00  0.00000000000E+00  0.99999998245E-14  0.12500000000E+03  0.12500000000E+03 0.  0.
        -11    1    1    0    0    0 -0.32307817438E+01  0.76102196444E+01 -0.43147154702E+01  0.93257795150E+01  0.51100000000E-03 0.  1.
         11    1    1    0    0    0 -0.11535535174E+02  0.42882019609E+02 -0.29339310419E+02  0.53223409452E+02  0.51100000000E-03 0. -1.
         22    1    1    0    0    0  0.14766316918E+02 -0.50492239254E+02  0.33654025889E+02  0.62450811033E+02  0.00000000000E+00 0. -1.
</event>
<event>
 4    1  0.1976955E-002  0.9118800E+02  0.7818608E-02  0.1130116E+00
         25   -1    0    0    0    0  0.00000000000E+00  0.00000000000E+00  0.99999998245E-14  0.12500000000E+03  0.12500000000E+03 0.  0.
        -11    1    1    0    0    0  0.27304196244E+02  0.49373371583E+02 -0.15186398538E+02  0.58428380559E+02  0.51100000000E-03 0. -1.
         11    1    1    0    0    0  0.19012516383E+01  0.34413537119E+01 -0.10584955631E+01  0.40716196139E+01  0.51100000000E-03 0.  1.
         22    1    1    0    0    0 -0.29205447883E+02 -0.52814725295E+02  0.16244894101E+02  0.62499999827E+02  0.00000000000E+00 0. -1.
</event>
<event>
 4    1  0.1976955E-002  0.9118800E+02  0.7818608E-02  0.1130116E+00
         25   -1    0    0    0    0  0.00000000000E+00  0.00000000000E+00  0.99999998245E-14  0.12500000000E+03  0.12500000000E+03 0.  0.
        -11    1    1    0    0    0 -0.12414978730E+01  0.54429060286E+01  0.95918332057E-01  0.55835242986E+01  0.51100000000E-03 0.  1.
         11    1    1    0    0    0 -0.12071098120E+02  0.55617087612E+02  0.72949859104E+00  0.56916640913E+02  0.51100000000E-03 0. -1.
         22    1    1    0    0    0  0.13312595993E+02 -0.61059993641E+02 -0.82541692310E+00  0.62499834789E+02  0.00000000000E+00 0. -1.
</event>
<event>
 4    1  0.1976955E-002  0.9118800E+02  0.7818608E-02  0.1130116E+00
         25   -1    0    0    0    0  0.00000000000E+00  0.00000000000E+00  0.99999998245E-14  0.12500000000E+03  0.12500000000E+03 0.  0.
        -11    1    1    0    0    0  0.26862831059E-01 -0.11162447464E+02 -0.41548122212E+01  0.11910643134E+02  0.51100000000E-03 0.  1.
         11    1    1    0    0    0  0.45582795606E+02 -0.17781921752E+02  0.25296474217E+02  0.55080846077E+02  0.51100000000E-03 0. -1.
         22    1    1    0    0    0 -0.45609658437E+02  0.28944369217E+02 -0.21141661996E+02  0.58008510790E+02  0.00000000000E+00 0. -1.
</event>
<event>
 4    1  0.1976955E-002  0.9118800E+02  0.7818608E-02  0.1130116E+00
         25   -1    0    0    0    0  0.00000000000E+00  0.00000000000E+00  0.99999998245E-14  0.12500000000E+03  0.12500000000E+03 0.  0.
        -11    1    1    0    0    0  0.62513189243E+01  0.48565096807E+01 -0.20928552281E+01  0.81880838931E+01  0.51100000000E-03 0. -1.
         11    1    1    0    0    0  0.41423700287E+02  0.32276610502E+02 -0.13859369000E+02  0.54311919874E+02  0.51100000000E-03 0.  1.
         22    1    1    0    0    0 -0.47675019212E+02 -0.37133120183E+02  0.15952224229E+02  0.62499996233E+02  0.00000000000E+00 0.  1.
</event>
<event>
 4    1  0.1976955E-002  0.9118800E+02  0.7818608E-02  0.1130116E+00
         25   -1    0    0    0    0  0.00000000000E+00  0.00000000000E+00  0.99999998245E-14  0.12500000000E+03  0.12500000000E+03 0.  0.
        -11    1    1    0    0    0  0.67537457069E+01  0.93007257968E+00  0.38756797699E+00  0.68284936315E+01  0.51100000000E-03 0.  1.
         11    1    1    0    0    0  0.55057931739E+02  0.76802719297E+01  0.29926983998E+01  0.55671524752E+02  0.51100000000E-03 0. -1.
         22    1    1    0    0    0 -0.61811677446E+02 -0.86103445094E+01 -0.33802663768E+01  0.62499981616E+02  0.00000000000E+00 0. -1.
</event>
<event>
 4    1  0.1976955E-002  0.9118800E+02  0.7818608E-02  0.1130116E+00
         25   -1    0    0    0    0  0.00000000000E+00  0.00000000000E+00  0.99999998245E-14  0.12500000000E+03  0.12500000000E+03 0.  0.
        -11    1    1    0    0    0 -0.15143392927E+02 -0.37223026911E+01 -0.49711076577E+01  0.16367339377E+02  0.51100000000E-03 0. -1.
         11    1    1    0    0    0 -0.42624538547E+02 -0.10720655244E+02 -0.14015918044E+02  0.46132739937E+02  0.51100000000E-03 0.  1.
         22    1    1    0    0    0  0.57767931475E+02  0.14442957935E+02  0.18987025702E+02  0.62499920686E+02  0.00000000000E+00 0. -1.
</event>
<event>
 4    1  0.1976955E-002  0.9118800E+02  0.7818608E-02  0.1130116E+00
         25   -1    0    0    0    0  0.00000000000E+00  0.00000000000E+00  0.99999998245E-14  0.12500000000E+03  0.12500000000E+03 0.  0.
        -11    1    1    0    0    0  0.54317426003E+01  0.54122003452E+01  0.47466568341E+01  0.90181201819E+01  0.51100000000E-03 0. -1.
         11    1    1    0    0    0  0.24041149087E+02  0.40803100029E+02  0.25068356631E+02  0.53584441080E+02  0.51100000000E-03 0.  1.
         22    1    1    0    0    0 -0.29472891688E+02 -0.46215300374E+02 -0.29815013466E+02  0.62397438738E+02  0.00000000000E+00 0.  1.
</event>
<event>
 4    1  0.1976955E-002  0.9118800E+02  0.7818608E-02  0.1130116E+00
         25   -1    0    0    0    0  0.00000000000E+00  0.00000000000E+00  0.99999998245E-14  0.12500000000E+03  0.12500000000E+03 0.  0.
        -11    1    1    0    0    0  0.29007325507E+02 -0.79723421548E+01 -0.49669116978E+02  0.58068962055E+02  0.51100000000E-03 0.  1.
         11    1    1    0    0    0  0.21577443057E+01 -0.69616302085E+00 -0.38077241114E+01  0.44316212169E+01  0.51100000000E-03 0. -1.
         22    1    1    0    0    0 -0.31165069812E+02  0.86685051757E+01  0.53476841090E+02  0.62499416728E+02  0.00000000000E+00 0.  1.
</event>
<event>
 4    1  0.1976955E-002  0.9118800E+02  0.7818608E-02  0.1130116E+00
         25   -1    0    0    0    0  0.00000000000E+00  0.00000000000E+00  0.99999998245E-14  0.12500000000E+03  0.12500000000E+03 0.  0.
        -11    1    1    0    0    0 -0.15859717587E+01  0.40922940943E+01  0.85448654000E+01  0.96060867338E+01  0.51100000000E-03 0. -1.
         11    1    1    0    0    0 -0.98586653974E+01  0.22379537310E+02  0.46902345373E+02  0.52894867193E+02  0.51100000000E-03 0.  1.
         22    1    1    0    0    0  0.11444637156E+02 -0.26471831404E+02 -0.55447210773E+02  0.62499046073E+02  0.00000000000E+00 0.  1.
</event>
<event>
 4    1  0.1976955E-002  0.9118800E+02  0.7818608E-02  0.1130116E+00
         25   -1    0    0    0    0  0.00000000000E+00  0.00000000000E+00  0.99999998245E-14  0.12500000000E+03  0.12500000000E+03 0.  0.
        -11    1    1    0    0    0  0.53950159943E+02  0.11257444772E+02  0.26784641946E+01  0.55177205360E+02  0.51100000000E-03 0. -1.
         11    1    1    0    0    0  0.71599993241E+01  0.14936747824E+01  0.35590263399E+00  0.73227946593E+01  0.51100000000E-03 0. -1.
         22    1    1    0    0    0 -0.61110159267E+02 -0.12751119554E+02 -0.30343668286E+01  0.62499999981E+02  0.00000000000E+00 0. -1.
</event>
<event>
 4    1  0.1976955E-002  0.9118800E+02  0.7818608E-02  0.1130116E+00
         25   -1    0    0    0    0  0.00000000000E+00  0.00000000000E+00  0.99999998245E-14  0.12500000000E+03  0.12500000000E+03 0.  0.
        -11    1    1    0    0    0 -0.93779664718E+01 -0.28133612627E+02 -0.24758394708E+01  0.29758632293E+02  0.51100000000E-03 0. -1.
         11    1    1    0    0    0 -0.10302713805E+02 -0.30958385559E+02 -0.27257426107E+01  0.32741368652E+02  0.51100000000E-03 0.  1.
         22    1    1    0    0    0  0.19680680277E+02  0.59091998186E+02  0.52015820815E+01  0.62499999055E+02  0.00000000000E+00 0.  1.
</event>
<event>
 4    1  0.1976955E-002  0.9118800E+02  0.7818608E-02  0.1130116E+00
         25   -1    0    0    0    0  0.00000000000E+00  0.00000000000E+00  0.99999998245E-14  0.12500000000E+03  0.12500000000E+03 0.  0.
        -11    1    1    0    0    0 -0.11502253656E+02 -0.55614657724E+00  0.20888208675E+02  0.23852220024E+02  0.51100000000E-03 0. -1.
         11    1    1    0    0    0 -0.18639035915E+02 -0.90351698682E+00  0.33844067373E+02  0.38647780006E+02  0.51100000000E-03 0.  1.
         22    1    1    0    0    0  0.30141289572E+02  0.14596635641E+01 -0.54732276048E+02  0.62499999969E+02  0.00000000000E+00 0.  1.
</event>
<event>
 4    1  0.1976955E-002  0.9118800E+02  0.7818608E-02  0.1130116E+00
         25   -1    0    0    0    0  0.00000000000E+00  0.00000000000E+00  0.99999998245E-14  0.12500000000E+03  0.12500000000E+03 0.  0.
        -11    1    1    0    0    0 -0.95985080888E+01 -0.34479414865E+02 -0.50505449896E+02  0.61901226777E+02  0.51100000000E-03 0.  1.
         11    1    1    0    0    0 -0.17034824625E+00 -0.36939821593E+00 -0.44455916261E+00  0.60258333624E+00  0.51100000000E-03 0. -1.
         22    1    1    0    0    0  0.97688563351E+01  0.34848813081E+02  0.50950009059E+02  0.62496189887E+02  0.00000000000E+00 0.  1.
</event>
<event>
 4    1  0.1976955E-002  0.9118800E+02  0.7818608E-02  0.1130116E+00
         25   -1    0    0    0    0  0.00000000000E+00  0.00000000000E+00  0.99999998245E-14  0.12500000000E+03  0.12500000000E+03 0.  0.
        -11    1    1    0    0    0  0.19322734904E+02 -0.54283535839E+01  0.12885551452E+01  0.20112073026E+02  0.51100000000E-03 0.  1.
         11    1    1    0    0    0  0.42603791474E+02 -0.52591765025E-01  0.18088849234E+01  0.42642207715E+02  0.51100000000E-03 0. -1.
         22    1    1    0    0    0 -0.61926526378E+02  0.54809453490E+01 -0.30974400686E+01  0.62245719259E+02  0.00000000000E+00 0. -1.
</event>
<event>
 4    1  0.1976955E-002  0.9118800E+02  0.7818608E-02  0.1130116E+00
         25   -1    0    0    0    0  0.00000000000E+00  0.00000000000E+00  0.99999998245E-14  0.12500000000E+03  0.12500000000E+03 0.  0.
        -11    1    1    0    0    0  0.77100416506E+00 -0.35054982893E+02 -0.67549624890E+00  0.35069966759E+02  0.51100000000E-03 0. -1.
         11    1    1    0    0    0  0.12315719547E+01 -0.27327278889E+02 -0.22478103624E+01  0.27447214661E+02  0.51100000000E-03 0.  1.
         22    1    1    0    0    0 -0.20025761197E+01  0.62382261782E+02  0.29233066113E+01  0.62482818580E+02  0.00000000000E+00 0. -1.
</event>
<event>
 4    1  0.1976955E-002  0.9118800E+02  0.7818608E-02  0.1130116E+00
         25   -1    0    0    0    0  0.00000000000E+00  0.00000000000E+00  0.99999998245E-14  0.12500000000E+03  0.12500000000E+03 0.  0.
        -11    1    1    0    0    0 -0.10810242729E+02 -0.36775792909E+02  0.92423245606E+01  0.39430202327E+02  0.51100000000E-03 0.  1.
         11    1    1    0    0    0 -0.63177005176E+01 -0.21510828554E+02  0.54393775040E+01  0.23069805218E+02  0.51100000000E-03 0. -1.
         22    1    1    0    0    0  0.17127943247E+02  0.58286621463E+02 -0.14681702065E+02  0.62499992456E+02  0.00000000000E+00 0.  1.
</event>
<event>
 4    1  0.1976955E-002  0.9118800E+02  0.7818608E-02  0.1130116E+00
         25   -1    0    0    0    0  0.00000000000E+00  0.00000000000E+00  0.99999998245E-14  0.12500000000E+03  0.12500000000E+03 0.  0.
        -11    1    1    0    0    0  0.33485556908E+01  0.10939220511E+02 -0.39505022358E+00  0.11447071047E+02  0.51100000000E-03 0.  1.
         11    1    1    0    0    0  0.14701410584E+02  0.48709957487E+02 -0.42649045037E+01  0.51058602039E+02  0.51100000000E-03 0. -1.
         22    1    1    0    0    0 -0.18049966275E+02 -0.59649177998E+02  0.46599547272E+01  0.62494326914E+02  0.00000000000E+00 0. -1.
</event>
<event>
 4    1  0.1976955E-002  0.9118800E+02  0.7818608E-02  0.1130116E+00
         25   -1    0    0    0    0  0.00000000000E+00  0.00000000000E+00  0.99999998245E-14  0.12500000000E+03  0.12500000000E+03 0.  0.
        -11    1    1    0    0    0  0.38679433933E+01 -0.40915137456E+01  0.18727472883E+01  0.59336880177E+01  0.51100000000E-03 0.  1.
         11    1    1    0    0    0  0.36884969700E+02 -0.38973645943E+02  0.17896975396E+02  0.56566313265E+02  0.51100000000E-03 0. -1.
         22    1    1    0    0    0 -0.40752913093E+02  0.43065159688E+02 -0.19769722684E+02  0.62499998717E+02  0.00000000000E+00 0. -1.
</event>
<event>
 4    1  0.1976955E-002  0.9118800E+02  0.7818608E-02  0.1130116E+00
         25   -1    0    0    0    0  0.00000000000E+00  0.00000000000E+00  0.99999998245E-14  0.12500000000E+03  0.12500000000E+03 0.  0.
        -11    1    1    0    0    0  0.85326947772E+00  0.96202724982E+00  0.78688995607E+00  0.15075680068E+01  0.51100000000E-03 0.  1.
         11    1    1    0    0    0  0.47737007388E+02  0.32870891031E+02  0.19111809796E+02  0.61029325946E+02  0.51100000000E-03 0. -1.
         22    1    1    0    0    0 -0.48590276865E+02 -0.33832918281E+02 -0.19898699752E+02  0.62463106047E+02  0.00000000000E+00 0. -1.
</event>
<event>
 4    1  0.1976955E-002  0.9118800E+02  0.7818608E-02  0.1130116E+00
         25   -1    0    0    0    0  0.00000000000E+00  0.00000000000E+00  0.99999998245E-14  0.12500000000E+03  0.12500000000E+03 0.  0.
        -11    1    1    0    0    0  0.11490151125E+02 -0.27257846777E+00  0.41932916256E+02  0.43479504803E+02  0.51100000000E-03 0.  1.
         11    1    1    0    0    0  0.50586570739E+01 -0.18895850885E+00  0.18334546692E+02  0.19020549922E+02  0.51100000000E-03 0. -1.
         22    1    1    0    0    0 -0.16548808199E+02  0.46153697661E+00 -0.60267462948E+02  0.62499945275E+02  0.00000000000E+00 0.  1.
</event>
<event>
 4    1  0.1976955E-002  0.9118800E+02  0.7818608E-02  0.1130116E+00
         25   -1    0    0    0    0  0.00000000000E+00  0.00000000000E+00  0.99999998245E-14  0.12500000000E+03  0.12500000000E+03 0.  0.
        -11    1    1    0    0    0  0.24459781516E+02  0.13701979266E+02  0.53410255160E+02  0.60321476310E+02  0.51100000000E-03 0.  1.
         11    1    1    0    0    0  0.86121223160E+00  0.48203574384E+00  0.19422466942E+01  0.21786159479E+01  0.51100000000E-03 0. -1.
         22    1    1    0    0    0 -0.25320993748E+02 -0.14184015010E+02 -0.55352501855E+02  0.62499907742E+02  0.00000000000E+00 0.  1.
</event>
<event>
 4    1  0.1976955E-002  0.9118800E+02  0.7818608E-02  0.1130116E+00
         25   -1    0    0    0    0  0.00000000000E+00  0.00000000000E+00  0.99999998245E-14  0.12500000000E+03  0.12500000000E+03 0.  0.
        -11    1    1    0    0    0  0.12247816794E+01  0.18227159606E+02 -0.11088292424E+02  0.21370064731E+02  0.51100000000E-03 0. -1.
         11    1    1    0    0    0  0.21412682521E+00  0.34874143684E+02 -0.21823203165E+02  0.41140052803E+02  0.51100000000E-03 0.  1.
         22    1    1    0    0    0 -0.14389085046E+01 -0.53101303290E+02  0.32911495589E+02  0.62489882466E+02  0.00000000000E+00 0.  1.
</event>
<event>
 4    1  0.1976955E-002  0.9118800E+02  0.7818608E-02  0.1130116E+00
         25   -1    0    0    0    0  0.00000000000E+00  0.00000000000E+00  0.99999998245E-14  0.12500000000E+03  0.12500000000E+03 0.  0.
        -11    1    1    0    0    0  0.33338153859E+02  0.11494464092E+02 -0.49340936692E+02  0.60647203080E+02  0.51100000000E-03 0. -1.
         11    1    1    0    0    0  0.10039298380E+01  0.34093049305E+00 -0.15195304654E+01  0.18528577433E+01  0.51100000000E-03 0.  1.
         22    1    1    0    0    0 -0.34342083697E+02 -0.11835394585E+02  0.50860467158E+02  0.62499939177E+02  0.00000000000E+00 0. -1.
</event>
<event>
 4    1  0.1976955E-002  0.9118800E+02  0.7818608E-02  0.1130116E+00
         25   -1    0    0    0    0  0.00000000000E+00  0.00000000000E+00  0.99999998245E-14  0.12500000000E+03  0.12500000000E+03 0.  0.
        -11    1    1    0    0    0 -0.40289472682E+01 -0.22569374388E+01  0.74245940327E+01  0.87436136411E+01  0.51100000000E-03 0. -1.
         11    1    1    0    0    0 -0.24770692719E+02 -0.13823896847E+02  0.45662478455E+02  0.53756388278E+02  0.51100000000E-03 0.  1.
         22    1    1    0    0    0  0.28799639987E+02  0.16080834286E+02 -0.53087072488E+02  0.62499998080E+02  0.00000000000E+00 0.  1.
</event>
<event>
 4    1  0.1976955E-002  0.9118800E+02  0.7818608E-02  0.1130116E+00
         25   -1    0    0    0    0  0.00000000000E+00  0.00000000000E+00  0.99999998245E-14  0.12500000000E+03  0.12500000000E+03 0.  0.
        -11    1    1    0    0    0 -0.10080745286E+02 -0.63598324788E+01  0.56440952470E+01  0.13188051642E+02  0.51100000000E-03 0. -1.
         11    1    1    0    0    0 -0.14570255499E+02  0.54255106913E+02  0.66215242008E+01  0.56566364161E+02  0.51100000000E-03 0.  1.
         22    1    1    0    0    0  0.24651000785E+02 -0.47895274434E+02 -0.12265619448E+02  0.55245584197E+02  0.00000000000E+00 0.  1.
</event>
<event>
 4    1  0.1976955E-002  0.9118800E+02  0.7818608E-02  0.1130116E+00
         25   -1    0    0    0    0  0.00000000000E+00  0.00000000000E+00  0.99999998245E-14  0.12500000000E+03  0.12500000000E+03 0.  0.
        -11    1    1    0    0    0 -0.19191310401E+02 -0.49744674793E+01 -0.22326438813E+01  0.19950850121E+02  0.51100000000E-03 0.  1.
         11    1    1    0    0    0 -0.40927870145E+02 -0.10612435312E+02 -0.47661119534E+01  0.42549149948E+02  0.51100000000E-03 0. -1.
         22    1    1    0    0    0  0.60119180546E+02  0.15586902791E+02  0.69987558347E+01  0.62499999931E+02  0.00000000000E+00 0. -1.
</event>
<event>
 4    1  0.1976955E-002  0.9118800E+02  0.7818608E-02  0.1130116E+00
         25   -1    0    0    0    0  0.00000000000E+00  0.00000000000E+00  0.99999998245E-14  0.12500000000E+03  0.12500000000E+03 0.  0.
        -11    1    1    0    0    0  0.10980025728E+02  0.16750937295E+01  0.29619429679E+01  0.11495216849E+02  0.51100000000E-03 0. -1.
         11    1    1    0    0    0  0.20248144995E+02 -0.30414175221E+02  0.39265593250E+02  0.53635773917E+02  0.51100000000E-03 0.  1.
         22    1    1    0    0    0 -0.31228170723E+02  0.28739081492E+02 -0.42227536218E+02  0.59869009235E+02  0.00000000000E+00 0.  1.
</event>
<event>
 4    1  0.1976955E-002  0.9118800E+02  0.7818608E-02  0.1130116E+00
         25   -1    0    0    0    0  0.00000000000E+00  0.00000000000E+00  0.99999998245E-14  0.12500000000E+03  0.12500000000E+03 0.  0.
        -11    1    1    0    0    0 -0.25166592697E+01 -0.39449737538E+01  0.14063621594E+01  0.48861279744E+01  0.51100000000E-03 0.  1.
         11    1    1    0    0    0 -0.30013374114E+02 -0.46385989409E+02  0.16337169877E+02  0.57613937194E+02  0.51100000000E-03 0. -1.
         22    1    1    0    0    0  0.32530033384E+02  0.50330963163E+02 -0.17743532036E+02  0.62499934832E+02  0.00000000000E+00 0. -1.
</event>
<event>
 4    1  0.1976955E-002  0.9118800E+02  0.7818608E-02  0.1130116E+00
         25   -1    0    0    0    0  0.00000000000E+00  0.00000000000E+00  0.99999998245E-14  0.12500000000E+03  0.12500000000E+03 0.  0.
        -11    1    1    0    0    0 -0.69075543898E+01 -0.82248104082E+00 -0.36842826853E+01  0.78717673922E+01  0.51100000000E-03 0. -1.
         11    1    1    0    0    0 -0.47903164574E+02 -0.61720490011E+01 -0.25523522503E+02  0.54628358627E+02  0.51100000000E-03 0.  1.
         22    1    1    0    0    0  0.54810718963E+02  0.69945300419E+01  0.29207805188E+02  0.62499873981E+02  0.00000000000E+00 0.  1.
</event>
<event>
 4    1  0.1976955E-002  0.9118800E+02  0.7818608E-02  0.1130116E+00
         25   -1    0    0    0    0  0.00000000000E+00  0.00000000000E+00  0.99999998245E-14  0.12500000000E+03  0.12500000000E+03 0.  0.
        -11    1    1    0    0    0  0.25998299248E+02  0.23973562093E+02  0.15989871248E+02  0.38811328578E+02  0.51100000000E-03 0.  1.
         11    1    1    0    0    0  0.15868096801E+02  0.14632483433E+02  0.97594613681E+01  0.23688671427E+02  0.51100000000E-03 0. -1.
         22    1    1    0    0    0 -0.41866396048E+02 -0.38606045526E+02 -0.25749332617E+02  0.62499999995E+02  0.00000000000E+00 0. -1.
</event>
<event>
 4    1  0.1976955E-002  0.9118800E+02  0.7818608E-02  0.1130116E+00
         25   -1    0    0    0    0  0.00000000000E+00  0.00000000000E+00  0.99999998245E-14  0.12500000000E+03  0.12500000000E+03 0.  0.
        -11    1    1    0    0    0  0.41298755709E-01  0.13656821714E+01 -0.33936321375E+01  0.36583510939E+01  0.51100000000E-03 0. -1.
         11    1    1    0    0    0  0.27738963768E+00  0.21613666518E+02 -0.54727696275E+02  0.58841722147E+02  0.51100000000E-03 0.  1.
         22    1    1    0    0    0 -0.31868839338E+00 -0.22979348689E+02  0.58121328413E+02  0.62499926759E+02  0.00000000000E+00 0.  1.
</event>
<event>
 4    1  0.1976955E-002  0.9118800E+02  0.7818608E-02  0.1130116E+00
         25   -1    0    0    0    0  0.00000000000E+00  0.00000000000E+00  0.99999998245E-14  0.12500000000E+03  0.12500000000E+03 0.  0.
        -11    1    1    0    0    0  0.30712595880E+02  0.15714007415E+02 -0.27271794714E+02  0.43976634272E+02  0.51100000000E-03 0.  1.
         11    1    1    0    0    0  0.13113000095E+02  0.67798773989E+01 -0.11191443900E+02  0.18524738213E+02  0.51100000000E-03 0. -1.
         22    1    1    0    0    0 -0.43825595975E+02 -0.22493884814E+02  0.38463238614E+02  0.62498627515E+02  0.00000000000E+00 0.  1.
</event>
<event>
 4    1  0.1976955E-002  0.9118800E+02  0.7818608E-02  0.1130116E+00
         25   -1    0    0    0    0  0.00000000000E+00  0.00000000000E+00  0.99999998245E-14  0.12500000000E+03  0.12500000000E+03 0.  0.
        -11    1    1    0    0    0  0.48521461490E+01  0.58068387920E+01 -0.23625953973E+01  0.79274558516E+01  0.51100000000E-03 0.  1.
         11    1    1    0    0    0  0.33395103547E+02  0.40004738888E+02 -0.16203419292E+02  0.54572546866E+02  0.51100000000E-03 0. -1.
         22    1    1    0    0    0 -0.38247249696E+02 -0.45811577680E+02  0.18566014690E+02  0.62499997282E+02  0.00000000000E+00 0. -1.
</event>
<event>
 4    1  0.1976955E-002  0.9118800E+02  0.7818608E-02  0.1130116E+00
         25   -1    0    0    0    0  0.00000000000E+00  0.00000000000E+00  0.99999998245E-14  0.12500000000E+03  0.12500000000E+03 0.  0.
        -11    1    1    0    0    0  0.38931416820E+02  0.79261215406E+01 -0.33173560551E+02  0.51758706883E+02  0.51100000000E-03 0.  1.
         11    1    1    0    0    0  0.81420664163E+01  0.18109437219E+01 -0.67691333530E+01  0.10742156641E+02  0.51100000000E-03 0. -1.
         22    1    1    0    0    0 -0.47073483236E+02 -0.97370652624E+01  0.39942693904E+02  0.62499136476E+02  0.00000000000E+00 0.  1.
</event>
<event>
 4    1  0.1976955E-002  0.9118800E+02  0.7818608E-02  0.1130116E+00
         25   -1    0    0    0    0  0.00000000000E+00  0.00000000000E+00  0.99999998245E-14  0.12500000000E+03  0.12500000000E+03 0.  0.
        -11    1    1    0    0    0 -0.27123331725E+02 -0.48339210214E+00  0.91473870711E+01  0.28628368488E+02  0.51100000000E-03 0.  1.
         11    1    1    0    0    0 -0.32063224616E+02 -0.79356915627E+00  0.10891271734E+02  0.33871816087E+02  0.51100000000E-03 0. -1.
         22    1    1    0    0    0  0.59186556341E+02  0.12769612584E+01 -0.20038658805E+02  0.62499815426E+02  0.00000000000E+00 0. -1.
</event>
<event>
 4    1  0.1976955E-002  0.9118800E+02  0.7818608E-02  0.1130116E+00
         25   -1    0    0    0    0  0.00000000000E+00  0.00000000000E+00  0.99999998245E-14  0.12500000000E+03  0.12500000000E+03 0.  0.
        -11    1    1    0    0    0  0.37659186980E+02 -0.19625625688E+02  0.26873233193E+02  0.50254852603E+02  0.51100000000E-03 0. -1.
         11    1    1    0    0    0  0.11664337229E+02 -0.30652980747E+01  0.34687381607E+01  0.12549301175E+02  0.51100000000E-03 0.  1.
         22    1    1    0    0    0 -0.49323524209E+02  0.22690923763E+02 -0.30341971354E+02  0.62195846222E+02  0.00000000000E+00 0. -1.
</event>
<event>
 4    1  0.1976955E-002  0.9118800E+02  0.7818608E-02  0.1130116E+00
         25   -1    0    0    0    0  0.00000000000E+00  0.00000000000E+00  0.99999998245E-14  0.12500000000E+03  0.12500000000E+03 0.  0.
        -11    1    1    0    0    0  0.19575811123E+02  0.36493428263E+02 -0.36372309399E+02  0.55117398150E+02  0.51100000000E-03 0.  1.
         11    1    1    0    0    0  0.46591619955E+01  0.65164458594E+01 -0.84864952371E+00  0.80555610242E+01  0.51100000000E-03 0. -1.
         22    1    1    0    0    0 -0.24234973118E+02 -0.43009874123E+02  0.37220958923E+02  0.61827040826E+02  0.00000000000E+00 0.  1.
</event>
<event>
 4    1  0.1976955E-002  0.9118800E+02  0.7818608E-02  0.1130116E+00
         25   -1    0    0    0    0  0.00000000000E+00  0.00000000000E+00  0.99999998245E-14  0.12500000000E+03  0.12500000000E+03 0.  0.
        -11    1    1    0    0    0 -0.88975333738E-02 -0.33167279505E+01 -0.75406405407E+01  0.82378409483E+01  0.51100000000E-03 0. -1.
         11    1    1    0    0    0 -0.70595227614E-01 -0.21839926238E+02 -0.49672875469E+02  0.54262159185E+02  0.51100000000E-03 0.  1.
         22    1    1    0    0    0  0.79492760988E-01  0.25156654189E+02  0.57213516010E+02  0.62499999867E+02  0.00000000000E+00 0.  1.
</event>
<event>
 4    1  0.1976955E-002  0.9118800E+02  0.7818608E-02  0.1130116E+00
         25   -1    0    0    0    0  0.00000000000E+00  0.00000000000E+00  0.99999998245E-14  0.12500000000E+03  0.12500000000E+03 0.  0.
        -11    1    1    0    0    0  0.43680452324E+02  0.24172403040E+01 -0.37793856896E+02  0.57811768570E+02  0.51100000000E-03 0. -1.
         11    1    1    0    0    0  0.37391324798E+01 -0.26443342104E-01 -0.28393773695E+01  0.46950905273E+01  0.51100000000E-03 0.  1.
         22    1    1    0    0    0 -0.47419584803E+02 -0.23907969619E+01  0.40633234265E+02  0.62493140903E+02  0.00000000000E+00 0. -1.
</event>
<event>
 4    1  0.1976955E-002  0.9118800E+02  0.7818608E-02  0.1130116E+00
         25   -1    0    0    0    0  0.00000000000E+00  0.00000000000E+00  0.99999998245E-14  0.12500000000E+03  0.12500000000E+03 0.  0.
        -11    1    1    0    0    0 -0.33992090191E+02  0.78851596809E+01  0.32989189409E+02  0.48020043282E+02  0.51100000000E-03 0.  1.
         11    1    1    0    0    0 -0.10349163153E+02  0.22955679977E+01  0.98642472049E+01  0.14480268768E+02  0.51100000000E-03 0. -1.
         22    1    1    0    0    0  0.44341253344E+02 -0.10180727679E+02 -0.42853436614E+02  0.62499687950E+02  0.00000000000E+00 0.  1.
</event>
<event>
 4    1  0.1976955E-002  0.9118800E+02  0.7818608E-02  0.1130116E+00
         25   -1    0    0    0    0  0.00000000000E+00  0.00000000000E+00  0.99999998245E-14  0.12500000000E+03  0.12500000000E+03 0.  0.
        -11    1    1    0    0    0  0.16221674292E+01  0.10918873278E+02  0.15802144957E+00  0.11039845645E+02  0.51100000000E-03 0.  1.
         11    1    1    0    0    0  0.75529077203E+01  0.50897843032E+02  0.71462964969E+00  0.51460154840E+02  0.51100000000E-03 0. -1.
         22    1    1    0    0    0 -0.91750751495E+01 -0.61816716310E+02 -0.87265109926E+00  0.62499999515E+02  0.00000000000E+00 0. -1.
</event>
<event>
 4    1  0.1976955E-002  0.9118800E+02  0.7818608E-02  0.1130116E+00
         25   -1    0    0    0    0  0.00000000000E+00  0.00000000000E+00  0.99999998245E-14  0.12500000000E+03  0.12500000000E+03 0.  0.
        -11    1    1    0    0    0 -0.10469776111E+02 -0.78453535345E+01 -0.73176216103E+00  0.13103482743E+02  0.51100000000E-03 0.  1.
         11    1    1    0    0    0 -0.39468067761E+02 -0.29574720635E+02 -0.27610586165E+01  0.49396517270E+02  0.51100000000E-03 0. -1.
         22    1    1    0    0    0  0.49937843872E+02  0.37420074169E+02  0.34928207775E+01  0.62499999987E+02  0.00000000000E+00 0. -1.
</event>
<event>
 4    1  0.1976955E-002  0.9118800E+02  0.7818608E-02  0.1130116E+00
         25   -1    0    0    0    0  0.00000000000E+00  0.00000000000E+00  0.99999998245E-14  0.12500000000E+03  0.12500000000E+03 0.  0.
        -11    1    1    0    0    0 -0.11287427609E+02 -0.36905297808E+01  0.50793992676E+01  0.12916126714E+02  0.51100000000E-03 0.  1.
         11    1    1    0    0    0 -0.43331404344E+02 -0.14169928361E+02  0.19497769592E+02  0.49583873301E+02  0.51100000000E-03 0.  1.
         22    1    1    0    0    0  0.54618831954E+02  0.17860458141E+02 -0.24577168860E+02  0.62499999985E+02  0.00000000000E+00 0.  1.
</event>
<event>
 4    1  0.1976955E-002  0.9118800E+02  0.7818608E-02  0.1130116E+00
         25   -1    0    0    0    0  0.00000000000E+00  0.00000000000E+00  0.99999998245E-14  0.12500000000E+03  0.12500000000E+03 0.  0.
        -11    1    1    0    0    0 -0.16071779906E+02  0.24159120774E+02  0.39929807744E+02  0.49359444615E+02  0.51100000000E-03 0. -1.
         11    1    1    0    0    0 -0.39651013272E+01  0.68288466048E+01  0.10508377617E+02  0.13144625323E+02  0.51100000000E-03 0.  1.
         22    1    1    0    0    0  0.20036881233E+02 -0.30987967379E+02 -0.50438185361E+02  0.62495930062E+02  0.00000000000E+00 0. -1.
</event>
<event>
 4    1  0.1976955E-002  0.9118800E+02  0.7818608E-02  0.1130116E+00
         25   -1    0    0    0    0  0.00000000000E+00  0.00000000000E+00  0.99999998245E-14  0.12500000000E+03  0.12500000000E+03 0.  0.
        -11    1    1    0    0    0 -0.66126632691E+01  0.17202253400E+02  0.25509988692E+00  0.18431221169E+02  0.51100000000E-03 0. -1.
         11    1    1    0    0    0 -0.16251536427E+02  0.40960576513E+02  0.46063448410E+00  0.44069189338E+02  0.51100000000E-03 0.  1.
         22    1    1    0    0    0  0.22864199696E+02 -0.58162829913E+02 -0.71573437102E+00  0.62499589494E+02  0.00000000000E+00 0.  1.
</event>
<event>
 4    1  0.1976955E-002  0.9118800E+02  0.7818608E-02  0.1130116E+00
         25   -1    0    0    0    0  0.00000000000E+00  0.00000000000E+00  0.99999998245E-14  0.12500000000E+03  0.12500000000E+03 0.  0.
        -11    1    1    0    0    0 -0.58575390816E+02 -0.25940426429E+01  0.72752189266E+01  0.59082436283E+02  0.51100000000E-03 0. -1.
         11    1    1    0    0    0 -0.33878037825E+01 -0.19852379308E+00  0.40538732371E+00  0.34177427212E+01  0.51100000000E-03 0.  1.
         22    1    1    0    0    0  0.61963194598E+02  0.27925664360E+01 -0.76806062504E+01  0.62499820996E+02  0.00000000000E+00 0. -1.
</event>
<event>
 4    1  0.1976955E-002  0.9118800E+02  0.7818608E-02  0.1130116E+00
         25   -1    0    0    0    0  0.00000000000E+00  0.00000000000E+00  0.99999998245E-14  0.12500000000E+03  0.12500000000E+03 0.  0.
        -11    1    1    0    0    0  0.11879008385E+02 -0.54250511735E+01  0.58493244997E+02  0.59933310696E+02  0.51100000000E-03 0. -1.
         11    1    1    0    0    0 -0.41673115205E+00  0.21171658788E+00  0.26242127088E+01  0.26655170922E+01  0.51100000000E-03 0.  1.
         22    1    1    0    0    0 -0.11462277233E+02  0.52133345856E+01 -0.61117457706E+02  0.62401172211E+02  0.00000000000E+00 0. -1.
</event>
<event>
 4    1  0.1976955E-002  0.9118800E+02  0.7818608E-02  0.1130116E+00
         25   -1    0    0    0    0  0.00000000000E+00  0.00000000000E+00  0.99999998245E-14  0.12500000000E+03  0.12500000000E+03 0.  0.
        -11    1    1    0    0    0  0.45641766706E+01  0.55299167494E+01 -0.16197301246E+02  0.17713391991E+02  0.51100000000E-03 0. -1.
         11    1    1    0    0    0  0.11542541056E+02  0.13766940997E+02 -0.41025463102E+02  0.44786689333E+02  0.51100000000E-03 0.  1.
         22    1    1    0    0    0 -0.16106717727E+02 -0.19296857746E+02  0.57222764348E+02  0.62499918675E+02  0.00000000000E+00 0.  1.
</event>
<event>
 4    1  0.1976955E-002  0.9118800E+02  0.7818608E-02  0.1130116E+00
         25   -1    0    0    0    0  0.00000000000E+00  0.00000000000E+00  0.99999998245E-14  0.12500000000E+03  0.12500000000E+03 0.  0.
        -11    1    1    0    0    0  0.28063362436E+02 -0.60961356904E+00 -0.14347411566E+02  0.31524151992E+02  0.51100000000E-03 0. -1.
         11    1    1    0    0    0  0.27569365529E+02 -0.54124631570E+00 -0.14111739629E+02  0.30975862520E+02  0.51100000000E-03 0.  1.
         22    1    1    0    0    0 -0.55632727965E+02  0.11508598847E+01  0.28459151194E+02  0.62499985488E+02  0.00000000000E+00 0. -1.
</event>
<event>
 4    1  0.1976955E-002  0.9118800E+02  0.7818608E-02  0.1130116E+00
         25   -1    0    0    0    0  0.00000000000E+00  0.00000000000E+00  0.99999998245E-14  0.12500000000E+03  0.12500000000E+03 0.  0.
        -11    1    1    0    0    0 -0.19041954141E+01 -0.44977424270E+02  0.21940113320E+02  0.50079568957E+02  0.51100000000E-03 0. -1.
         11    1    1    0    0    0 -0.47217509053E+00 -0.11155182734E+02  0.54411447426E+01  0.12420431052E+02  0.51100000000E-03 0. -1.
         22    1    1    0    0    0  0.23763705046E+01  0.56132607004E+02 -0.27381258062E+02  0.62499999991E+02  0.00000000000E+00 0. -1.
</event>
<event>
 4    1  0.1976955E-002  0.9118800E+02  0.7818608E-02  0.1130116E+00
         25   -1    0    0    0    0  0.00000000000E+00  0.00000000000E+00  0.99999998245E-14  0.12500000000E+03  0.12500000000E+03 0.  0.
        -11    1    1    0    0    0  0.47015158414E+00 -0.47076803999E+01 -0.21523408036E+01  0.51976791413E+01  0.51100000000E-03 0.  1.
         11    1    1    0    0    0  0.45337335719E+01 -0.43943428091E+02 -0.36627191082E+02  0.57385806079E+02  0.51100000000E-03 0. -1.
         22    1    1    0    0    0 -0.50038851560E+01  0.48651108491E+02  0.38779531886E+02  0.62416514780E+02  0.00000000000E+00 0. -1.
</event>
<event>
 4    1  0.1976955E-002  0.9118800E+02  0.7818608E-02  0.1130116E+00
         25   -1    0    0    0    0  0.00000000000E+00  0.00000000000E+00  0.99999998245E-14  0.12500000000E+03  0.12500000000E+03 0.  0.
        -11    1    1    0    0    0  0.21727013854E+02  0.15556835528E+01  0.31480832668E+02  0.38282190481E+02  0.51100000000E-03 0. -1.
         11    1    1    0    0    0  0.13745279282E+02  0.99457960353E+00  0.19914327515E+02  0.24217810218E+02  0.51100000000E-03 0.  1.
         22    1    1    0    0    0 -0.35472293135E+02 -0.25502631564E+01 -0.51395160183E+02  0.62499999301E+02  0.00000000000E+00 0. -1.
</event>
<event>
 4    1  0.1976955E-002  0.9118800E+02  0.7818608E-02  0.1130116E+00
         25   -1    0    0    0    0  0.00000000000E+00  0.00000000000E+00  0.99999998245E-14  0.12500000000E+03  0.12500000000E+03 0.  0.
        -11    1    1    0    0    0  0.81010006492E+01 -0.16507431841E+02  0.41012322515E+02  0.44945879854E+02  0.51100000000E-03 0.  1.
         11    1    1    0    0    0 -0.46150023960E+00 -0.55140138904E+01  0.16817045896E+02  0.17703964657E+02  0.51100000000E-03 0. -1.
         22    1    1    0    0    0 -0.76395004096E+01  0.22021445732E+02 -0.57829368411E+02  0.62350155489E+02  0.00000000000E+00 0.  1.
</event>
<event>
 4    1  0.1976955E-002  0.9118800E+02  0.7818608E-02  0.1130116E+00
         25   -1    0    0    0    0  0.00000000000E+00  0.00000000000E+00  0.99999998245E-14  0.12500000000E+03  0.12500000000E+03 0.  0.
        -11    1    1    0    0    0  0.68477537458E-01  0.40346361350E-01  0.45831604840E-02  0.79613243192E-01  0.51100000000E-03 0.  1.
         11    1    1    0    0    0 -0.36317191212E+02 -0.18320475790E+02  0.47431040977E+02  0.62484252889E+02  0.51100000000E-03 0. -1.
         22    1    1    0    0    0  0.36248713674E+02  0.18280129428E+02 -0.47435624138E+02  0.62436133867E+02  0.00000000000E+00 0. -1.
</event>
<event>
 4    1  0.1976955E-002  0.9118800E+02  0.7818608E-02  0.1130116E+00
         25   -1    0    0    0    0  0.00000000000E+00  0.00000000000E+00  0.99999998245E-14  0.12500000000E+03  0.12500000000E+03 0.  0.
        -11    1    1    0    0    0 -0.23148231520E+01 -0.82055895927E+00 -0.20121879053E+01  0.31749997886E+01  0.51100000000E-03 0. -1.
         11    1    1    0    0    0 -0.43246513596E+02 -0.15346687122E+02 -0.37598855234E+02  0.59325000286E+02  0.51100000000E-03 0.  1.
         22    1    1    0    0    0  0.45561336748E+02  0.16167246081E+02  0.39611043139E+02  0.62499999925E+02  0.00000000000E+00 0.  1.
</event>
<event>
 4    1  0.1976955E-002  0.9118800E+02  0.7818608E-02  0.1130116E+00
         25   -1    0    0    0    0  0.00000000000E+00  0.00000000000E+00  0.99999998245E-14  0.12500000000E+03  0.12500000000E+03 0.  0.
        -11    1    1    0    0    0 -0.11877869582E+02  0.68010779811E+01  0.12532520277E+00  0.13687737366E+02  0.51100000000E-03 0. -1.
         11    1    1    0    0    0 -0.42341092211E+02  0.24285914750E+02  0.25930630905E+00  0.48812303622E+02  0.51100000000E-03 0.  1.
         22    1    1    0    0    0  0.54218961794E+02 -0.31086992731E+02 -0.38463151182E+00  0.62499959012E+02  0.00000000000E+00 0.  1.
</event>
<event>
 4    1  0.1976955E-002  0.9118800E+02  0.7818608E-02  0.1130116E+00
         25   -1    0    0    0    0  0.00000000000E+00  0.00000000000E+00  0.99999998245E-14  0.12500000000E+03  0.12500000000E+03 0.  0.
        -11    1    1    0    0    0 -0.33882908764E+01  0.41489976568E+02 -0.67573813247E+01  0.42172987484E+02  0.51100000000E-03 0.  1.
         11    1    1    0    0    0 -0.17366337744E+01  0.20010026535E+02 -0.31272549282E+01  0.20327242372E+02  0.51100000000E-03 0. -1.
         22    1    1    0    0    0  0.51249246507E+01 -0.61500003103E+02  0.98846362529E+01  0.62499770145E+02  0.00000000000E+00 0. -1.
</event>
<event>
 4    1  0.1976955E-002  0.9118800E+02  0.7818608E-02  0.1130116E+00
         25   -1    0    0    0    0  0.00000000000E+00  0.00000000000E+00  0.99999998245E-14  0.12500000000E+03  0.12500000000E+03 0.  0.
        -11    1    1    0    0    0 -0.11133083317E+02 -0.30513143010E+02 -0.48882245799E+02  0.58689619142E+02  0.51100000000E-03 0.  1.
         11    1    1    0    0    0  0.19978400844E+01  0.30406124606E+02  0.21098272152E+02  0.37062931166E+02  0.51100000000E-03 0. -1.
         22    1    1    0    0    0  0.91352432324E+01  0.10701840357E+00  0.27783973647E+02  0.29247449692E+02  0.00000000000E+00 0.  1.
</event>
<event>
 4    1  0.1976955E-002  0.9118800E+02  0.7818608E-02  0.1130116E+00
         25   -1    0    0    0    0  0.00000000000E+00  0.00000000000E+00  0.99999998245E-14  0.12500000000E+03  0.12500000000E+03 0.  0.
        -11    1    1    0    0    0  0.30961024005E+02  0.25452650912E+02  0.31749927144E+02  0.51131989203E+02  0.51100000000E-03 0. -1.
         11    1    1    0    0    0  0.68853021999E+01  0.56608879552E+01  0.70553978354E+01  0.11368011159E+02  0.51100000000E-03 0.  1.
         22    1    1    0    0    0 -0.37846326205E+02 -0.31113538867E+02 -0.38805324980E+02  0.62499999639E+02  0.00000000000E+00 0. -1.
</event>
<event>
 4    1  0.1976955E-002  0.9118800E+02  0.7818608E-02  0.1130116E+00
         25   -1    0    0    0    0  0.00000000000E+00  0.00000000000E+00  0.99999998245E-14  0.12500000000E+03  0.12500000000E+03 0.  0.
        -11    1    1    0    0    0 -0.21195566794E+01 -0.49541638557E+02  0.30320891483E+02  0.58122482157E+02  0.51100000000E-03 0. -1.
         11    1    1    0    0    0 -0.46692235479E+00 -0.37192841984E+01  0.22706025217E+01  0.43825480609E+01  0.51100000000E-03 0.  1.
         22    1    1    0    0    0  0.25864790342E+01  0.53260922756E+02 -0.32591494005E+02  0.62494969782E+02  0.00000000000E+00 0. -1.
</event>
<event>
 4    1  0.1976955E-002  0.9118800E+02  0.7818608E-02  0.1130116E+00
         25   -1    0    0    0    0  0.00000000000E+00  0.00000000000E+00  0.99999998245E-14  0.12500000000E+03  0.12500000000E+03 0.  0.
        -11    1    1    0    0    0  0.69960656781E+01 -0.26917660849E+02 -0.21030335442E+02  0.34868042813E+02  0.51100000000E-03 0.  1.
         11    1    1    0    0    0  0.50517570215E+00 -0.24601238698E+02 -0.13103358417E+02  0.27877843353E+02  0.51100000000E-03 0. -1.
         22    1    1    0    0    0 -0.75012413802E+01  0.51518899547E+02  0.34133693859E+02  0.62254113834E+02  0.00000000000E+00 0.  1.
</event>
<event>
 4    1  0.1976955E-002  0.9118800E+02  0.7818608E-02  0.1130116E+00
         25   -1    0    0    0    0  0.00000000000E+00  0.00000000000E+00  0.99999998245E-14  0.12500000000E+03  0.12500000000E+03 0.  0.
        -11    1    1    0    0    0  0.28670934519E+02 -0.13568815104E+02  0.73595963117E+01  0.32562231000E+02  0.51100000000E-03 0.  1.
         11    1    1    0    0    0  0.24514000688E+02 -0.12286314239E+02  0.12390942835E+02  0.30090284344E+02  0.51100000000E-03 0. -1.
         22    1    1    0    0    0 -0.53184935207E+02  0.25855129343E+02 -0.19750539147E+02  0.62347484656E+02  0.00000000000E+00 0.  1.
</event>
<event>
 4    1  0.1976955E-002  0.9118800E+02  0.7818608E-02  0.1130116E+00
         25   -1    0    0    0    0  0.00000000000E+00  0.00000000000E+00  0.99999998245E-14  0.12500000000E+03  0.12500000000E+03 0.  0.
        -11    1    1    0    0    0  0.42942421666E+02  0.20330982903E+02  0.21318160153E+02  0.52075564298E+02  0.51100000000E-03 0.  1.
         11    1    1    0    0    0  0.86376822608E+01  0.40245772395E+01  0.42266237544E+01  0.10424544375E+02  0.51100000000E-03 0. -1.
         22    1    1    0    0    0 -0.51580103927E+02 -0.24355560143E+02 -0.25544783908E+02  0.62499891327E+02  0.00000000000E+00 0.  1.
</event>
<event>
 4    1  0.1976955E-002  0.9118800E+02  0.7818608E-02  0.1130116E+00
         25   -1    0    0    0    0  0.00000000000E+00  0.00000000000E+00  0.99999998245E-14  0.12500000000E+03  0.12500000000E+03 0.  0.
        -11    1    1    0    0    0  0.38160573763E+02 -0.39386984118E+02  0.19667663968E+02  0.58261315760E+02  0.51100000000E-03 0.  1.
         11    1    1    0    0    0  0.24823721565E+01 -0.25892434386E+01  0.23626965640E+01  0.42951936420E+01  0.51100000000E-03 0. -1.
         22    1    1    0    0    0 -0.40642945919E+02  0.41976227557E+02 -0.22030360532E+02  0.62443490598E+02  0.00000000000E+00 0.  1.
</event>
<event>
 4    1  0.1976955E-002  0.9118800E+02  0.7818608E-02  0.1130116E+00
         25   -1    0    0    0    0  0.00000000000E+00  0.00000000000E+00  0.99999998245E-14  0.12500000000E+03  0.12500000000E+03 0.  0.
        -11    1    1    0    0    0 -0.67553715623E+01 -0.22262207669E+01 -0.48019603735E+01  0.85819535968E+01  0.51100000000E-03 0. -1.
         11    1    1    0    0    0 -0.19270798569E+02 -0.41837886977E+01  0.55593771765E+02  0.58987585344E+02  0.51100000000E-03 0.  1.
         22    1    1    0    0    0  0.26026170131E+02  0.64100094646E+01 -0.50791811392E+02  0.57430461059E+02  0.00000000000E+00 0.  1.
</event>
<event>
 4    1  0.1976955E-002  0.9118800E+02  0.7818608E-02  0.1130116E+00
         25   -1    0    0    0    0  0.00000000000E+00  0.00000000000E+00  0.99999998245E-14  0.12500000000E+03  0.12500000000E+03 0.  0.
        -11    1    1    0    0    0 -0.21958822129E+02  0.75908452506E+01 -0.20730743583E+02  0.31137991757E+02  0.51100000000E-03 0. -1.
         11    1    1    0    0    0 -0.22116891456E+02  0.76453831122E+01 -0.20879817777E+02  0.31362008247E+02  0.51100000000E-03 0. -1.
         22    1    1    0    0    0  0.44075713585E+02 -0.15236228363E+02  0.41610561360E+02  0.62499999996E+02  0.00000000000E+00 0. -1.
</event>
<event>
 4    1  0.1976955E-002  0.9118800E+02  0.7818608E-02  0.1130116E+00
         25   -1    0    0    0    0  0.00000000000E+00  0.00000000000E+00  0.99999998245E-14  0.12500000000E+03  0.12500000000E+03 0.  0.
        -11    1    1    0    0    0  0.20605988218E+02 -0.17900324221E+02 -0.27863496833E+01  0.27437057103E+02  0.51100000000E-03 0.  1.
         11    1    1    0    0    0  0.29156436926E+02 -0.15684676491E+02  0.14919262880E+02  0.36313789337E+02  0.51100000000E-03 0. -1.
         22    1    1    0    0    0 -0.49762425145E+02  0.33585000713E+02 -0.12132913197E+02  0.61249153560E+02  0.00000000000E+00 0. -1.
</event>
<event>
 4    1  0.1976955E-002  0.9118800E+02  0.7818608E-02  0.1130116E+00
         25   -1    0    0    0    0  0.00000000000E+00  0.00000000000E+00  0.99999998245E-14  0.12500000000E+03  0.12500000000E+03 0.  0.
        -11    1    1    0    0    0 -0.61731640825E+01 -0.10120131679E+02 -0.12680927785E+02  0.17358886766E+02  0.51100000000E-03 0. -1.
         11    1    1    0    0    0  0.15522715338E+02  0.53287630161E+02 -0.12368526846E+02  0.56863931241E+02  0.51100000000E-03 0.  1.
         22    1    1    0    0    0 -0.93495512555E+01 -0.43167498482E+02  0.25049454631E+02  0.50777181993E+02  0.00000000000E+00 0.  1.
</event>
<event>
 4    1  0.1976955E-002  0.9118800E+02  0.7818608E-02  0.1130116E+00
         25   -1    0    0    0    0  0.00000000000E+00  0.00000000000E+00  0.99999998245E-14  0.12500000000E+03  0.12500000000E+03 0.  0.
        -11    1    1    0    0    0 -0.21101265032E+02 -0.89238375720E+01  0.42834852350E+02  0.48576978488E+02  0.51100000000E-03 0.  1.
         11    1    1    0    0    0 -0.60518946307E+01 -0.25576229300E+01  0.12275327758E+02  0.13923021780E+02  0.51100000000E-03 0. -1.
         22    1    1    0    0    0  0.27153159663E+02  0.11481460502E+02 -0.55110180108E+02  0.62499999731E+02  0.00000000000E+00 0.  1.
</event>
<event>
 4    1  0.1976955E-002  0.9118800E+02  0.7818608E-02  0.1130116E+00
         25   -1    0    0    0    0  0.00000000000E+00  0.00000000000E+00  0.99999998245E-14  0.12500000000E+03  0.12500000000E+03 0.  0.
        -11    1    1    0    0    0 -0.29745583713E+02  0.81097898608E+01 -0.24095393857E+01  0.30925302300E+02  0.51100000000E-03 0. -1.
         11    1    1    0    0    0 -0.29514561567E+02  0.10686220808E+02 -0.36943097304E+01  0.31606211167E+02  0.51100000000E-03 0.  1.
         22    1    1    0    0    0  0.59260145280E+02 -0.18796010669E+02  0.61038491162E+01  0.62468486533E+02  0.00000000000E+00 0.  1.
</event>
<event>
 4    1  0.1976955E-002  0.9118800E+02  0.7818608E-02  0.1130116E+00
         25   -1    0    0    0    0  0.00000000000E+00  0.00000000000E+00  0.99999998245E-14  0.12500000000E+03  0.12500000000E+03 0.  0.
        -11    1    1    0    0    0  0.15272087556E+02 -0.10167984309E+02  0.35616534922E+02  0.40064474579E+02  0.51100000000E-03 0. -1.
         11    1    1    0    0    0  0.87717070300E+01 -0.53425113196E+01  0.19947996528E+02  0.22436751929E+02  0.51100000000E-03 0.  1.
         22    1    1    0    0    0 -0.24043794586E+02  0.15510495628E+02 -0.55564531449E+02  0.62498773491E+02  0.00000000000E+00 0. -1.
</event>
<event>
 4    1  0.1976955E-002  0.9118800E+02  0.7818608E-02  0.1130116E+00
         25   -1    0    0    0    0  0.00000000000E+00  0.00000000000E+00  0.99999998245E-14  0.12500000000E+03  0.12500000000E+03 0.  0.
        -11    1    1    0    0    0  0.89906794503E+01 -0.32979929688E+01  0.52483307426E+01  0.10920350289E+02  0.51100000000E-03 0.  1.
         11    1    1    0    0    0  0.42361828155E+02 -0.15629872853E+02  0.24932826422E+02  0.51579678593E+02  0.51100000000E-03 0. -1.
         22    1    1    0    0    0 -0.51352507606E+02  0.18927865822E+02 -0.30181157164E+02  0.62499971118E+02  0.00000000000E+00 0. -1.
</event>
<event>
 4    1  0.1976955E-002  0.9118800E+02  0.7818608E-02  0.1130116E+00
         25   -1    0    0    0    0  0.00000000000E+00  0.00000000000E+00  0.99999998245E-14  0.12500000000E+03  0.12500000000E+03 0.  0.
        -11    1    1    0    0    0 -0.13978620877E+01 -0.15028173950E+01  0.20664776209E+01  0.29125261472E+01  0.51100000000E-03 0. -1.
         11    1    1    0    0    0 -0.27071756748E+02 -0.36511514999E+02  0.38546720066E+02  0.59597150679E+02  0.51100000000E-03 0.  1.
         22    1    1    0    0    0  0.28469618836E+02  0.38014332394E+02 -0.40613197687E+02  0.62490323174E+02  0.00000000000E+00 0.  1.
</event>
<event>
 4    1  0.1976955E-002  0.9118800E+02  0.7818608E-02  0.1130116E+00
         25   -1    0    0    0    0  0.00000000000E+00  0.00000000000E+00  0.99999998245E-14  0.12500000000E+03  0.12500000000E+03 0.  0.
        -11    1    1    0    0    0  0.23617204997E+02 -0.15900805330E+02 -0.10675046069E+02  0.30406653727E+02  0.51100000000E-03 0. -1.
         11    1    1    0    0    0  0.24930610495E+02 -0.16778277897E+02 -0.11266629223E+02  0.32093346400E+02  0.51100000000E-03 0.  1.
         22    1    1    0    0    0 -0.48547815492E+02  0.32679083227E+02  0.21941675291E+02  0.62499999874E+02  0.00000000000E+00 0. -1.
</event>
<event>
 4    1  0.1976955E-002  0.9118800E+02  0.7818608E-02  0.1130116E+00
         25   -1    0    0    0    0  0.00000000000E+00  0.00000000000E+00  0.99999998245E-14  0.12500000000E+03  0.12500000000E+03 0.  0.
        -11    1    1    0    0    0  0.21286595935E+02  0.55361758127E+02 -0.12300927802E+02  0.60575211551E+02  0.51100000000E-03 0.  1.
         11    1    1    0    0    0  0.67858430109E+00  0.17582039425E+01 -0.39122309565E+00  0.19247892167E+01  0.51100000000E-03 0. -1.
         22    1    1    0    0    0 -0.21965180237E+02 -0.57119962069E+02  0.12692150898E+02  0.62499999232E+02  0.00000000000E+00 0.  1.
</event>
<event>
 4    1  0.1976955E-002  0.9118800E+02  0.7818608E-02  0.1130116E+00
         25   -1    0    0    0    0  0.00000000000E+00  0.00000000000E+00  0.99999998245E-14  0.12500000000E+03  0.12500000000E+03 0.  0.
        -11    1    1    0    0    0  0.28985749682E+01  0.44421480373E+00  0.13279657325E+01  0.32190925563E+01  0.51100000000E-03 0.  1.
         11    1    1    0    0    0  0.53388406254E+02  0.81343259985E+01  0.24448657756E+02  0.59280907957E+02  0.51100000000E-03 0. -1.
         22    1    1    0    0    0 -0.56286981223E+02 -0.85785408022E+01 -0.25776623488E+02  0.62499999487E+02  0.00000000000E+00 0. -1.
</event>
<event>
 4    1  0.1976955E-002  0.9118800E+02  0.7818608E-02  0.1130116E+00
         25   -1    0    0    0    0  0.00000000000E+00  0.00000000000E+00  0.99999998245E-14  0.12500000000E+03  0.12500000000E+03 0.  0.
        -11    1    1    0    0    0  0.49691225063E+01 -0.38371682099E+02 -0.43946422000E+02  0.58552251643E+02  0.51100000000E-03 0.  1.
         11    1    1    0    0    0  0.33380158138E+00 -0.25867201862E+01 -0.29634731398E+01  0.39477484885E+01  0.51100000000E-03 0. -1.
         22    1    1    0    0    0 -0.53029240877E+01  0.40958402285E+02  0.46909895139E+02  0.62499999869E+02  0.00000000000E+00 0.  1.
</event>
<event>
 4    1  0.1976955E-002  0.9118800E+02  0.7818608E-02  0.1130116E+00
         25   -1    0    0    0    0  0.00000000000E+00  0.00000000000E+00  0.99999998245E-14  0.12500000000E+03  0.12500000000E+03 0.  0.
        -11    1    1    0    0    0  0.98449610110E+01 -0.31004356043E+00  0.12763796823E+01  0.99321966186E+01  0.51100000000E-03 0.  1.
         11    1    1    0    0    0  0.52110735612E+02 -0.15424814684E+01  0.67429016401E+01  0.52567810853E+02  0.51100000000E-03 0. -1.
         22    1    1    0    0    0 -0.61955696623E+02  0.18525250289E+01 -0.80192813224E+01  0.62499992528E+02  0.00000000000E+00 0. -1.
</event>
<event>
 4    1  0.1976955E-002  0.9118800E+02  0.7818608E-02  0.1130116E+00
         25   -1    0    0    0    0  0.00000000000E+00  0.00000000000E+00  0.99999998245E-14  0.12500000000E+03  0.12500000000E+03 0.  0.
        -11    1    1    0    0    0 -0.38718840255E+02  0.18242824808E+02 -0.94311450083E+01  0.43828024643E+02  0.51100000000E-03 0.  1.
         11    1    1    0    0    0 -0.16494936394E+02  0.77728999524E+01 -0.40176813879E+01  0.18671975372E+02  0.51100000000E-03 0. -1.
         22    1    1    0    0    0  0.55213776649E+02 -0.26015724761E+02  0.13448826396E+02  0.62499999985E+02  0.00000000000E+00 0.  1.
</event>
<event>
 4    1  0.1976955E-002  0.9118800E+02  0.7818608E-02  0.1130116E+00
         25   -1    0    0    0    0  0.00000000000E+00  0.00000000000E+00  0.99999998245E-14  0.12500000000E+03  0.12500000000E+03 0.  0.
        -11    1    1    0    0    0  0.72268306758E+01  0.43771904571E+02  0.26362230487E+02  0.51605948377E+02  0.51100000000E-03 0. -1.
         11    1    1    0    0    0  0.15758622349E+01  0.86322486183E+01  0.64955956875E+01  0.10917500702E+02  0.51100000000E-03 0.  1.
         22    1    1    0    0    0 -0.88026929107E+01 -0.52404153189E+02 -0.32857826175E+02  0.62476550920E+02  0.00000000000E+00 0. -1.
</event>
<event>
 4    1  0.1976955E-002  0.9118800E+02  0.7818608E-02  0.1130116E+00
         25   -1    0    0    0    0  0.00000000000E+00  0.00000000000E+00  0.99999998245E-14  0.12500000000E+03  0.12500000000E+03 0.  0.
        -11    1    1    0    0    0  0.25542800329E+01  0.41894950964E+01  0.37707904320E+01  0.61883015757E+01  0.51100000000E-03 0.  1.
         11    1    1    0    0    0  0.20036326419E+02  0.46754199757E+02  0.24345829007E+02  0.56392632156E+02  0.51100000000E-03 0. -1.
         22    1    1    0    0    0 -0.22590606451E+02 -0.50943694853E+02 -0.28116619439E+02  0.62419066268E+02  0.00000000000E+00 0. -1.
</event>
<event>
 4    1  0.1976955E-002  0.9118800E+02  0.7818608E-02  0.1130116E+00
         25   -1    0    0    0    0  0.00000000000E+00  0.00000000000E+00  0.99999998245E-14  0.12500000000E+03  0.12500000000E+03 0.  0.
        -11    1    1    0    0    0  0.44688409696E+02  0.25327794408E+02 -0.15034769764E+02  0.53521915445E+02  0.51100000000E-03 0. -1.
         11    1    1    0    0    0  0.76283365075E+01  0.38287554797E+01 -0.28058110004E+01  0.89846236441E+01  0.51100000000E-03 0.  1.
         22    1    1    0    0    0 -0.52316746204E+02 -0.29156549887E+02  0.17840580765E+02  0.62493460911E+02  0.00000000000E+00 0. -1.
</event>
<event>
 4    1  0.1976955E-002  0.9118800E+02  0.7818608E-02  0.1130116E+00
         25   -1    0    0    0    0  0.00000000000E+00  0.00000000000E+00  0.99999998245E-14  0.12500000000E+03  0.12500000000E+03 0.  0.
        -11    1    1    0    0    0  0.52808332244E-01  0.80835437450E+01  0.74200444513E+01  0.10972854146E+02  0.51100000000E-03 0.  1.
         11    1    1    0    0    0  0.74732962272E+00  0.40246412775E+02  0.32184104291E+02  0.51537838644E+02  0.51100000000E-03 0. -1.
         22    1    1    0    0    0 -0.80013795496E+00 -0.48329956520E+02 -0.39604148743E+02  0.62489307210E+02  0.00000000000E+00 0. -1.
</event>
<event>
 4    1  0.1976955E-002  0.9118800E+02  0.7818608E-02  0.1130116E+00
         25   -1    0    0    0    0  0.00000000000E+00  0.00000000000E+00  0.99999998245E-14  0.12500000000E+03  0.12500000000E+03 0.  0.
        -11    1    1    0    0    0  0.17757988368E+02 -0.33653912366E+02  0.21621894872E+02  0.43765720678E+02  0.51100000000E-03 0.  1.
         11    1    1    0    0    0  0.75986904648E+01 -0.14408487631E+02  0.92535731135E+01  0.18734279496E+02  0.51100000000E-03 0. -1.
         22    1    1    0    0    0 -0.25356678832E+02  0.48062399997E+02 -0.30875467985E+02  0.62499999826E+02  0.00000000000E+00 0.  1.
</event>
<event>
 4    1  0.1976955E-002  0.9118800E+02  0.7818608E-02  0.1130116E+00
         25   -1    0    0    0    0  0.00000000000E+00  0.00000000000E+00  0.99999998245E-14  0.12500000000E+03  0.12500000000E+03 0.  0.
        -11    1    1    0    0    0  0.75004173473E+01 -0.23443367894E+01 -0.92432799933E+01  0.12132205103E+02  0.51100000000E-03 0.  1.
         11    1    1    0    0    0  0.31090124354E+02 -0.99949214193E+01 -0.38346153061E+02  0.50367864174E+02  0.51100000000E-03 0. -1.
         22    1    1    0    0    0 -0.38590541702E+02  0.12339258209E+02  0.47589433055E+02  0.62499930723E+02  0.00000000000E+00 0. -1.
</event>
<event>
 4    1  0.1976955E-002  0.9118800E+02  0.7818608E-02  0.1130116E+00
         25   -1    0    0    0    0  0.00000000000E+00  0.00000000000E+00  0.99999998245E-14  0.12500000000E+03  0.12500000000E+03 0.  0.
        -11    1    1    0    0    0 -0.59529815743E+01  0.30288728484E+01 -0.14067518478E+02  0.15572640647E+02  0.51100000000E-03 0. -1.
         11    1    1    0    0    0 -0.17745157383E+02  0.90608892951E+01 -0.42487564136E+02  0.46927427287E+02  0.51100000000E-03 0.  1.
         22    1    1    0    0    0  0.23698138957E+02 -0.12089762143E+02  0.56555082613E+02  0.62499932065E+02  0.00000000000E+00 0.  1.
</event>
<event>
 4    1  0.1976955E-002  0.9118800E+02  0.7818608E-02  0.1130116E+00
         25   -1    0    0    0    0  0.00000000000E+00  0.00000000000E+00  0.99999998245E-14  0.12500000000E+03  0.12500000000E+03 0.  0.
        -11    1    1    0    0    0 -0.92437514922E+01  0.66711393574E+01 -0.62200627785E+01  0.12986155059E+02  0.51100000000E-03 0.  1.
         11    1    1    0    0    0 -0.35243018188E+02  0.25430725821E+02 -0.23724011133E+02  0.49513845046E+02  0.51100000000E-03 0. -1.
         22    1    1    0    0    0  0.44486769680E+02 -0.32101865179E+02  0.29944073911E+02  0.62499999895E+02  0.00000000000E+00 0. -1.
</event>
<event>
 4    1  0.1976955E-002  0.9118800E+02  0.7818608E-02  0.1130116E+00
         25   -1    0    0    0    0  0.00000000000E+00  0.00000000000E+00  0.99999998245E-14  0.12500000000E+03  0.12500000000E+03 0.  0.
        -11    1    1    0    0    0 -0.37986206791E+02 -0.40360540062E+01 -0.42827955342E+02  0.57388808991E+02  0.51100000000E-03 0.  1.
         11    1    1    0    0    0 -0.47893708609E+01 -0.33737681553E+01 -0.97603944504E+00  0.59391108820E+01  0.51100000000E-03 0. -1.
         22    1    1    0    0    0  0.42775577652E+02  0.74098221614E+01  0.43803994787E+02  0.61672080127E+02  0.00000000000E+00 0.  1.
</event>
<event>
 4    1  0.1976955E-002  0.9118800E+02  0.7818608E-02  0.1130116E+00
         25   -1    0    0    0    0  0.00000000000E+00  0.00000000000E+00  0.99999998245E-14  0.12500000000E+03  0.12500000000E+03 0.  0.
        -11    1    1    0    0    0 -0.96689463099E+01 -0.22452219710E+01  0.21690264169E+02  0.23853660189E+02  0.51100000000E-03 0. -1.
         11    1    1    0    0    0 -0.10724258140E+02 -0.85112462233E+01  0.36270304518E+02  0.38768363584E+02  0.51100000000E-03 0.  1.
         22    1    1    0    0    0  0.20393204450E+02  0.10756468194E+02 -0.57960568686E+02  0.62377976227E+02  0.00000000000E+00 0. -1.
</event>
<event>
 4    1  0.1976955E-002  0.9118800E+02  0.7818608E-02  0.1130116E+00
         25   -1    0    0    0    0  0.00000000000E+00  0.00000000000E+00  0.99999998245E-14  0.12500000000E+03  0.12500000000E+03 0.  0.
        -11    1    1    0    0    0  0.44875785218E+01  0.11666039266E+02  0.68465388473E+01  0.14251664029E+02  0.51100000000E-03 0. -1.
         11    1    1    0    0    0  0.18295983439E+02  0.37649820521E+02  0.24025364793E+02  0.48264584831E+02  0.51100000000E-03 0.  1.
         22    1    1    0    0    0 -0.22783561961E+02 -0.49315859787E+02 -0.30871903640E+02  0.62483751140E+02  0.00000000000E+00 0.  1.
</event>
<event>
 4    1  0.1976955E-002  0.9118800E+02  0.7818608E-02  0.1130116E+00
         25   -1    0    0    0    0  0.00000000000E+00  0.00000000000E+00  0.99999998245E-14  0.12500000000E+03  0.12500000000E+03 0.  0.
        -11    1    1    0    0    0  0.10389188652E+02 -0.17204759663E+02 -0.38161889623E+01  0.20457328622E+02  0.51100000000E-03 0. -1.
         11    1    1    0    0    0  0.21359258598E+02 -0.35351354110E+02 -0.78517566666E+01  0.42042671754E+02  0.51100000000E-03 0.  1.
         22    1    1    0    0    0 -0.31748447250E+02  0.52556113773E+02  0.11667945629E+02  0.62499999623E+02  0.00000000000E+00 0.  1.
</event>
<event>
 4    1  0.1976955E-002  0.9118800E+02  0.7818608E-02  0.1130116E+00
         25   -1    0    0    0    0  0.00000000000E+00  0.00000000000E+00  0.99999998245E-14  0.12500000000E+03  0.12500000000E+03 0.  0.
        -11    1    1    0    0    0  0.51193430161E+02 -0.22565619946E+02  0.19204265915E+02  0.59150471889E+02  0.51100000000E-03 0. -1.
         11    1    1    0    0    0  0.29573308887E+01 -0.11502798972E+01  0.10769188117E+01  0.33509258743E+01  0.51100000000E-03 0.  1.
         22    1    1    0    0    0 -0.54150761049E+02  0.23715899843E+02 -0.20281184727E+02  0.62498602236E+02  0.00000000000E+00 0. -1.
</event>
<event>
 4    1  0.1976955E-002  0.9118800E+02  0.7818608E-02  0.1130116E+00
         25   -1    0    0    0    0  0.00000000000E+00  0.00000000000E+00  0.99999998245E-14  0.12500000000E+03  0.12500000000E+03 0.  0.
        -11    1    1    0    0    0  0.13561900676E+01 -0.11871759003E+02 -0.36405321026E+01  0.12491252442E+02  0.51100000000E-03 0. -1.
         11    1    1    0    0    0  0.41807532424E+01 -0.46998325701E+02 -0.16587411613E+02  0.50014633265E+02  0.51100000000E-03 0.  1.
         22    1    1    0    0    0 -0.55369433100E+01  0.58870084704E+02  0.20227943715E+02  0.62494114293E+02  0.00000000000E+00 0.  1.
</event>
<event>
 4    1  0.1976955E-002  0.9118800E+02  0.7818608E-02  0.1130116E+00
         25   -1    0    0    0    0  0.00000000000E+00  0.00000000000E+00  0.99999998245E-14  0.12500000000E+03  0.12500000000E+03 0.  0.
        -11    1    1    0    0    0 -0.21451988695E+02 -0.83802132515E+01  0.18006113961E+02  0.29234156963E+02  0.51100000000E-03 0. -1.
         11    1    1    0    0    0 -0.24409938436E+02 -0.95369180169E+01  0.20489470797E+02  0.33265843045E+02  0.51100000000E-03 0. -1.
         22    1    1    0    0    0  0.45861927132E+02  0.17917131268E+02 -0.38495584758E+02  0.62499999991E+02  0.00000000000E+00 0. -1.
</event>
<event>
 4    1  0.1976955E-002  0.9118800E+02  0.7818608E-02  0.1130116E+00
         25   -1    0    0    0    0  0.00000000000E+00  0.00000000000E+00  0.99999998245E-14  0.12500000000E+03  0.12500000000E+03 0.  0.
        -11    1    1    0    0    0 -0.17079184466E+02 -0.16442506081E+02 -0.12513655494E+02  0.26807575839E+02  0.51100000000E-03 0. -1.
         11    1    1    0    0    0 -0.22745403561E+02 -0.21883499311E+02 -0.16664580477E+02  0.35692424518E+02  0.51100000000E-03 0.  1.
         22    1    1    0    0    0  0.39824588028E+02  0.38326005392E+02  0.29178235972E+02  0.62499999643E+02  0.00000000000E+00 0. -1.
</event>
<event>
 4    1  0.1976955E-002  0.9118800E+02  0.7818608E-02  0.1130116E+00
         25   -1    0    0    0    0  0.00000000000E+00  0.00000000000E+00  0.99999998245E-14  0.12500000000E+03  0.12500000000E+03 0.  0.
        -11    1    1    0    0    0 -0.30020180489E+02 -0.41622824285E+02 -0.26319405438E+02  0.57674793809E+02  0.51100000000E-03 0.  1.
         11    1    1    0    0    0 -0.28159601410E+00 -0.55419621972E+01  0.40053975717E+00  0.55635486579E+01  0.51100000000E-03 0. -1.
         22    1    1    0    0    0  0.30301776503E+02  0.47164786482E+02  0.25918865681E+02  0.61761657533E+02  0.00000000000E+00 0.  1.
</event>
<event>
 4    1  0.1976955E-002  0.9118800E+02  0.7818608E-02  0.1130116E+00
         25   -1    0    0    0    0  0.00000000000E+00  0.00000000000E+00  0.99999998245E-14  0.12500000000E+03  0.12500000000E+03 0.  0.
        -11    1    1    0    0    0 -0.13536090889E+02  0.10208470182E+02 -0.22718658834E+01  0.17105554503E+02  0.51100000000E-03 0.  1.
         11    1    1    0    0    0 -0.35950482537E+02  0.27059538198E+02 -0.60000202914E+01  0.45394449505E+02  0.51100000000E-03 0. -1.
         22    1    1    0    0    0  0.49486573426E+02 -0.37268008379E+02  0.82718861748E+01  0.62499995991E+02  0.00000000000E+00 0. -1.
</event>
<event>
 4    1  0.1976955E-002  0.9118800E+02  0.7818608E-02  0.1130116E+00
         25   -1    0    0    0    0  0.00000000000E+00  0.00000000000E+00  0.99999998245E-14  0.12500000000E+03  0.12500000000E+03 0.  0.
        -11    1    1    0    0    0 -0.38206443648E+00  0.76978890698E+00  0.17659969402E+01  0.19639994015E+01  0.51100000000E-03 0. -1.
         11    1    1    0    0    0 -0.11619436084E+02  0.23686709495E+02  0.54484275936E+02  0.60536004379E+02  0.51100000000E-03 0.  1.
         22    1    1    0    0    0  0.12001500521E+02 -0.24456498402E+02 -0.56250272876E+02  0.62499996220E+02  0.00000000000E+00 0.  1.
</event>
<event>
 4    1  0.1976955E-002  0.9118800E+02  0.7818608E-02  0.1130116E+00
         25   -1    0    0    0    0  0.00000000000E+00  0.00000000000E+00  0.99999998245E-14  0.12500000000E+03  0.12500000000E+03 0.  0.
        -11    1    1    0    0    0 -0.55766468776E+01  0.24950341374E+02  0.79617225856E+01  0.26776996693E+02  0.51100000000E-03 0.  1.
         11    1    1    0    0    0 -0.74799002224E+01  0.33289333645E+02  0.10583240869E+02  0.35723012603E+02  0.51100000000E-03 0. -1.
         22    1    1    0    0    0  0.13056547100E+02 -0.58239675019E+02 -0.18544963455E+02  0.62499990704E+02  0.00000000000E+00 0. -1.
</event>
<event>
 4    1  0.1976955E-002  0.9118800E+02  0.7818608E-02  0.1130116E+00
         25   -1    0    0    0    0  0.00000000000E+00  0.00000000000E+00  0.99999998245E-14  0.12500000000E+03  0.12500000000E+03 0.  0.
        -11    1    1    0    0    0  0.24062464302E+02  0.17765447752E+02 -0.73239666823E+01  0.30793730049E+02  0.51100000000E-03 0.  1.
         11    1    1    0    0    0  0.25415446449E+02  0.17941643082E+02  0.11203736131E+02  0.33066163645E+02  0.51100000000E-03 0. -1.
         22    1    1    0    0    0 -0.49477910751E+02 -0.35707090834E+02 -0.38797694483E+01  0.61140106306E+02  0.00000000000E+00 0. -1.
</event>
<event>
 4    1  0.1976955E-002  0.9118800E+02  0.7818608E-02  0.1130116E+00
         25   -1    0    0    0    0  0.00000000000E+00  0.00000000000E+00  0.99999998245E-14  0.12500000000E+03  0.12500000000E+03 0.  0.
        -11    1    1    0    0    0  0.67651396182E+01 -0.50259237675E+01  0.16866619768E+01  0.85948736265E+01  0.51100000000E-03 0.  1.
         11    1    1    0    0    0  0.41140799961E+02 -0.33217969067E+02  0.10491728203E+02  0.53908025853E+02  0.51100000000E-03 0. -1.
         22    1    1    0    0    0 -0.47905939579E+02  0.38243892835E+02 -0.12178390179E+02  0.62497100521E+02  0.00000000000E+00 0. -1.
</event>
<event>
 4    1  0.1976955E-002  0.9118800E+02  0.7818608E-02  0.1130116E+00
         25   -1    0    0    0    0  0.00000000000E+00  0.00000000000E+00  0.99999998245E-14  0.12500000000E+03  0.12500000000E+03 0.  0.
        -11    1    1    0    0    0  0.13089677810E+02 -0.30785509760E+02  0.98704960745E+01  0.34878560311E+02  0.51100000000E-03 0.  1.
         11    1    1    0    0    0  0.10375008365E+02 -0.24381358739E+02  0.78008058191E+01  0.27621441386E+02  0.51100000000E-03 0. -1.
         22    1    1    0    0    0 -0.23464686174E+02  0.55166868499E+02 -0.17671301894E+02  0.62499998303E+02  0.00000000000E+00 0.  1.
</event>
<event>
 4    1  0.1976955E-002  0.9118800E+02  0.7818608E-02  0.1130116E+00
         25   -1    0    0    0    0  0.00000000000E+00  0.00000000000E+00  0.99999998245E-14  0.12500000000E+03  0.12500000000E+03 0.  0.
        -11    1    1    0    0    0 -0.56988662006E+01 -0.22063731318E+01  0.69765352028E+01  0.92745459224E+01  0.51100000000E-03 0.  1.
         11    1    1    0    0    0 -0.28818195202E+02 -0.23445658169E+02  0.38246004394E+02  0.53319265880E+02  0.51100000000E-03 0. -1.
         22    1    1    0    0    0  0.34517061402E+02  0.25652031301E+02 -0.45222539597E+02  0.62406188197E+02  0.00000000000E+00 0. -1.
</event>
<event>
 4    1  0.1976955E-002  0.9118800E+02  0.7818608E-02  0.1130116E+00
         25   -1    0    0    0    0  0.00000000000E+00  0.00000000000E+00  0.99999998245E-14  0.12500000000E+03  0.12500000000E+03 0.  0.
        -11    1    1    0    0    0  0.12746424275E+02 -0.80808360496E+01 -0.51909075633E+02  0.54058518074E+02  0.51100000000E-03 0. -1.
         11    1    1    0    0    0  0.19921075224E+01 -0.12667051471E+01 -0.81046649950E+01  0.84414826454E+01  0.51100000000E-03 0.  1.
         22    1    1    0    0    0 -0.14738531797E+02  0.93475411967E+01  0.60013740628E+02  0.62499999281E+02  0.00000000000E+00 0. -1.
</event>
<event>
 4    1  0.1976955E-002  0.9118800E+02  0.7818608E-02  0.1130116E+00
         25   -1    0    0    0    0  0.00000000000E+00  0.00000000000E+00  0.99999998245E-14  0.12500000000E+03  0.12500000000E+03 0.  0.
        -11    1    1    0    0    0  0.24754474892E+02  0.32285113009E+01  0.14381916467E+02  0.28810533386E+02  0.51100000000E-03 0.  1.
         11    1    1    0    0    0  0.28863978105E+02  0.29255663166E+01  0.17131336139E+02  0.33692296575E+02  0.51100000000E-03 0. -1.
         22    1    1    0    0    0 -0.53618452997E+02 -0.61540776176E+01 -0.31513252606E+02  0.62497170040E+02  0.00000000000E+00 0.  1.
</event>
<event>
 4    1  0.1976955E-002  0.9118800E+02  0.7818608E-02  0.1130116E+00
         25   -1    0    0    0    0  0.00000000000E+00  0.00000000000E+00  0.99999998245E-14  0.12500000000E+03  0.12500000000E+03 0.  0.
        -11    1    1    0    0    0 -0.40330736769E+02 -0.38289410447E+02  0.21327102731E+02  0.59560831021E+02  0.51100000000E-03 0. -1.
         11    1    1    0    0    0 -0.19899875503E+01 -0.18905708145E+01  0.10509078999E+01  0.29391692925E+01  0.51100000000E-03 0.  1.
         22    1    1    0    0    0  0.42320724319E+02  0.40179981261E+02 -0.22378010630E+02  0.62499999687E+02  0.00000000000E+00 0. -1.
</event>
<event>
 4    1  0.1976955E-002  0.9118800E+02  0.7818608E-02  0.1130116E+00
         25   -1    0    0    0    0  0.00000000000E+00  0.00000000000E+00  0.99999998245E-14  0.12500000000E+03  0.12500000000E+03 0.  0.
        -11    1    1    0    0    0 -0.21494942770E+02 -0.21819779547E+02  0.33912755077E+02  0.45696939737E+02  0.51100000000E-03 0. -1.
         11    1    1    0    0    0 -0.79010742003E+01 -0.80112331202E+01  0.12479426797E+02  0.16803062907E+02  0.51100000000E-03 0.  1.
         22    1    1    0    0    0  0.29396016970E+02  0.29831012667E+02 -0.46392181874E+02  0.62499997356E+02  0.00000000000E+00 0. -1.
</event>
<event>
 4    1  0.1976955E-002  0.9118800E+02  0.7818608E-02  0.1130116E+00
         25   -1    0    0    0    0  0.00000000000E+00  0.00000000000E+00  0.99999998245E-14  0.12500000000E+03  0.12500000000E+03 0.  0.
        -11    1    1    0    0    0  0.11228493499E+02 -0.21652193625E+02  0.27351451962E+02  0.36646943661E+02  0.51100000000E-03 0. -1.
         11    1    1    0    0    0  0.74669375378E+01 -0.15517028282E+02  0.19285355857E+02  0.25854560017E+02  0.51100000000E-03 0.  1.
         22    1    1    0    0    0 -0.18695431037E+02  0.37169221907E+02 -0.46636807819E+02  0.62498496321E+02  0.00000000000E+00 0.  1.
</event>
<event>
 4    1  0.1976955E-002  0.9118800E+02  0.7818608E-02  0.1130116E+00
         25   -1    0    0    0    0  0.00000000000E+00  0.00000000000E+00  0.99999998245E-14  0.12500000000E+03  0.12500000000E+03 0.  0.
        -11    1    1    0    0    0 -0.74408114459E+01  0.61388343895E+01  0.57078864617E+01  0.11208520453E+02  0.51100000000E-03 0.  1.
         11    1    1    0    0    0 -0.34514157018E+02  0.28014485168E+02  0.25589500724E+02  0.51291919066E+02  0.51100000000E-03 0. -1.
         22    1    1    0    0    0  0.41954968464E+02 -0.34153319558E+02 -0.31297387186E+02  0.62499560481E+02  0.00000000000E+00 0.  1.
</event>
<event>
 4    1  0.1976955E-002  0.9118800E+02  0.7818608E-02  0.1130116E+00
         25   -1    0    0    0    0  0.00000000000E+00  0.00000000000E+00  0.99999998245E-14  0.12500000000E+03  0.12500000000E+03 0.  0.
        -11    1    1    0    0    0  0.11712823728E+02 -0.19246094810E+02  0.87295577361E+01  0.24162110497E+02  0.51100000000E-03 0. -1.
         11    1    1    0    0    0  0.18087020161E+02 -0.31101521130E+02  0.13248710820E+02  0.38340230224E+02  0.51100000000E-03 0.  1.
         22    1    1    0    0    0 -0.29799843889E+02  0.50347615940E+02 -0.21978268557E+02  0.62497659280E+02  0.00000000000E+00 0. -1.
</event>
<event>
 4    1  0.1976955E-002  0.9118800E+02  0.7818608E-02  0.1130116E+00
         25   -1    0    0    0    0  0.00000000000E+00  0.00000000000E+00  0.99999998245E-14  0.12500000000E+03  0.12500000000E+03 0.  0.
        -11    1    1    0    0    0 -0.33805581887E+01 -0.64733407725E+00  0.75647362931E+01  0.83109837276E+01  0.51100000000E-03 0.  1.
         11    1    1    0    0    0 -0.22037105812E+02 -0.42350815059E+01  0.49324228859E+02  0.54189016422E+02  0.51100000000E-03 0. -1.
         22    1    1    0    0    0  0.25417664001E+02  0.48824155831E+01 -0.56888965153E+02  0.62499999850E+02  0.00000000000E+00 0. -1.
</event>
<event>
 4    1  0.1976955E-002  0.9118800E+02  0.7818608E-02  0.1130116E+00
         25   -1    0    0    0    0  0.00000000000E+00  0.00000000000E+00  0.99999998245E-14  0.12500000000E+03  0.12500000000E+03 0.  0.
        -11    1    1    0    0    0 -0.40024466129E+01  0.66915749673E+01  0.32154435519E+02  0.33086318596E+02  0.51100000000E-03 0.  1.
         11    1    1    0    0    0 -0.34964196071E+01  0.59849709212E+01  0.28585331593E+02  0.29413704451E+02  0.51100000000E-03 0. -1.
         22    1    1    0    0    0  0.74988662200E+01 -0.12676545888E+02 -0.60739767112E+02  0.62499976953E+02  0.00000000000E+00 0.  1.
</event>
<event>
 4    1  0.1976955E-002  0.9118800E+02  0.7818608E-02  0.1130116E+00
         25   -1    0    0    0    0  0.00000000000E+00  0.00000000000E+00  0.99999998245E-14  0.12500000000E+03  0.12500000000E+03 0.  0.
        -11    1    1    0    0    0  0.48279869789E+02 -0.35682342856E+02  0.51364332811E+01  0.60254114927E+02  0.51100000000E-03 0. -1.
         11    1    1    0    0    0  0.17927273006E+01 -0.13410910847E+01  0.17823879756E+00  0.22459220382E+01  0.51100000000E-03 0.  1.
         22    1    1    0    0    0 -0.50072597090E+02  0.37023433940E+02 -0.53146720787E+01  0.62499963035E+02  0.00000000000E+00 0. -1.
</event>
<event>
 4    1  0.1976955E-002  0.9118800E+02  0.7818608E-02  0.1130116E+00
         25   -1    0    0    0    0  0.00000000000E+00  0.00000000000E+00  0.99999998245E-14  0.12500000000E+03  0.12500000000E+03 0.  0.
        -11    1    1    0    0    0 -0.27020959584E+02  0.14199718996E+02  0.92285579095E+01  0.31889348657E+02  0.51100000000E-03 0.  1.
         11    1    1    0    0    0 -0.27636212614E+02  0.39336061695E+01  0.13739260229E+02  0.31112710860E+02  0.51100000000E-03 0. -1.
         22    1    1    0    0    0  0.54657172197E+02 -0.18133325166E+02 -0.22967818139E+02  0.61997940484E+02  0.00000000000E+00 0.  1.
</event>
<event>
 4    1  0.1976955E-002  0.9118800E+02  0.7818608E-02  0.1130116E+00
         25   -1    0    0    0    0  0.00000000000E+00  0.00000000000E+00  0.99999998245E-14  0.12500000000E+03  0.12500000000E+03 0.  0.
        -11    1    1    0    0    0 -0.13405894353E+02 -0.37477386191E+02  0.52227647252E-01  0.39802954754E+02  0.51100000000E-03 0.  1.
         11    1    1    0    0    0 -0.76459534762E+01 -0.21370408928E+02  0.29686539268E-01  0.22697045267E+02  0.51100000000E-03 0. -1.
         22    1    1    0    0    0  0.21051847829E+02  0.58847795119E+02 -0.81914186520E-01  0.62499999979E+02  0.00000000000E+00 0.  1.
</event>
<event>
 4    1  0.1976955E-002  0.9118800E+02  0.7818608E-02  0.1130116E+00
         25   -1    0    0    0    0  0.00000000000E+00  0.00000000000E+00  0.99999998245E-14  0.12500000000E+03  0.12500000000E+03 0.  0.
        -11    1    1    0    0    0  0.73287236733E+01  0.13604614023E+02 -0.39099793614E+02  0.42042711310E+02  0.51100000000E-03 0.  1.
         11    1    1    0    0    0  0.35695085190E+01  0.66943815037E+01 -0.18998595782E+02  0.20457340412E+02  0.51100000000E-03 0. -1.
         22    1    1    0    0    0 -0.10898232192E+02 -0.20298995526E+02  0.58098389396E+02  0.62499948278E+02  0.00000000000E+00 0.  1.
</event>
<event>
 4    1  0.1976955E-002  0.9118800E+02  0.7818608E-02  0.1130116E+00
         25   -1    0    0    0    0  0.00000000000E+00  0.00000000000E+00  0.99999998245E-14  0.12500000000E+03  0.12500000000E+03 0.  0.
        -11    1    1    0    0    0  0.30013142151E+02 -0.60941631191E+01 -0.41315577411E+02  0.51428634659E+02  0.51100000000E-03 0. -1.
         11    1    1    0    0    0  0.64997705386E+01 -0.14055945170E+01 -0.88519702692E+01  0.11071589358E+02  0.51100000000E-03 0.  1.
         22    1    1    0    0    0 -0.36512912690E+02  0.74997576361E+01  0.50167547680E+02  0.62499775983E+02  0.00000000000E+00 0. -1.
</event>
<event>
 4    1  0.1976955E-002  0.9118800E+02  0.7818608E-02  0.1130116E+00
         25   -1    0    0    0    0  0.00000000000E+00  0.00000000000E+00  0.99999998245E-14  0.12500000000E+03  0.12500000000E+03 0.  0.
        -11    1    1    0    0    0  0.39484448422E+02 -0.20193669004E+02  0.18653368985E+02  0.48111891563E+02  0.51100000000E-03 0.  1.
         11    1    1    0    0    0  0.11785545001E+02 -0.60167371062E+01  0.56497623399E+01  0.14388189988E+02  0.51100000000E-03 0. -1.
         22    1    1    0    0    0 -0.51269993422E+02  0.26210406110E+02 -0.24303131325E+02  0.62499918449E+02  0.00000000000E+00 0.  1.
</event>
<event>
 4    1  0.1976955E-002  0.9118800E+02  0.7818608E-02  0.1130116E+00
         25   -1    0    0    0    0  0.00000000000E+00  0.00000000000E+00  0.99999998245E-14  0.12500000000E+03  0.12500000000E+03 0.  0.
        -11    1    1    0    0    0 -0.46550201252E+02  0.18772268778E+02  0.14450141494E+02  0.52231464666E+02  0.51100000000E-03 0. -1.
         11    1    1    0    0    0 -0.19365691747E+01  0.24532672913E+01  0.12842287554E+02  0.13217154400E+02  0.51100000000E-03 0.  1.
         22    1    1    0    0    0  0.48486770427E+02 -0.21225536069E+02 -0.27292429048E+02  0.59551380934E+02  0.00000000000E+00 0. -1.
</event>
<event>
 4    1  0.1976955E-002  0.9118800E+02  0.7818608E-02  0.1130116E+00
         25   -1    0    0    0    0  0.00000000000E+00  0.00000000000E+00  0.99999998245E-14  0.12500000000E+03  0.12500000000E+03 0.  0.
        -11    1    1    0    0    0 -0.24431240904E+02 -0.39172057101E+02  0.31691006052E+02  0.55996923617E+02  0.51100000000E-03 0.  1.
         11    1    1    0    0    0 -0.28329892826E+01 -0.45127676263E+01  0.37283691132E+01  0.65032020136E+01  0.51100000000E-03 0. -1.
         22    1    1    0    0    0  0.27264230187E+02  0.43684824728E+02 -0.35419375165E+02  0.62499874370E+02  0.00000000000E+00 0.  1.
</event>
<event>
 4    1  0.1976955E-002  0.9118800E+02  0.7818608E-02  0.1130116E+00
         25   -1    0    0    0    0  0.00000000000E+00  0.00000000000E+00  0.99999998245E-14  0.12500000000E+03  0.12500000000E+03 0.  0.
        -11    1    1    0    0    0 -0.27954274439E+02 -0.36965401925E+02  0.25211349593E+02  0.52758833833E+02  0.51100000000E-03 0. -1.
         11    1    1    0    0    0 -0.36692550951E+01 -0.83397842129E+01  0.37589056367E+01  0.98562064466E+01  0.51100000000E-03 0.  1.
         22    1    1    0    0    0  0.31623529534E+02  0.45305186138E+02 -0.28970255230E+02  0.62384959720E+02  0.00000000000E+00 0. -1.
</event>
<event>
 4    1  0.1976955E-002  0.9118800E+02  0.7818608E-02  0.1130116E+00
         25   -1    0    0    0    0  0.00000000000E+00  0.00000000000E+00  0.99999998245E-14  0.12500000000E+03  0.12500000000E+03 0.  0.
        -11    1    1    0    0    0 -0.30167889937E+01  0.10255191480E+01 -0.20858583864E+01  0.38083475189E+01  0.51100000000E-03 0. -1.
         11    1    1    0    0    0 -0.45598646462E+02  0.16748612349E+02 -0.32939766335E+02  0.58692254866E+02  0.51100000000E-03 0.  1.
         22    1    1    0    0    0  0.48615435456E+02 -0.17774131497E+02  0.35025624722E+02  0.62499397615E+02  0.00000000000E+00 0.  1.
</event>
<event>
 4    1  0.1976955E-002  0.9118800E+02  0.7818608E-02  0.1130116E+00
         25   -1    0    0    0    0  0.00000000000E+00  0.00000000000E+00  0.99999998245E-14  0.12500000000E+03  0.12500000000E+03 0.  0.
        -11    1    1    0    0    0 -0.17563070947E+01  0.64782768670E+01 -0.12154863628E+01  0.68212970274E+01  0.51100000000E-03 0. -1.
         11    1    1    0    0    0 -0.14377459139E+02  0.52868368296E+02 -0.99167721429E+01  0.55678703897E+02  0.51100000000E-03 0.  1.
         22    1    1    0    0    0  0.16133766234E+02 -0.59346645164E+02  0.11132258506E+02  0.62499999076E+02  0.00000000000E+00 0.  1.
</event>
<event>
 4    1  0.1976955E-002  0.9118800E+02  0.7818608E-02  0.1130116E+00
         25   -1    0    0    0    0  0.00000000000E+00  0.00000000000E+00  0.99999998245E-14  0.12500000000E+03  0.12500000000E+03 0.  0.
        -11    1    1    0    0    0 -0.58025321637E+01  0.23488120568E+02 -0.88546182162E+01  0.25763645925E+02  0.51100000000E-03 0. -1.
         11    1    1    0    0    0 -0.82093067930E+01  0.33546254883E+02 -0.12522756717E+02  0.36736403890E+02  0.51100000000E-03 0.  1.
         22    1    1    0    0    0  0.14011838957E+02 -0.57034375452E+02  0.21377374933E+02  0.62499950185E+02  0.00000000000E+00 0.  1.
</event>
<event>
 4    1  0.1976955E-002  0.9118800E+02  0.7818608E-02  0.1130116E+00
         25   -1    0    0    0    0  0.00000000000E+00  0.00000000000E+00  0.99999998245E-14  0.12500000000E+03  0.12500000000E+03 0.  0.
        -11    1    1    0    0    0  0.10547415990E+02  0.21344976351E+02  0.41069225754E+02  0.47471436715E+02  0.51100000000E-03 0. -1.
         11    1    1    0    0    0  0.43072224414E+01  0.71125861832E+01  0.12538035357E+02  0.15044712635E+02  0.51100000000E-03 0.  1.
         22    1    1    0    0    0 -0.14854638431E+02 -0.28457562534E+02 -0.53607261111E+02  0.62483850651E+02  0.00000000000E+00 0. -1.
</event>
<event>
 4    1  0.1976955E-002  0.9118800E+02  0.7818608E-02  0.1130116E+00
         25   -1    0    0    0    0  0.00000000000E+00  0.00000000000E+00  0.99999998245E-14  0.12500000000E+03  0.12500000000E+03 0.  0.
        -11    1    1    0    0    0  0.54756708377E+00 -0.84651972240E+01  0.72304983212E+01  0.11146277405E+02  0.51100000000E-03 0. -1.
         11    1    1    0    0    0 -0.10585692112E+02 -0.34909807174E+02  0.36388720381E+02  0.51525629405E+02  0.51100000000E-03 0.  1.
         22    1    1    0    0    0  0.10038125028E+02  0.43375004398E+02 -0.43619218702E+02  0.62328093190E+02  0.00000000000E+00 0.  1.
</event>
<event>
 4    1  0.1976955E-002  0.9118800E+02  0.7818608E-02  0.1130116E+00
         25   -1    0    0    0    0  0.00000000000E+00  0.00000000000E+00  0.99999998245E-14  0.12500000000E+03  0.12500000000E+03 0.  0.
        -11    1    1    0    0    0  0.41716738880E+02 -0.23318301571E+02 -0.76420555043E+01  0.48398662208E+02  0.51100000000E-03 0.  1.
         11    1    1    0    0    0  0.12398265353E+02 -0.63026137997E+01 -0.23516719701E+01  0.14105682748E+02  0.51100000000E-03 0. -1.
         22    1    1    0    0    0 -0.54115004233E+02  0.29620915370E+02  0.99937274744E+01  0.62495655044E+02  0.00000000000E+00 0.  1.
</event>
<event>
 4    1  0.1976955E-002  0.9118800E+02  0.7818608E-02  0.1130116E+00
         25   -1    0    0    0    0  0.00000000000E+00  0.00000000000E+00  0.99999998245E-14  0.12500000000E+03  0.12500000000E+03 0.  0.
        -11    1    1    0    0    0  0.11584502755E+02  0.13109128200E+02 -0.82411624466E+01  0.19338218765E+02  0.51100000000E-03 0. -1.
         11    1    1    0    0    0  0.25734125849E+02  0.29418326017E+02 -0.18310202995E+02  0.43161865956E+02  0.51100000000E-03 0.  1.
         22    1    1    0    0    0 -0.37318628605E+02 -0.42527454217E+02  0.26551365441E+02  0.62499915279E+02  0.00000000000E+00 0.  1.
</event>
<event>
 4    1  0.1976955E-002  0.9118800E+02  0.7818608E-02  0.1130116E+00
         25   -1    0    0    0    0  0.00000000000E+00  0.00000000000E+00  0.99999998245E-14  0.12500000000E+03  0.12500000000E+03 0.  0.
        -11    1    1    0    0    0  0.54625734029E+02 -0.37372227018E+01  0.10613707825E+02  0.55772649621E+02  0.51100000000E-03 0. -1.
         11    1    1    0    0    0  0.65870067846E+01 -0.46398356490E+00  0.12858450146E+01  0.67273573409E+01  0.51100000000E-03 0.  1.
         22    1    1    0    0    0 -0.61212740813E+02  0.42012062667E+01 -0.11899552840E+02  0.62499993038E+02  0.00000000000E+00 0. -1.
</event>
<event>
 4    1  0.1976955E-002  0.9118800E+02  0.7818608E-02  0.1130116E+00
         25   -1    0    0    0    0  0.00000000000E+00  0.00000000000E+00  0.99999998245E-14  0.12500000000E+03  0.12500000000E+03 0.  0.
        -11    1    1    0    0    0 -0.17397985522E+02  0.39604526941E+01  0.54210789354E+02  0.57071751055E+02  0.51100000000E-03 0.  1.
         11    1    1    0    0    0 -0.16540271056E+01  0.37905016429E+00  0.51562005972E+01  0.54282492162E+01  0.51100000000E-03 0. -1.
         22    1    1    0    0    0  0.19052012628E+02 -0.43395028584E+01 -0.59366989952E+02  0.62499999729E+02  0.00000000000E+00 0.  1.
</event>
<event>
 4    1  0.1976955E-002  0.9118800E+02  0.7818608E-02  0.1130116E+00
         25   -1    0    0    0    0  0.00000000000E+00  0.00000000000E+00  0.99999998245E-14  0.12500000000E+03  0.12500000000E+03 0.  0.
        -11    1    1    0    0    0 -0.23866144982E+01 -0.11076156923E+01  0.37581168259E+01  0.45876119739E+01  0.51100000000E-03 0. -1.
         11    1    1    0    0    0 -0.27097185257E+02 -0.49502875418E+02  0.15896892294E+02  0.58630225212E+02  0.51100000000E-03 0.  1.
         22    1    1    0    0    0  0.29483799756E+02  0.50610491111E+02 -0.19655009120E+02  0.61782162814E+02  0.00000000000E+00 0.  1.
</event>
<event>
 4    1  0.1976955E-002  0.9118800E+02  0.7818608E-02  0.1130116E+00
         25   -1    0    0    0    0  0.00000000000E+00  0.00000000000E+00  0.99999998245E-14  0.12500000000E+03  0.12500000000E+03 0.  0.
        -11    1    1    0    0    0 -0.27337437812E+02  0.64779892358E+01  0.20124505667E+02  0.34558581847E+02  0.51100000000E-03 0.  1.
         11    1    1    0    0    0 -0.22102655610E+02  0.52377616674E+01  0.16271487827E+02  0.27941418158E+02  0.51100000000E-03 0.  1.
         22    1    1    0    0    0  0.49440093423E+02 -0.11715750903E+02 -0.36395993494E+02  0.62499999995E+02  0.00000000000E+00 0.  1.
</event>
<event>
 4    1  0.1976955E-002  0.9118800E+02  0.7818608E-02  0.1130116E+00
         25   -1    0    0    0    0  0.00000000000E+00  0.00000000000E+00  0.99999998245E-14  0.12500000000E+03  0.12500000000E+03 0.  0.
        -11    1    1    0    0    0 -0.18888356440E+02  0.16608248279E+01  0.30067990298E+01  0.19198155869E+02  0.51100000000E-03 0.  1.
         11    1    1    0    0    0 -0.42601303290E+02  0.37419702428E+01  0.67953184352E+01  0.43301844490E+02  0.51100000000E-03 0. -1.
         22    1    1    0    0    0  0.61489659730E+02 -0.54027950706E+01 -0.98021174650E+01  0.62499999641E+02  0.00000000000E+00 0. -1.
</event>
<event>
 4    1  0.1976955E-002  0.9118800E+02  0.7818608E-02  0.1130116E+00
         25   -1    0    0    0    0  0.00000000000E+00  0.00000000000E+00  0.99999998245E-14  0.12500000000E+03  0.12500000000E+03 0.  0.
        -11    1    1    0    0    0 -0.92946937352E+01 -0.38193102745E+01  0.10146225343E+02  0.14280208387E+02  0.51100000000E-03 0. -1.
         11    1    1    0    0    0 -0.29149835158E+02 -0.77528688587E+01  0.37686403335E+02  0.48270952569E+02  0.51100000000E-03 0.  1.
         22    1    1    0    0    0  0.38444528894E+02  0.11572179133E+02 -0.47832628678E+02  0.62448839044E+02  0.00000000000E+00 0.  1.
</event>
<event>
 4    1  0.1976955E-002  0.9118800E+02  0.7818608E-02  0.1130116E+00
         25   -1    0    0    0    0  0.00000000000E+00  0.00000000000E+00  0.99999998245E-14  0.12500000000E+03  0.12500000000E+03 0.  0.
        -11    1    1    0    0    0 -0.15171514744E+01 -0.29849015053E+01  0.44710018670E+01  0.55858073318E+01  0.51100000000E-03 0.  1.
         11    1    1    0    0    0 -0.15574700378E+02 -0.29558109637E+02  0.46076215191E+02  0.56914591659E+02  0.51100000000E-03 0. -1.
         22    1    1    0    0    0  0.17091851852E+02  0.32543011142E+02 -0.50547217058E+02  0.62499601009E+02  0.00000000000E+00 0. -1.
</event>
<event>
 4    1  0.1976955E-002  0.9118800E+02  0.7818608E-02  0.1130116E+00
         25   -1    0    0    0    0  0.00000000000E+00  0.00000000000E+00  0.99999998245E-14  0.12500000000E+03  0.12500000000E+03 0.  0.
        -11    1    1    0    0    0 -0.41198658560E+02 -0.10198020001E+01 -0.16582538751E+02  0.44422404876E+02  0.51100000000E-03 0. -1.
         11    1    1    0    0    0 -0.15864204270E+02 -0.96308902793E+00 -0.87162160041E+01  0.18126581015E+02  0.51100000000E-03 0.  1.
         22    1    1    0    0    0  0.57062862830E+02  0.19828910280E+01  0.25298754755E+02  0.62451014110E+02  0.00000000000E+00 0. -1.
</event>
<event>
 4    1  0.1976955E-002  0.9118800E+02  0.7818608E-02  0.1130116E+00
         25   -1    0    0    0    0  0.00000000000E+00  0.00000000000E+00  0.99999998245E-14  0.12500000000E+03  0.12500000000E+03 0.  0.
        -11    1    1    0    0    0 -0.13294504976E+02 -0.49662256990E+02  0.11928166509E+02  0.52776555291E+02  0.51100000000E-03 0. -1.
         11    1    1    0    0    0  0.19524900797E+01 -0.97258239662E+01  0.21372833210E+01  0.10147504599E+02  0.51100000000E-03 0.  1.
         22    1    1    0    0    0  0.11342014896E+02  0.59388080956E+02 -0.14065449830E+02  0.62075940110E+02  0.00000000000E+00 0. -1.
</event>
<event>
 4    1  0.1976955E-002  0.9118800E+02  0.7818608E-02  0.1130116E+00
         25   -1    0    0    0    0  0.00000000000E+00  0.00000000000E+00  0.99999998245E-14  0.12500000000E+03  0.12500000000E+03 0.  0.
        -11    1    1    0    0    0 -0.35356793085E+01 -0.38829387358E+01  0.10430678738E+01  0.53540855661E+01  0.51100000000E-03 0. -1.
         11    1    1    0    0    0 -0.37709572159E+02 -0.41469018761E+02  0.11133923333E+02  0.57145914976E+02  0.51100000000E-03 0.  1.
         22    1    1    0    0    0  0.41245251467E+02  0.45351957497E+02 -0.12176991207E+02  0.62499999458E+02  0.00000000000E+00 0.  1.
</event>
<event>
 4    1  0.1976955E-002  0.9118800E+02  0.7818608E-02  0.1130116E+00
         25   -1    0    0    0    0  0.00000000000E+00  0.00000000000E+00  0.99999998245E-14  0.12500000000E+03  0.12500000000E+03 0.  0.
        -11    1    1    0    0    0 -0.35522071759E+01 -0.59792683793E+01  0.57288261469E+01  0.90105091673E+01  0.51100000000E-03 0.  1.
         11    1    1    0    0    0 -0.40700080040E+02 -0.29528350709E+02  0.19453507536E+02  0.53915294366E+02  0.51100000000E-03 0. -1.
         22    1    1    0    0    0  0.44252287216E+02  0.35507619089E+02 -0.25182333683E+02  0.62074196466E+02  0.00000000000E+00 0. -1.
</event>
<event>
 4    1  0.1976955E-002  0.9118800E+02  0.7818608E-02  0.1130116E+00
         25   -1    0    0    0    0  0.00000000000E+00  0.00000000000E+00  0.99999998245E-14  0.12500000000E+03  0.12500000000E+03 0.  0.
        -11    1    1    0    0    0 -0.11480326819E+00  0.35869569079E+01  0.11262510251E+02  0.11820472794E+02  0.51100000000E-03 0.  1.
         11    1    1    0    0    0 -0.49181146217E+00  0.15381356358E+02  0.48286504088E+02  0.50679527220E+02  0.51100000000E-03 0. -1.
         22    1    1    0    0    0  0.60661473036E+00 -0.18968313266E+02 -0.59549014339E+02  0.62499999987E+02  0.00000000000E+00 0. -1.
</event>
<event>
 4    1  0.1976955E-002  0.9118800E+02  0.7818608E-02  0.1130116E+00
         25   -1    0    0    0    0  0.00000000000E+00  0.00000000000E+00  0.99999998245E-14  0.12500000000E+03  0.12500000000E+03 0.  0.
        -11    1    1    0    0    0  0.11289157895E+01  0.63636205348E+01  0.16513787234E+00  0.64650899413E+01  0.51100000000E-03 0.  1.
         11    1    1    0    0    0  0.97948966682E+01  0.55153715387E+02  0.14278763146E+01  0.56034910125E+02  0.51100000000E-03 0. -1.
         22    1    1    0    0    0 -0.10923812458E+02 -0.61517335922E+02 -0.15930141869E+01  0.62499999934E+02  0.00000000000E+00 0. -1.
</event>
<event>
 4    1  0.1976955E-002  0.9118800E+02  0.7818608E-02  0.1130116E+00
         25   -1    0    0    0    0  0.00000000000E+00  0.00000000000E+00  0.99999998245E-14  0.12500000000E+03  0.12500000000E+03 0.  0.
        -11    1    1    0    0    0  0.65601791532E+01 -0.13941097113E+01  0.10062292076E+02  0.12092527217E+02  0.51100000000E-03 0.  1.
         11    1    1    0    0    0  0.27366377136E+02 -0.58198061147E+01  0.41929996894E+02  0.50407473459E+02  0.51100000000E-03 0. -1.
         22    1    1    0    0    0 -0.33926556289E+02  0.72139158259E+01 -0.51992288970E+02  0.62499999324E+02  0.00000000000E+00 0. -1.
</event>
<event>
 4    1  0.1976955E-002  0.9118800E+02  0.7818608E-02  0.1130116E+00
         25   -1    0    0    0    0  0.00000000000E+00  0.00000000000E+00  0.99999998245E-14  0.12500000000E+03  0.12500000000E+03 0.  0.
        -11    1    1    0    0    0 -0.35297934383E+01  0.29543320814E+01 -0.91664103889E+01  0.10257221819E+02  0.51100000000E-03 0. -1.
         11    1    1    0    0    0 -0.17931252648E+02  0.15119974018E+02 -0.46681527979E+02  0.52242784100E+02  0.51100000000E-03 0.  1.
         22    1    1    0    0    0  0.21461046086E+02 -0.18074306099E+02  0.55847938368E+02  0.62499994081E+02  0.00000000000E+00 0.  1.
</event>
<event>
 4    1  0.1976955E-002  0.9118800E+02  0.7818608E-02  0.1130116E+00
         25   -1    0    0    0    0  0.00000000000E+00  0.00000000000E+00  0.99999998245E-14  0.12500000000E+03  0.12500000000E+03 0.  0.
        -11    1    1    0    0    0 -0.48051348670E+00 -0.22032016223E+01  0.28186219199E+01  0.36096565471E+01  0.51100000000E-03 0. -1.
         11    1    1    0    0    0 -0.78705554858E+01 -0.35910708772E+02  0.46005955915E+02  0.58890344099E+02  0.51100000000E-03 0.  1.
         22    1    1    0    0    0  0.83510689725E+01  0.38113910394E+02 -0.48824577835E+02  0.62499999354E+02  0.00000000000E+00 0.  1.
</event>
<event>
 4    1  0.1976955E-002  0.9118800E+02  0.7818608E-02  0.1130116E+00
         25   -1    0    0    0    0  0.00000000000E+00  0.00000000000E+00  0.99999998245E-14  0.12500000000E+03  0.12500000000E+03 0.  0.
        -11    1    1    0    0    0 -0.27773587260E+01 -0.19598021207E+02 -0.72186035262E+01  0.21069038750E+02  0.51100000000E-03 0.  1.
         11    1    1    0    0    0 -0.54814800048E+01 -0.38533551985E+02 -0.14200118808E+02  0.41430962166E+02  0.51100000000E-03 0. -1.
         22    1    1    0    0    0  0.82588387309E+01  0.58131573192E+02  0.21418722334E+02  0.62499999083E+02  0.00000000000E+00 0. -1.
</event>
<event>
 4    1  0.1976955E-002  0.9118800E+02  0.7818608E-02  0.1130116E+00
         25   -1    0    0    0    0  0.00000000000E+00  0.00000000000E+00  0.99999998245E-14  0.12500000000E+03  0.12500000000E+03 0.  0.
        -11    1    1    0    0    0 -0.58002363936E+01  0.20850233297E+02 -0.26812659561E+02  0.34457128199E+02  0.51100000000E-03 0. -1.
         11    1    1    0    0    0 -0.47088713871E+01  0.16972143220E+02 -0.21821447794E+02  0.28042872522E+02  0.51100000000E-03 0.  1.
         22    1    1    0    0    0  0.10509107781E+02 -0.37822376517E+02  0.48634107354E+02  0.62499999279E+02  0.00000000000E+00 0. -1.
</event>
<event>
 4    1  0.1976955E-002  0.9118800E+02  0.7818608E-02  0.1130116E+00
         25   -1    0    0    0    0  0.00000000000E+00  0.00000000000E+00  0.99999998245E-14  0.12500000000E+03  0.12500000000E+03 0.  0.
        -11    1    1    0    0    0 -0.43322406970E+01  0.93798993492E+01 -0.35133216022E+01  0.10913031210E+02  0.51100000000E-03 0.  1.
         11    1    1    0    0    0 -0.20430345428E+02  0.44344730605E+02 -0.16654176610E+02  0.51586972634E+02  0.51100000000E-03 0. -1.
         22    1    1    0    0    0  0.24762586125E+02 -0.53724629954E+02  0.20167498212E+02  0.62499996156E+02  0.00000000000E+00 0. -1.
</event>
<event>
 4    1  0.1976955E-002  0.9118800E+02  0.7818608E-02  0.1130116E+00
         25   -1    0    0    0    0  0.00000000000E+00  0.00000000000E+00  0.99999998245E-14  0.12500000000E+03  0.12500000000E+03 0.  0.
        -11    1    1    0    0    0 -0.20942154588E+02 -0.29860295207E+01  0.21533970638E+02  0.30186124342E+02  0.51100000000E-03 0.  1.
         11    1    1    0    0    0 -0.22417746985E+02 -0.31964154121E+01  0.23052420888E+02  0.32313875664E+02  0.51100000000E-03 0.  1.
         22    1    1    0    0    0  0.43359901574E+02  0.61824449328E+01 -0.44586391526E+02  0.62499999993E+02  0.00000000000E+00 0.  1.
</event>
<event>
 4    1  0.1976955E-002  0.9118800E+02  0.7818608E-02  0.1130116E+00
         25   -1    0    0    0    0  0.00000000000E+00  0.00000000000E+00  0.99999998245E-14  0.12500000000E+03  0.12500000000E+03 0.  0.
        -11    1    1    0    0    0  0.45580686437E+02  0.37928106771E+01 -0.20241180660E+01  0.45782982025E+02  0.51100000000E-03 0.  1.
         11    1    1    0    0    0  0.16671270200E+02  0.86327104409E+00 -0.94767809438E+00  0.16720483875E+02  0.51100000000E-03 0. -1.
         22    1    1    0    0    0 -0.62251956637E+02 -0.46560817211E+01  0.29717961604E+01  0.62496534100E+02  0.00000000000E+00 0. -1.
</event>
<event>
 4    1  0.1976955E-002  0.9118800E+02  0.7818608E-02  0.1130116E+00
         25   -1    0    0    0    0  0.00000000000E+00  0.00000000000E+00  0.99999998245E-14  0.12500000000E+03  0.12500000000E+03 0.  0.
        -11    1    1    0    0    0  0.16435847344E+02  0.91837309634E+00  0.33388101219E+02  0.37225606648E+02  0.51100000000E-03 0. -1.
         11    1    1    0    0    0  0.11177815234E+02  0.67600152289E+00  0.22658229972E+02  0.25274412301E+02  0.51100000000E-03 0.  1.
         22    1    1    0    0    0 -0.27613662578E+02 -0.15943746192E+01 -0.56046331191E+02  0.62499981051E+02  0.00000000000E+00 0. -1.
</event>
<event>
 4    1  0.1976955E-002  0.9118800E+02  0.7818608E-02  0.1130116E+00
         25   -1    0    0    0    0  0.00000000000E+00  0.00000000000E+00  0.99999998245E-14  0.12500000000E+03  0.12500000000E+03 0.  0.
        -11    1    1    0    0    0 -0.82455501499E+01 -0.12434819357E+02 -0.20437927936E+02  0.25304598955E+02  0.51100000000E-03 0.  1.
         11    1    1    0    0    0 -0.12381112627E+02 -0.18215964816E+02 -0.29973322259E+02  0.37195609574E+02  0.51100000000E-03 0. -1.
         22    1    1    0    0    0  0.20626662777E+02  0.30650784173E+02  0.50411250195E+02  0.62499791471E+02  0.00000000000E+00 0. -1.
</event>
<event>
 4    1  0.1976955E-002  0.9118800E+02  0.7818608E-02  0.1130116E+00
         25   -1    0    0    0    0  0.00000000000E+00  0.00000000000E+00  0.99999998245E-14  0.12500000000E+03  0.12500000000E+03 0.  0.
        -11    1    1    0    0    0  0.22548000489E+02  0.74204867339E+01 -0.67590554978E+01  0.24681182729E+02  0.51100000000E-03 0.  1.
         11    1    1    0    0    0  0.35051338274E+02  0.10316931845E+02 -0.97756314746E+01  0.37823251691E+02  0.51100000000E-03 0. -1.
         22    1    1    0    0    0 -0.57599338763E+02 -0.17737418579E+02  0.16534686972E+02  0.62495565580E+02  0.00000000000E+00 0.  1.
</event>
<event>
 4    1  0.1976955E-002  0.9118800E+02  0.7818608E-02  0.1130116E+00
         25   -1    0    0    0    0  0.00000000000E+00  0.00000000000E+00  0.99999998245E-14  0.12500000000E+03  0.12500000000E+03 0.  0.
        -11    1    1    0    0    0 -0.80065049354E+01 -0.42586808505E+01  0.36724210430E+01  0.97840257790E+01  0.51100000000E-03 0. -1.
         11    1    1    0    0    0 -0.10631859750E+02 -0.21595907268E+02 -0.52013509053E+02  0.57313390903E+02  0.51100000000E-03 0.  1.
         22    1    1    0    0    0  0.18638364686E+02  0.25854588119E+02  0.48341088010E+02  0.57902583318E+02  0.00000000000E+00 0.  1.
</event>
<event>
 4    1  0.1976955E-002  0.9118800E+02  0.7818608E-02  0.1130116E+00
         25   -1    0    0    0    0  0.00000000000E+00  0.00000000000E+00  0.99999998245E-14  0.12500000000E+03  0.12500000000E+03 0.  0.
        -11    1    1    0    0    0 -0.17090986154E+02  0.30699061929E+02  0.21060884661E+00  0.35136570228E+02  0.51100000000E-03 0. -1.
         11    1    1    0    0    0 -0.12253517008E+02  0.24474871262E+02  0.10856953082E-01  0.27370935689E+02  0.51100000000E-03 0.  1.
         22    1    1    0    0    0  0.29344503162E+02 -0.55173933191E+02 -0.22146579970E+00  0.62492494083E+02  0.00000000000E+00 0. -1.
</event>
<event>
 4    1  0.1976955E-002  0.9118800E+02  0.7818608E-02  0.1130116E+00
         25   -1    0    0    0    0  0.00000000000E+00  0.00000000000E+00  0.99999998245E-14  0.12500000000E+03  0.12500000000E+03 0.  0.
        -11    1    1    0    0    0 -0.93411980317E+01  0.11983197161E+02  0.32096024245E+02  0.35510699338E+02  0.51100000000E-03 0. -1.
         11    1    1    0    0    0 -0.63065496661E+01  0.92550778656E+01  0.24559845056E+02  0.26992869881E+02  0.51100000000E-03 0.  1.
         22    1    1    0    0    0  0.15647747698E+02 -0.21238275026E+02 -0.56655869301E+02  0.62496430781E+02  0.00000000000E+00 0. -1.
</event>
<event>
 4    1  0.1976955E-002  0.9118800E+02  0.7818608E-02  0.1130116E+00
         25   -1    0    0    0    0  0.00000000000E+00  0.00000000000E+00  0.99999998245E-14  0.12500000000E+03  0.12500000000E+03 0.  0.
        -11    1    1    0    0    0  0.51340054007E+01  0.38261561162E+02  0.40567653139E+02  0.56000353173E+02  0.51100000000E-03 0.  1.
         11    1    1    0    0    0  0.53694080120E+00  0.44751503114E+01  0.46832150351E+01  0.64998291562E+01  0.51100000000E-03 0. -1.
         22    1    1    0    0    0 -0.56709462019E+01 -0.42736711474E+02 -0.45250868174E+02  0.62499817671E+02  0.00000000000E+00 0.  1.
</event>
<event>
 4    1  0.1976955E-002  0.9118800E+02  0.7818608E-02  0.1130116E+00
         25   -1    0    0    0    0  0.00000000000E+00  0.00000000000E+00  0.99999998245E-14  0.12500000000E+03  0.12500000000E+03 0.  0.
        -11    1    1    0    0    0 -0.29093651565E+02  0.10000416241E+02 -0.19307579682E+02  0.36321226849E+02  0.51100000000E-03 0.  1.
         11    1    1    0    0    0 -0.21272576653E+02  0.75151763790E+01 -0.13285238049E+02  0.26182015655E+02  0.51100000000E-03 0. -1.
         22    1    1    0    0    0  0.50366228218E+02 -0.17515592620E+02  0.32592817731E+02  0.62496757496E+02  0.00000000000E+00 0. -1.
</event>
<event>
 4    1  0.1976955E-002  0.9118800E+02  0.7818608E-02  0.1130116E+00
         25   -1    0    0    0    0  0.00000000000E+00  0.00000000000E+00  0.99999998245E-14  0.12500000000E+03  0.12500000000E+03 0.  0.
        -11    1    1    0    0    0  0.32200243074E+01  0.16331544250E+02  0.18392034970E+02  0.24806346864E+02  0.51100000000E-03 0.  1.
         11    1    1    0    0    0  0.48946886094E+01  0.24815357252E+02  0.27947299608E+02  0.37693653150E+02  0.51100000000E-03 0.  1.
         22    1    1    0    0    0 -0.81147129168E+01 -0.41146901503E+02 -0.46339334579E+02  0.62499999986E+02  0.00000000000E+00 0.  1.
</event>
<event>
 4    1  0.1976955E-002  0.9118800E+02  0.7818608E-02  0.1130116E+00
         25   -1    0    0    0    0  0.00000000000E+00  0.00000000000E+00  0.99999998245E-14  0.12500000000E+03  0.12500000000E+03 0.  0.
        -11    1    1    0    0    0  0.10933710269E+02  0.29479790294E+02  0.11524158546E+02  0.33487464617E+02  0.51100000000E-03 0. -1.
         11    1    1    0    0    0  0.94761013857E+01  0.25542042995E+02  0.99767114017E+01  0.29012535712E+02  0.51100000000E-03 0.  1.
         22    1    1    0    0    0 -0.20409811655E+02 -0.55021833289E+02 -0.21500869948E+02  0.62499999670E+02  0.00000000000E+00 0. -1.
</event>
<event>
 4    1  0.1976955E-002  0.9118800E+02  0.7818608E-02  0.1130116E+00
         25   -1    0    0    0    0  0.00000000000E+00  0.00000000000E+00  0.99999998245E-14  0.12500000000E+03  0.12500000000E+03 0.  0.
        -11    1    1    0    0    0 -0.54645661754E+02  0.66402400415E+01 -0.29401067652E+02  0.62407242494E+02  0.51100000000E-03 0.  1.
         11    1    1    0    0    0 -0.80882129032E-01  0.13464491891E-01 -0.43441417033E-01  0.92793475921E-01  0.51100000000E-03 0. -1.
         22    1    1    0    0    0  0.54726543883E+02 -0.66537045334E+01  0.29444509069E+02  0.62499964030E+02  0.00000000000E+00 0.  1.
</event>
<event>
 4    1  0.1976955E-002  0.9118800E+02  0.7818608E-02  0.1130116E+00
         25   -1    0    0    0    0  0.00000000000E+00  0.00000000000E+00  0.99999998245E-14  0.12500000000E+03  0.12500000000E+03 0.  0.
        -11    1    1    0    0    0  0.12000264240E+02 -0.36840354983E+01  0.16564513778E+02  0.20783685340E+02  0.51100000000E-03 0.  1.
         11    1    1    0    0    0  0.24051746878E+02 -0.74125597207E+01  0.33268884401E+02  0.41716318618E+02  0.51100000000E-03 0. -1.
         22    1    1    0    0    0 -0.36052011118E+02  0.11096595219E+02 -0.49833398179E+02  0.62499996041E+02  0.00000000000E+00 0. -1.
</event>
<event>
 4    1  0.1976955E-002  0.9118800E+02  0.7818608E-02  0.1130116E+00
         25   -1    0    0    0    0  0.00000000000E+00  0.00000000000E+00  0.99999998245E-14  0.12500000000E+03  0.12500000000E+03 0.  0.
        -11    1    1    0    0    0  0.22127648047E+02 -0.87456394185E+01  0.20122357759E+02  0.31161326978E+02  0.51100000000E-03 0. -1.
         11    1    1    0    0    0  0.22254132067E+02 -0.87955756904E+01  0.20236202243E+02  0.31338673030E+02  0.51100000000E-03 0.  1.
         22    1    1    0    0    0 -0.44381780115E+02  0.17541215109E+02 -0.40358560002E+02  0.62499999993E+02  0.00000000000E+00 0. -1.
</event>
<event>
 4    1  0.1976955E-002  0.9118800E+02  0.7818608E-02  0.1130116E+00
         25   -1    0    0    0    0  0.00000000000E+00  0.00000000000E+00  0.99999998245E-14  0.12500000000E+03  0.12500000000E+03 0.  0.
        -11    1    1    0    0    0  0.49915675248E+01 -0.13653047666E+02  0.41701437428E+01  0.15123212490E+02  0.51100000000E-03 0. -1.
         11    1    1    0    0    0  0.15636302024E+02 -0.42770713554E+02  0.13066450054E+02  0.47376787525E+02  0.51100000000E-03 0.  1.
         22    1    1    0    0    0 -0.20627869549E+02  0.56423761220E+02 -0.17236593796E+02  0.62499999985E+02  0.00000000000E+00 0.  1.
</event>
<event>
 4    1  0.1976955E-002  0.9118800E+02  0.7818608E-02  0.1130116E+00
         25   -1    0    0    0    0  0.00000000000E+00  0.00000000000E+00  0.99999998245E-14  0.12500000000E+03  0.12500000000E+03 0.  0.
        -11    1    1    0    0    0 -0.42546172567E+01 -0.52784868023E+02 -0.18997496834E+02  0.56260545202E+02  0.51100000000E-03 0. -1.
         11    1    1    0    0    0 -0.41338430070E+00 -0.58238738501E+01 -0.22019116087E+01  0.62399365538E+01  0.51100000000E-03 0.  1.
         22    1    1    0    0    0  0.46680015574E+01  0.58608741873E+02  0.21199408443E+02  0.62499518244E+02  0.00000000000E+00 0. -1.
</event>
<event>
 4    1  0.1976955E-002  0.9118800E+02  0.7818608E-02  0.1130116E+00
         25   -1    0    0    0    0  0.00000000000E+00  0.00000000000E+00  0.99999998245E-14  0.12500000000E+03  0.12500000000E+03 0.  0.
        -11    1    1    0    0    0  0.29506718977E+02  0.38603698635E+02  0.15856258711E+02  0.51110790971E+02  0.51100000000E-03 0.  1.
         11    1    1    0    0    0  0.65808358628E+01  0.85989303099E+01  0.35305948472E+01  0.11389209953E+02  0.51100000000E-03 0. -1.
         22    1    1    0    0    0 -0.36087554840E+02 -0.47202628944E+02 -0.19386853558E+02  0.62499999076E+02  0.00000000000E+00 0.  1.
</event>
<event>
 4    1  0.1976955E-002  0.9118800E+02  0.7818608E-02  0.1130116E+00
         25   -1    0    0    0    0  0.00000000000E+00  0.00000000000E+00  0.99999998245E-14  0.12500000000E+03  0.12500000000E+03 0.  0.
        -11    1    1    0    0    0  0.30781205762E+02  0.20290670974E+01 -0.42735946924E+01  0.31142629197E+02  0.51100000000E-03 0.  1.
         11    1    1    0    0    0  0.35562436535E+01 -0.40320718581E+02  0.11105349652E+02  0.41973039049E+02  0.51100000000E-03 0. -1.
         22    1    1    0    0    0 -0.34337449416E+02  0.38291651484E+02 -0.68317549599E+01  0.51884331754E+02  0.00000000000E+00 0. -1.
</event>
<event>
 4    1  0.1976955E-002  0.9118800E+02  0.7818608E-02  0.1130116E+00
         25   -1    0    0    0    0  0.00000000000E+00  0.00000000000E+00  0.99999998245E-14  0.12500000000E+03  0.12500000000E+03 0.  0.
        -11    1    1    0    0    0 -0.26265039327E+01 -0.37087369599E+00  0.14496678941E+01  0.30228475766E+01  0.51100000000E-03 0.  1.
         11    1    1    0    0    0 -0.51704996303E+02 -0.73107999210E+01  0.28472395558E+02  0.59477153154E+02  0.51100000000E-03 0. -1.
         22    1    1    0    0    0  0.54331500236E+02  0.76816736170E+01 -0.29922063452E+02  0.62499999270E+02  0.00000000000E+00 0. -1.
</event>
<event>
 4    1  0.1976955E-002  0.9118800E+02  0.7818608E-02  0.1130116E+00
         25   -1    0    0    0    0  0.00000000000E+00  0.00000000000E+00  0.99999998245E-14  0.12500000000E+03  0.12500000000E+03 0.  0.
        -11    1    1    0    0    0  0.42420865312E+01 -0.12608554062E+02 -0.49271522202E+01  0.14186182113E+02  0.51100000000E-03 0.  1.
         11    1    1    0    0    0  0.14445383097E+02 -0.42943989364E+02 -0.16774077912E+02  0.48313817955E+02  0.51100000000E-03 0. -1.
         22    1    1    0    0    0 -0.18687469628E+02  0.55552543426E+02  0.21701230133E+02  0.62499999932E+02  0.00000000000E+00 0. -1.
</event>
<event>
 4    1  0.1976955E-002  0.9118800E+02  0.7818608E-02  0.1130116E+00
         25   -1    0    0    0    0  0.00000000000E+00  0.00000000000E+00  0.99999998245E-14  0.12500000000E+03  0.12500000000E+03 0.  0.
        -11    1    1    0    0    0 -0.14259408874E+02 -0.79366950838E+01 -0.40087720696E+02  0.43282181336E+02  0.51100000000E-03 0.  1.
         11    1    1    0    0    0 -0.63290870384E+01 -0.35193164835E+01 -0.17801169435E+02  0.19217818939E+02  0.51100000000E-03 0. -1.
         22    1    1    0    0    0  0.20588495912E+02  0.11456011567E+02  0.57888890132E+02  0.62499999725E+02  0.00000000000E+00 0.  1.
</event>
<event>
 4    1  0.1976955E-002  0.9118800E+02  0.7818608E-02  0.1130116E+00
         25   -1    0    0    0    0  0.00000000000E+00  0.00000000000E+00  0.99999998245E-14  0.12500000000E+03  0.12500000000E+03 0.  0.
        -11    1    1    0    0    0 -0.16599857191E+00 -0.38479482357E+01 -0.51202140557E+01  0.64070939893E+01  0.51100000000E-03 0.  1.
         11    1    1    0    0    0  0.52650506776E+01 -0.30356242001E+02 -0.46907324655E+02  0.56120578165E+02  0.51100000000E-03 0. -1.
         22    1    1    0    0    0 -0.50990521056E+01  0.34204190237E+02  0.52027538711E+02  0.62472327845E+02  0.00000000000E+00 0. -1.
</event>
<event>
 4    1  0.1976955E-002  0.9118800E+02  0.7818608E-02  0.1130116E+00
         25   -1    0    0    0    0  0.00000000000E+00  0.00000000000E+00  0.99999998245E-14  0.12500000000E+03  0.12500000000E+03 0.  0.
        -11    1    1    0    0    0  0.18089683384E+02 -0.32495405305E+02 -0.21872680443E+01  0.37255498287E+02  0.51100000000E-03 0.  1.
         11    1    1    0    0    0  0.10316931631E+02 -0.23065586929E+02 -0.68194144181E+00  0.25276974167E+02  0.51100000000E-03 0. -1.
         22    1    1    0    0    0 -0.28406615015E+02  0.55560992234E+02  0.28692094862E+01  0.62467527546E+02  0.00000000000E+00 0.  1.
</event>
<event>
 4    1  0.1976955E-002  0.9118800E+02  0.7818608E-02  0.1130116E+00
         25   -1    0    0    0    0  0.00000000000E+00  0.00000000000E+00  0.99999998245E-14  0.12500000000E+03  0.12500000000E+03 0.  0.
        -11    1    1    0    0    0 -0.16900276071E+00 -0.42237977212E-01 -0.19547255212E+00  0.26183154814E+00  0.51100000000E-03 0.  1.
         11    1    1    0    0    0 -0.37788097588E+02 -0.42678507124E+01 -0.49270000632E+02  0.62238957507E+02  0.51100000000E-03 0. -1.
         22    1    1    0    0    0  0.37957100349E+02  0.43100886897E+01  0.49465473184E+02  0.62499210945E+02  0.00000000000E+00 0. -1.
</event>
<event>
 4    1  0.1976955E-002  0.9118800E+02  0.7818608E-02  0.1130116E+00
         25   -1    0    0    0    0  0.00000000000E+00  0.00000000000E+00  0.99999998245E-14  0.12500000000E+03  0.12500000000E+03 0.  0.
        -11    1    1    0    0    0 -0.21014813710E+02  0.10551784395E+02  0.13046944693E+02  0.26892105073E+02  0.51100000000E-03 0. -1.
         11    1    1    0    0    0 -0.91192011691E+01  0.23117072003E+02  0.27735751915E+02  0.37240176993E+02  0.51100000000E-03 0.  1.
         22    1    1    0    0    0  0.30134014879E+02 -0.33668856398E+02 -0.40782696608E+02  0.60867717934E+02  0.00000000000E+00 0.  1.
</event>
<event>
 4    1  0.1976955E-002  0.9118800E+02  0.7818608E-02  0.1130116E+00
         25   -1    0    0    0    0  0.00000000000E+00  0.00000000000E+00  0.99999998245E-14  0.12500000000E+03  0.12500000000E+03 0.  0.
        -11    1    1    0    0    0  0.26422658210E+01 -0.34985059314E+01  0.14731028893E+02  0.15369590916E+02  0.51100000000E-03 0. -1.
         11    1    1    0    0    0  0.81119452553E+01 -0.10833247217E+02  0.45145476177E+02  0.47130424575E+02  0.51100000000E-03 0.  1.
         22    1    1    0    0    0 -0.10754211076E+02  0.14331753148E+02 -0.59876505070E+02  0.62499984509E+02  0.00000000000E+00 0.  1.
</event>
<event>
 4    1  0.1976955E-002  0.9118800E+02  0.7818608E-02  0.1130116E+00
         25   -1    0    0    0    0  0.00000000000E+00  0.00000000000E+00  0.99999998245E-14  0.12500000000E+03  0.12500000000E+03 0.  0.
        -11    1    1    0    0    0 -0.15866370736E+02 -0.73678555823E+01  0.66952047037E+00  0.17506435221E+02  0.51100000000E-03 0. -1.
         11    1    1    0    0    0 -0.40776227139E+02 -0.18941049607E+02  0.17195394615E+01  0.44993564830E+02  0.51100000000E-03 0.  1.
         22    1    1    0    0    0  0.56642597875E+02  0.26308905190E+02 -0.23890599319E+01  0.62499999949E+02  0.00000000000E+00 0.  1.
</event>
<event>
 4    1  0.1976955E-002  0.9118800E+02  0.7818608E-02  0.1130116E+00
         25   -1    0    0    0    0  0.00000000000E+00  0.00000000000E+00  0.99999998245E-14  0.12500000000E+03  0.12500000000E+03 0.  0.
        -11    1    1    0    0    0  0.16938672745E+02  0.25856993061E+02 -0.21526424704E+01  0.30986070973E+02  0.51100000000E-03 0. -1.
         11    1    1    0    0    0  0.17537115675E+02  0.26125756387E+02 -0.17603625678E+01  0.31515146353E+02  0.51100000000E-03 0.  1.
         22    1    1    0    0    0 -0.34475788420E+02 -0.51982749448E+02  0.39130050381E+01  0.62498782674E+02  0.00000000000E+00 0. -1.
</event>
<event>
 4    1  0.1976955E-002  0.9118800E+02  0.7818608E-02  0.1130116E+00
         25   -1    0    0    0    0  0.00000000000E+00  0.00000000000E+00  0.99999998245E-14  0.12500000000E+03  0.12500000000E+03 0.  0.
        -11    1    1    0    0    0  0.41899715288E+02 -0.28798938439E+02  0.17997937041E+01  0.50874396842E+02  0.51100000000E-03 0.  1.
         11    1    1    0    0    0  0.93057281322E+01 -0.68187132889E+01 -0.22261874170E+01  0.11749354776E+02  0.51100000000E-03 0. -1.
         22    1    1    0    0    0 -0.51205443421E+02  0.35617651728E+02  0.42639371290E+00  0.62376248381E+02  0.00000000000E+00 0.  1.
</event>
<event>
 4    1  0.1976955E-002  0.9118800E+02  0.7818608E-02  0.1130116E+00
         25   -1    0    0    0    0  0.00000000000E+00  0.00000000000E+00  0.99999998245E-14  0.12500000000E+03  0.12500000000E+03 0.  0.
        -11    1    1    0    0    0 -0.31696941182E+02  0.11959462363E+02  0.70218738161E+01  0.34598143483E+02  0.51100000000E-03 0. -1.
         11    1    1    0    0    0 -0.25559182267E+02  0.96542161452E+01  0.56602065883E+01  0.27901857042E+02  0.51100000000E-03 0.  1.
         22    1    1    0    0    0  0.57256123449E+02 -0.21613678508E+02 -0.12682080404E+02  0.62499999475E+02  0.00000000000E+00 0. -1.
</event>
<event>
 4    1  0.1976955E-002  0.9118800E+02  0.7818608E-02  0.1130116E+00
         25   -1    0    0    0    0  0.00000000000E+00  0.00000000000E+00  0.99999998245E-14  0.12500000000E+03  0.12500000000E+03 0.  0.
        -11    1    1    0    0    0  0.30438502093E+02 -0.40941141228E+02 -0.33263439606E+02  0.60902675388E+02  0.51100000000E-03 0. -1.
         11    1    1    0    0    0  0.79107735537E+00 -0.10832245893E+01 -0.86738012488E+00  0.15973501291E+01  0.51100000000E-03 0.  1.
         22    1    1    0    0    0 -0.31229579449E+02  0.42024365817E+02  0.34130819730E+02  0.62499974483E+02  0.00000000000E+00 0. -1.
</event>
<event>
 4    1  0.1976955E-002  0.9118800E+02  0.7818608E-02  0.1130116E+00
         25   -1    0    0    0    0  0.00000000000E+00  0.00000000000E+00  0.99999998245E-14  0.12500000000E+03  0.12500000000E+03 0.  0.
        -11    1    1    0    0    0  0.17234142100E+02  0.36262967370E+02  0.17810245889E+02  0.43922924713E+02  0.51100000000E-03 0.  1.
         11    1    1    0    0    0  0.36120557963E+01  0.12567432435E+02  0.14021035059E+02  0.19172290669E+02  0.51100000000E-03 0. -1.
         22    1    1    0    0    0 -0.20846197897E+02 -0.48830399805E+02 -0.31831280949E+02  0.61904784619E+02  0.00000000000E+00 0.  1.
</event>
<event>
 4    1  0.1976955E-002  0.9118800E+02  0.7818608E-02  0.1130116E+00
         25   -1    0    0    0    0  0.00000000000E+00  0.00000000000E+00  0.99999998245E-14  0.12500000000E+03  0.12500000000E+03 0.  0.
        -11    1    1    0    0    0 -0.11062962785E+02 -0.29189727954E+02  0.11733578871E+02  0.33348256881E+02  0.51100000000E-03 0.  1.
         11    1    1    0    0    0  0.28418067905E+02  0.24297453806E+01  0.28492566282E+02  0.40315215238E+02  0.51100000000E-03 0. -1.
         22    1    1    0    0    0 -0.17355105120E+02  0.26759982574E+02 -0.40226145153E+02  0.51336527881E+02  0.00000000000E+00 0. -1.
</event>
<event>
 4    1  0.1976955E-002  0.9118800E+02  0.7818608E-02  0.1130116E+00
         25   -1    0    0    0    0  0.00000000000E+00  0.00000000000E+00  0.99999998245E-14  0.12500000000E+03  0.12500000000E+03 0.  0.
        -11    1    1    0    0    0  0.52540422122E+01  0.46701376401E+00  0.35037954063E+01  0.63324279651E+01  0.51100000000E-03 0. -1.
         11    1    1    0    0    0  0.46603640457E+02  0.41458747444E+01  0.31075851864E+02  0.56167572055E+02  0.51100000000E-03 0. -1.
         22    1    1    0    0    0 -0.51857682669E+02 -0.46128885084E+01 -0.34579647270E+02  0.62499999980E+02  0.00000000000E+00 0. -1.
</event>
<event>
 4    1  0.1976955E-002  0.9118800E+02  0.7818608E-02  0.1130116E+00
         25   -1    0    0    0    0  0.00000000000E+00  0.00000000000E+00  0.99999998245E-14  0.12500000000E+03  0.12500000000E+03 0.  0.
        -11    1    1    0    0    0  0.66620808154E+01  0.10253489668E+02  0.23869917301E+02  0.26819588427E+02  0.51100000000E-03 0. -1.
         11    1    1    0    0    0  0.90796035735E+01  0.13933619094E+02  0.31568066699E+02  0.35680916153E+02  0.51100000000E-03 0.  1.
         22    1    1    0    0    0 -0.15741684389E+02 -0.24187108762E+02 -0.55437984001E+02  0.62499495420E+02  0.00000000000E+00 0. -1.
</event>
<event>
 4    1  0.1976955E-002  0.9118800E+02  0.7818608E-02  0.1130116E+00
         25   -1    0    0    0    0  0.00000000000E+00  0.00000000000E+00  0.99999998245E-14  0.12500000000E+03  0.12500000000E+03 0.  0.
        -11    1    1    0    0    0  0.14158574422E+02  0.21814414606E+02  0.54805579923E+02  0.60662884082E+02  0.51100000000E-03 0.  1.
         11    1    1    0    0    0  0.45204721420E+00  0.20293738152E+00  0.18004063562E+01  0.18673493442E+01  0.51100000000E-03 0. -1.
         22    1    1    0    0    0 -0.14610621636E+02 -0.22017351987E+02 -0.56605986279E+02  0.62469766573E+02  0.00000000000E+00 0.  1.
</event>
<event>
 4    1  0.1976955E-002  0.9118800E+02  0.7818608E-02  0.1130116E+00
         25   -1    0    0    0    0  0.00000000000E+00  0.00000000000E+00  0.99999998245E-14  0.12500000000E+03  0.12500000000E+03 0.  0.
        -11    1    1    0    0    0 -0.18191229906E+02 -0.18545064249E+02  0.50099120045E+02  0.56433696344E+02  0.51100000000E-03 0.  1.
         11    1    1    0    0    0 -0.19800195486E+01 -0.20018723149E+01  0.53733080706E+01  0.60663341534E+01  0.51100000000E-03 0. -1.
         22    1    1    0    0    0  0.20171249454E+02  0.20546936564E+02 -0.55472428116E+02  0.62499969502E+02  0.00000000000E+00 0.  1.
</event>
<event>
 4    1  0.1976955E-002  0.9118800E+02  0.7818608E-02  0.1130116E+00
         25   -1    0    0    0    0  0.00000000000E+00  0.00000000000E+00  0.99999998245E-14  0.12500000000E+03  0.12500000000E+03 0.  0.
        -11    1    1    0    0    0  0.26543759908E+02  0.84936841327E+01 -0.39878556578E+02  0.48651959213E+02  0.51100000000E-03 0.  1.
         11    1    1    0    0    0  0.67254919972E+01  0.32606730129E+01 -0.11682972803E+02  0.13869249615E+02  0.51100000000E-03 0. -1.
         22    1    1    0    0    0 -0.33269251906E+02 -0.11754357146E+02  0.51561529381E+02  0.62478791173E+02  0.00000000000E+00 0.  1.
</event>
<event>
 4    1  0.1976955E-002  0.9118800E+02  0.7818608E-02  0.1130116E+00
         25   -1    0    0    0    0  0.00000000000E+00  0.00000000000E+00  0.99999998245E-14  0.12500000000E+03  0.12500000000E+03 0.  0.
        -11    1    1    0    0    0 -0.18217593303E+01  0.59058303407E+01  0.15586892067E+01  0.63739431575E+01  0.51100000000E-03 0. -1.
         11    1    1    0    0    0 -0.15543216185E+02  0.52614463657E+02  0.11852065767E+02  0.56127932605E+02  0.51100000000E-03 0.  1.
         22    1    1    0    0    0  0.17364975515E+02 -0.58520293998E+02 -0.13410754974E+02  0.62498124238E+02  0.00000000000E+00 0.  1.
</event>
<event>
 4    1  0.1976955E-002  0.9118800E+02  0.7818608E-02  0.1130116E+00
         25   -1    0    0    0    0  0.00000000000E+00  0.00000000000E+00  0.99999998245E-14  0.12500000000E+03  0.12500000000E+03 0.  0.
        -11    1    1    0    0    0 -0.57192175501E+01 -0.96860149078E+01  0.10995539697E+02  0.15729915056E+02  0.51100000000E-03 0. -1.
         11    1    1    0    0    0 -0.17194388097E+02 -0.29483150050E+02  0.31979137057E+02  0.46771447765E+02  0.51100000000E-03 0.  1.
         22    1    1    0    0    0  0.22913605647E+02  0.39169164957E+02 -0.42974676753E+02  0.62498637179E+02  0.00000000000E+00 0. -1.
</event>
<event>
 4    1  0.1976955E-002  0.9118800E+02  0.7818608E-02  0.1130116E+00
         25   -1    0    0    0    0  0.00000000000E+00  0.00000000000E+00  0.99999998245E-14  0.12500000000E+03  0.12500000000E+03 0.  0.
        -11    1    1    0    0    0 -0.31097631978E+02 -0.36895637562E+02 -0.15108618271E-01  0.48252989692E+02  0.51100000000E-03 0.  1.
         11    1    1    0    0    0 -0.91828107361E+01 -0.10892806929E+02 -0.70821601031E-02  0.14247010432E+02  0.51100000000E-03 0. -1.
         22    1    1    0    0    0  0.40280442714E+02  0.47788444491E+02  0.22190778374E-01  0.62499999876E+02  0.00000000000E+00 0.  1.
</event>
<event>
 4    1  0.1976955E-002  0.9118800E+02  0.7818608E-02  0.1130116E+00
         25   -1    0    0    0    0  0.00000000000E+00  0.00000000000E+00  0.99999998245E-14  0.12500000000E+03  0.12500000000E+03 0.  0.
        -11    1    1    0    0    0 -0.57386020222E+01  0.97668294304E+01  0.57262109603E+02  0.58371840015E+02  0.51100000000E-03 0. -1.
         11    1    1    0    0    0 -0.21119511480E+00  0.54973782126E+00  0.40893282163E+01  0.41315155294E+01  0.51100000000E-03 0.  1.
         22    1    1    0    0    0  0.59497971370E+01 -0.10316567252E+02 -0.61351437819E+02  0.62496644456E+02  0.00000000000E+00 0. -1.
</event>
<event>
 4    1  0.1976955E-002  0.9118800E+02  0.7818608E-02  0.1130116E+00
         25   -1    0    0    0    0  0.00000000000E+00  0.00000000000E+00  0.99999998245E-14  0.12500000000E+03  0.12500000000E+03 0.  0.
        -11    1    1    0    0    0 -0.38795712361E+01  0.13534351842E+02 -0.18071453826E+01  0.14194912027E+02  0.51100000000E-03 0. -1.
         11    1    1    0    0    0 -0.13204223962E+02  0.46055245757E+02 -0.61598981345E+01  0.48305088111E+02  0.51100000000E-03 0.  1.
         22    1    1    0    0    0  0.17083795198E+02 -0.59589597599E+02  0.79670435171E+01  0.62499999862E+02  0.00000000000E+00 0.  1.
</event>
<event>
 4    1  0.1976955E-002  0.9118800E+02  0.7818608E-02  0.1130116E+00
         25   -1    0    0    0    0  0.00000000000E+00  0.00000000000E+00  0.99999998245E-14  0.12500000000E+03  0.12500000000E+03 0.  0.
        -11    1    1    0    0    0 -0.12884933246E+02 -0.12760454329E+02 -0.17777915474E+02  0.25394979392E+02  0.51100000000E-03 0. -1.
         11    1    1    0    0    0 -0.18829656180E+02 -0.18729330628E+02 -0.25912179721E+02  0.37105051351E+02  0.51100000000E-03 0.  1.
         22    1    1    0    0    0  0.31714589426E+02  0.31489784957E+02  0.43690095195E+02  0.62499969258E+02  0.00000000000E+00 0. -1.
</event>
<event>
 4    1  0.1976955E-002  0.9118800E+02  0.7818608E-02  0.1130116E+00
         25   -1    0    0    0    0  0.00000000000E+00  0.00000000000E+00  0.99999998245E-14  0.12500000000E+03  0.12500000000E+03 0.  0.
        -11    1    1    0    0    0 -0.94434301058E+01  0.14170361737E+02 -0.44732414861E+02  0.47864041445E+02  0.51100000000E-03 0.  1.
         11    1    1    0    0    0 -0.26373846162E+01  0.41972974403E+01 -0.13772167008E+02  0.14637133865E+02  0.51100000000E-03 0. -1.
         22    1    1    0    0    0  0.12080814722E+02 -0.18367659178E+02  0.58504581869E+02  0.62498824690E+02  0.00000000000E+00 0.  1.
</event>
<event>
 4    1  0.1976955E-002  0.9118800E+02  0.7818608E-02  0.1130116E+00
         25   -1    0    0    0    0  0.00000000000E+00  0.00000000000E+00  0.99999998245E-14  0.12500000000E+03  0.12500000000E+03 0.  0.
        -11    1    1    0    0    0 -0.30538632247E+02  0.21921420646E+02 -0.26458556317E+02  0.45969685068E+02  0.51100000000E-03 0. -1.
         11    1    1    0    0    0 -0.10239735504E+02  0.89175067248E+01 -0.94591013120E+01  0.16548374762E+02  0.51100000000E-03 0.  1.
         22    1    1    0    0    0  0.40778367751E+02 -0.30838927370E+02  0.35917657629E+02  0.62481940170E+02  0.00000000000E+00 0. -1.
</event>
<event>
 4    1  0.1976955E-002  0.9118800E+02  0.7818608E-02  0.1130116E+00
         25   -1    0    0    0    0  0.00000000000E+00  0.00000000000E+00  0.99999998245E-14  0.12500000000E+03  0.12500000000E+03 0.  0.
        -11    1    1    0    0    0 -0.22277723561E+01  0.63506253836E+00 -0.35163711693E+01  0.42108360879E+01  0.51100000000E-03 0. -1.
         11    1    1    0    0    0 -0.29203617200E+02  0.48148809693E+01 -0.50222459868E+02  0.58295195444E+02  0.51100000000E-03 0.  1.
         22    1    1    0    0    0  0.31431389557E+02 -0.54499435076E+01  0.53738831037E+02  0.62493968469E+02  0.00000000000E+00 0.  1.
</event>
<event>
 4    1  0.1976955E-002  0.9118800E+02  0.7818608E-02  0.1130116E+00
         25   -1    0    0    0    0  0.00000000000E+00  0.00000000000E+00  0.99999998245E-14  0.12500000000E+03  0.12500000000E+03 0.  0.
        -11    1    1    0    0    0  0.81134364477E+01  0.10714652278E+02 -0.21945637811E+01  0.13617919624E+02  0.51100000000E-03 0.  1.
         11    1    1    0    0    0 -0.23730019672E+00  0.44923485038E+02  0.24207785081E+02  0.51031291166E+02  0.51100000000E-03 0. -1.
         22    1    1    0    0    0 -0.78761362510E+01 -0.55638137316E+02 -0.22013221299E+02  0.60350789210E+02  0.00000000000E+00 0. -1.
</event>
<event>
 4    1  0.1976955E-002  0.9118800E+02  0.7818608E-02  0.1130116E+00
         25   -1    0    0    0    0  0.00000000000E+00  0.00000000000E+00  0.99999998245E-14  0.12500000000E+03  0.12500000000E+03 0.  0.
        -11    1    1    0    0    0  0.90019930652E+01  0.61120364069E+01  0.88286114244E+01  0.14012039399E+02  0.51100000000E-03 0. -1.
         11    1    1    0    0    0  0.31116470092E+02  0.21174249082E+02  0.30569576775E+02  0.48487963039E+02  0.51100000000E-03 0.  1.
         22    1    1    0    0    0 -0.40118463157E+02 -0.27286285489E+02 -0.39398188200E+02  0.62499997562E+02  0.00000000000E+00 0.  1.
</event>
<event>
 4    1  0.1976955E-002  0.9118800E+02  0.7818608E-02  0.1130116E+00
         25   -1    0    0    0    0  0.00000000000E+00  0.00000000000E+00  0.99999998245E-14  0.12500000000E+03  0.12500000000E+03 0.  0.
        -11    1    1    0    0    0 -0.18774381364E+02 -0.13044411960E+02  0.97458599897E+00  0.22881955710E+02  0.51100000000E-03 0.  1.
         11    1    1    0    0    0 -0.37655150363E+02 -0.73127407535E+01 -0.13813938137E+02  0.40770227045E+02  0.51100000000E-03 0. -1.
         22    1    1    0    0    0  0.56429531726E+02  0.20357152714E+02  0.12839352138E+02  0.61347817245E+02  0.00000000000E+00 0. -1.
</event>
<event>
 4    1  0.1976955E-002  0.9118800E+02  0.7818608E-02  0.1130116E+00
         25   -1    0    0    0    0  0.00000000000E+00  0.00000000000E+00  0.99999998245E-14  0.12500000000E+03  0.12500000000E+03 0.  0.
        -11    1    1    0    0    0  0.35947628209E+02 -0.16876853470E+02  0.22934420496E+02  0.45858999124E+02  0.51100000000E-03 0.  1.
         11    1    1    0    0    0  0.94185674371E+01 -0.93747603621E+01  0.10529834360E+02  0.16955027464E+02  0.51100000000E-03 0. -1.
         22    1    1    0    0    0 -0.45366195646E+02  0.26251613832E+02 -0.33464254856E+02  0.62185973412E+02  0.00000000000E+00 0.  1.
</event>
<event>
 4    1  0.1976955E-002  0.9118800E+02  0.7818608E-02  0.1130116E+00
         25   -1    0    0    0    0  0.00000000000E+00  0.00000000000E+00  0.99999998245E-14  0.12500000000E+03  0.12500000000E+03 0.  0.
        -11    1    1    0    0    0 -0.22704481532E+02  0.51192654241E+02  0.15369297483E+02  0.58072339675E+02  0.51100000000E-03 0.  1.
         11    1    1    0    0    0 -0.18504688541E+01  0.38833201383E+01  0.10549484848E+01  0.44291451594E+01  0.51100000000E-03 0. -1.
         22    1    1    0    0    0  0.24554950386E+02 -0.55075974380E+02 -0.16424245967E+02  0.62498515166E+02  0.00000000000E+00 0.  1.
</event>
<event>
 4    1  0.1976955E-002  0.9118800E+02  0.7818608E-02  0.1130116E+00
         25   -1    0    0    0    0  0.00000000000E+00  0.00000000000E+00  0.99999998245E-14  0.12500000000E+03  0.12500000000E+03 0.  0.
        -11    1    1    0    0    0 -0.41400958848E+01 -0.39606702026E+02  0.28638083552E+02  0.49050698966E+02  0.51100000000E-03 0.  1.
         11    1    1    0    0    0 -0.11387741675E+01 -0.10859236474E+02  0.78526352300E+01  0.13449301235E+02  0.51100000000E-03 0. -1.
         22    1    1    0    0    0  0.52788700523E+01  0.50465938499E+02 -0.36490718782E+02  0.62499999799E+02  0.00000000000E+00 0.  1.
</event>
<event>
 4    1  0.1976955E-002  0.9118800E+02  0.7818608E-02  0.1130116E+00
         25   -1    0    0    0    0  0.00000000000E+00  0.00000000000E+00  0.99999998245E-14  0.12500000000E+03  0.12500000000E+03 0.  0.
        -11    1    1    0    0    0  0.24039858999E+02  0.17770745832E+02 -0.12149527816E+02  0.32269571651E+02  0.51100000000E-03 0. -1.
         11    1    1    0    0    0  0.22521888972E+02  0.16646693139E+02 -0.11381165299E+02  0.30230428366E+02  0.51100000000E-03 0. -1.
         22    1    1    0    0    0 -0.46561747971E+02 -0.34417438971E+02  0.23530693115E+02  0.62499999984E+02  0.00000000000E+00 0. -1.
</event>
<event>
 4    1  0.1976955E-002  0.9118800E+02  0.7818608E-02  0.1130116E+00
         25   -1    0    0    0    0  0.00000000000E+00  0.00000000000E+00  0.99999998245E-14  0.12500000000E+03  0.12500000000E+03 0.  0.
        -11    1    1    0    0    0 -0.21415471275E+00  0.79272685099E+01 -0.65746130582E+01  0.10301115735E+02  0.51100000000E-03 0. -1.
         11    1    1    0    0    0 -0.55507414801E+01  0.42068515283E+02 -0.30442960007E+02  0.52223984178E+02  0.51100000000E-03 0.  1.
         22    1    1    0    0    0  0.57648961929E+01 -0.49995783793E+02  0.37017573065E+02  0.62474900087E+02  0.00000000000E+00 0.  1.
</event>
<event>
 4    1  0.1976955E-002  0.9118800E+02  0.7818608E-02  0.1130116E+00
         25   -1    0    0    0    0  0.00000000000E+00  0.00000000000E+00  0.99999998245E-14  0.12500000000E+03  0.12500000000E+03 0.  0.
        -11    1    1    0    0    0 -0.14619643280E+01  0.43861295172E+01 -0.32404914406E+02  0.32733071194E+02  0.51100000000E-03 0. -1.
         11    1    1    0    0    0  0.80473678932E+00  0.65570149290E+01 -0.29075597668E+02  0.29816646795E+02  0.51100000000E-03 0.  1.
         22    1    1    0    0    0  0.65722753865E+00 -0.10943144446E+02  0.61480512074E+02  0.62450282011E+02  0.00000000000E+00 0. -1.
</event>
<event>
 4    1  0.1976955E-002  0.9118800E+02  0.7818608E-02  0.1130116E+00
         25   -1    0    0    0    0  0.00000000000E+00  0.00000000000E+00  0.99999998245E-14  0.12500000000E+03  0.12500000000E+03 0.  0.
        -11    1    1    0    0    0 -0.28317987748E+01 -0.14419466923E+02  0.50648344085E+01  0.15543251220E+02  0.51100000000E-03 0. -1.
         11    1    1    0    0    0 -0.84988153464E+01 -0.43573697902E+02  0.15298354677E+02  0.46956753159E+02  0.51100000000E-03 0.  1.
         22    1    1    0    0    0  0.11330614121E+02  0.57993164825E+02 -0.20363189086E+02  0.62499995621E+02  0.00000000000E+00 0.  1.
</event>
<event>
 4    1  0.1976955E-002  0.9118800E+02  0.7818608E-02  0.1130116E+00
         25   -1    0    0    0    0  0.00000000000E+00  0.00000000000E+00  0.99999998245E-14  0.12500000000E+03  0.12500000000E+03 0.  0.
        -11    1    1    0    0    0 -0.33512064386E+01  0.79941338296E+01  0.12589879339E+02  0.15285346653E+02  0.51100000000E-03 0. -1.
         11    1    1    0    0    0 -0.10696906863E+02  0.24701497722E+02  0.38789837308E+02  0.47214820605E+02  0.51100000000E-03 0.  1.
         22    1    1    0    0    0  0.14048113302E+02 -0.32695631552E+02 -0.51379716647E+02  0.62499832741E+02  0.00000000000E+00 0.  1.
</event>
<event>
 4    1  0.1976955E-002  0.9118800E+02  0.7818608E-02  0.1130116E+00
         25   -1    0    0    0    0  0.00000000000E+00  0.00000000000E+00  0.99999998245E-14  0.12500000000E+03  0.12500000000E+03 0.  0.
        -11    1    1    0    0    0  0.84286344914E+00  0.33725354396E+01  0.15167839245E+01  0.37927625578E+01  0.51100000000E-03 0.  1.
         11    1    1    0    0    0  0.13047028937E+02  0.52199334058E+02  0.23484980130E+02  0.58707237476E+02  0.51100000000E-03 0. -1.
         22    1    1    0    0    0 -0.13889892386E+02 -0.55571869497E+02 -0.25001764054E+02  0.62499999966E+02  0.00000000000E+00 0. -1.
</event>
<event>
 4    1  0.1976955E-002  0.9118800E+02  0.7818608E-02  0.1130116E+00
         25   -1    0    0    0    0  0.00000000000E+00  0.00000000000E+00  0.99999998245E-14  0.12500000000E+03  0.12500000000E+03 0.  0.
        -11    1    1    0    0    0 -0.48809448816E+01 -0.11833357922E+01  0.32729609708E+01  0.59946793335E+01  0.51100000000E-03 0.  1.
         11    1    1    0    0    0 -0.45989549985E+02 -0.11364400968E+02  0.30800409192E+02  0.56505340666E+02  0.51100000000E-03 0. -1.
         22    1    1    0    0    0  0.50870494867E+02  0.12547736761E+02 -0.34073370162E+02  0.62499980000E+02  0.00000000000E+00 0. -1.
</event>
<event>
 4    1  0.1976955E-002  0.9118800E+02  0.7818608E-02  0.1130116E+00
         25   -1    0    0    0    0  0.00000000000E+00  0.00000000000E+00  0.99999998245E-14  0.12500000000E+03  0.12500000000E+03 0.  0.
        -11    1    1    0    0    0 -0.15288099494E+01  0.40821716272E+01 -0.11556021589E+01  0.45096343162E+01  0.51100000000E-03 0.  1.
         11    1    1    0    0    0 -0.19653523515E+02  0.52493979857E+02 -0.14866190112E+02  0.57990365721E+02  0.51100000000E-03 0.  1.
         22    1    1    0    0    0  0.21182333465E+02 -0.56576151484E+02  0.16021792271E+02  0.62499999963E+02  0.00000000000E+00 0.  1.
</event>
<event>
 4    1  0.1976955E-002  0.9118800E+02  0.7818608E-02  0.1130116E+00
         25   -1    0    0    0    0  0.00000000000E+00  0.00000000000E+00  0.99999998245E-14  0.12500000000E+03  0.12500000000E+03 0.  0.
        -11    1    1    0    0    0  0.17810474740E+02  0.47111178420E+00 -0.81306724944E+01  0.19584248575E+02  0.51100000000E-03 0.  1.
         11    1    1    0    0    0  0.37003189201E+02  0.13141007316E+01 -0.21769302035E+02  0.42951896153E+02  0.51100000000E-03 0. -1.
         22    1    1    0    0    0 -0.54813663942E+02 -0.17852125158E+01  0.29899974530E+02  0.62463855271E+02  0.00000000000E+00 0. -1.
</event>
<event>
 4    1  0.1976955E-002  0.9118800E+02  0.7818608E-02  0.1130116E+00
         25   -1    0    0    0    0  0.00000000000E+00  0.00000000000E+00  0.99999998245E-14  0.12500000000E+03  0.12500000000E+03 0.  0.
        -11    1    1    0    0    0 -0.86956123094E-01  0.75281328668E+01 -0.65437088933E+01  0.99749923393E+01  0.51100000000E-03 0. -1.
         11    1    1    0    0    0 -0.52020406097E+00  0.39652929813E+02 -0.34441999292E+02  0.52525010904E+02  0.51100000000E-03 0.  1.
         22    1    1    0    0    0  0.60716018407E+00 -0.47181062680E+02  0.40985708185E+02  0.62499996756E+02  0.00000000000E+00 0.  1.
</event>
<event>
 4    1  0.1976955E-002  0.9118800E+02  0.7818608E-02  0.1130116E+00
         25   -1    0    0    0    0  0.00000000000E+00  0.00000000000E+00  0.99999998245E-14  0.12500000000E+03  0.12500000000E+03 0.  0.
        -11    1    1    0    0    0 -0.11791962580E+02 -0.16250301906E+01 -0.48811510188E+02  0.50241960866E+02  0.51100000000E-03 0.  1.
         11    1    1    0    0    0  0.13011001936E+01 -0.12284426638E+01 -0.12430425927E+02  0.12558559714E+02  0.51100000000E-03 0. -1.
         22    1    1    0    0    0  0.10490862386E+02  0.28534728543E+01  0.61241936115E+02  0.62199479420E+02  0.00000000000E+00 0.  1.
</event>
<event>
 4    1  0.1976955E-002  0.9118800E+02  0.7818608E-02  0.1130116E+00
         25   -1    0    0    0    0  0.00000000000E+00  0.00000000000E+00  0.99999998245E-14  0.12500000000E+03  0.12500000000E+03 0.  0.
        -11    1    1    0    0    0 -0.35725222804E+01  0.74213641634E+00  0.24891409134E+02  0.25157422977E+02  0.51100000000E-03 0.  1.
         11    1    1    0    0    0  0.19885304812E+01 -0.11634789642E+02  0.36040652983E+02  0.37924283134E+02  0.51100000000E-03 0. -1.
         22    1    1    0    0    0  0.15839917992E+01  0.10892653226E+02 -0.60932062117E+02  0.61918293889E+02  0.00000000000E+00 0. -1.
</event>
<event>
 4    1  0.1976955E-002  0.9118800E+02  0.7818608E-02  0.1130116E+00
         25   -1    0    0    0    0  0.00000000000E+00  0.00000000000E+00  0.99999998245E-14  0.12500000000E+03  0.12500000000E+03 0.  0.
        -11    1    1    0    0    0  0.12549530931E+02  0.10061561284E+02  0.29569343006E+01  0.16354485708E+02  0.51100000000E-03 0. -1.
         11    1    1    0    0    0  0.35820741126E+02  0.28632898845E+02  0.52640867708E+01  0.46159278600E+02  0.51100000000E-03 0.  1.
         22    1    1    0    0    0 -0.48370272057E+02 -0.38694460129E+02 -0.82210210714E+01  0.62486235692E+02  0.00000000000E+00 0.  1.
</event>
<event>
 4    1  0.1976955E-002  0.9118800E+02  0.7818608E-02  0.1130116E+00
         25   -1    0    0    0    0  0.00000000000E+00  0.00000000000E+00  0.99999998245E-14  0.12500000000E+03  0.12500000000E+03 0.  0.
        -11    1    1    0    0    0 -0.12629277445E+01 -0.44354446455E+01  0.10166073164E+02  0.11163207403E+02  0.51100000000E-03 0. -1.
         11    1    1    0    0    0  0.83187385889E+00 -0.20245606546E+02  0.47210688531E+02  0.51375341462E+02  0.51100000000E-03 0.  1.
         22    1    1    0    0    0  0.43105388564E+00  0.24681051191E+02 -0.57376761694E+02  0.62461451135E+02  0.00000000000E+00 0.  1.
</event>
<event>
 4    1  0.1976955E-002  0.9118800E+02  0.7818608E-02  0.1130116E+00
         25   -1    0    0    0    0  0.00000000000E+00  0.00000000000E+00  0.99999998245E-14  0.12500000000E+03  0.12500000000E+03 0.  0.
        -11    1    1    0    0    0  0.19014539076E+02 -0.84702510362E+01  0.30289116026E+02  0.36752257057E+02  0.51100000000E-03 0.  1.
         11    1    1    0    0    0  0.13318371377E+02 -0.59383509353E+01  0.21220349818E+02  0.25747743098E+02  0.51100000000E-03 0. -1.
         22    1    1    0    0    0 -0.32332910453E+02  0.14408601971E+02 -0.51509465844E+02  0.62499999845E+02  0.00000000000E+00 0.  1.
</event>
<event>
 4    1  0.1976955E-002  0.9118800E+02  0.7818608E-02  0.1130116E+00
         25   -1    0    0    0    0  0.00000000000E+00  0.00000000000E+00  0.99999998245E-14  0.12500000000E+03  0.12500000000E+03 0.  0.
        -11    1    1    0    0    0  0.35887361103E+02  0.39605684899E+01  0.27781909115E+02  0.45556813585E+02  0.51100000000E-03 0.  1.
         11    1    1    0    0    0  0.13346841093E+02  0.14716869890E+01  0.10332837787E+02  0.16943186440E+02  0.51100000000E-03 0. -1.
         22    1    1    0    0    0 -0.49234202196E+02 -0.54322554788E+01 -0.38114746902E+02  0.62499999975E+02  0.00000000000E+00 0.  1.
</event>
<event>
 4    1  0.1976955E-002  0.9118800E+02  0.7818608E-02  0.1130116E+00
         25   -1    0    0    0    0  0.00000000000E+00  0.00000000000E+00  0.99999998245E-14  0.12500000000E+03  0.12500000000E+03 0.  0.
        -11    1    1    0    0    0 -0.82951819874E+01  0.23440080346E+02 -0.24246626428E+02  0.34729617105E+02  0.51100000000E-03 0.  1.
         11    1    1    0    0    0 -0.52214665077E+01  0.16713262576E+02 -0.21626131355E+02  0.27826002517E+02  0.51100000000E-03 0. -1.
         22    1    1    0    0    0  0.13516648495E+02 -0.40153342921E+02  0.45872757783E+02  0.62444380379E+02  0.00000000000E+00 0.  1.
</event>
<event>
 4    1  0.1976955E-002  0.9118800E+02  0.7818608E-02  0.1130116E+00
         25   -1    0    0    0    0  0.00000000000E+00  0.00000000000E+00  0.99999998245E-14  0.12500000000E+03  0.12500000000E+03 0.  0.
        -11    1    1    0    0    0 -0.70906050424E+01 -0.12785200586E+01 -0.11055377485E+02  0.13195933654E+02  0.51100000000E-03 0.  1.
         11    1    1    0    0    0  0.52295330501E+02  0.26735576476E+02  0.11856092725E+02  0.59917940357E+02  0.51100000000E-03 0. -1.
         22    1    1    0    0    0 -0.45204725458E+02 -0.25457056417E+02 -0.80071524026E+00  0.51886125988E+02  0.00000000000E+00 0. -1.
</event>
<event>
 4    1  0.1976955E-002  0.9118800E+02  0.7818608E-02  0.1130116E+00
         25   -1    0    0    0    0  0.00000000000E+00  0.00000000000E+00  0.99999998245E-14  0.12500000000E+03  0.12500000000E+03 0.  0.
        -11    1    1    0    0    0  0.13769835260E+01 -0.73225601787E+01 -0.60387534378E+00  0.74753352362E+01  0.51100000000E-03 0. -1.
         11    1    1    0    0    0  0.10042618269E+02 -0.53920177862E+02 -0.44130006647E+01  0.55024670262E+02  0.51100000000E-03 0.  1.
         22    1    1    0    0    0 -0.11419601795E+02  0.61242738040E+02  0.50168760085E+01  0.62499994502E+02  0.00000000000E+00 0.  1.
</event>
<event>
 4    1  0.1976955E-002  0.9118800E+02  0.7818608E-02  0.1130116E+00
         25   -1    0    0    0    0  0.00000000000E+00  0.00000000000E+00  0.99999998245E-14  0.12500000000E+03  0.12500000000E+03 0.  0.
        -11    1    1    0    0    0 -0.40025442169E+02 -0.55625614360E+01 -0.82120940587E+01  0.41236107959E+02  0.51100000000E-03 0.  1.
         11    1    1    0    0    0 -0.20655388334E+02 -0.29405307869E+01 -0.41071256035E+01  0.21264060513E+02  0.51100000000E-03 0. -1.
         22    1    1    0    0    0  0.60680830503E+02  0.85030922229E+01  0.12319219662E+02  0.62499831527E+02  0.00000000000E+00 0.  1.
</event>
<event>
 4    1  0.1976955E-002  0.9118800E+02  0.7818608E-02  0.1130116E+00
         25   -1    0    0    0    0  0.00000000000E+00  0.00000000000E+00  0.99999998245E-14  0.12500000000E+03  0.12500000000E+03 0.  0.
        -11    1    1    0    0    0 -0.22507009134E+02 -0.15115957196E+02 -0.32870291243E+02  0.42608844959E+02  0.51100000000E-03 0. -1.
         11    1    1    0    0    0 -0.12989338190E+02  0.19780059818E+01 -0.15919482199E+02  0.20641349957E+02  0.51100000000E-03 0.  1.
         22    1    1    0    0    0  0.35496347323E+02  0.13137951214E+02  0.48789773442E+02  0.61749805084E+02  0.00000000000E+00 0. -1.
</event>
<event>
 4    1  0.1976955E-002  0.9118800E+02  0.7818608E-02  0.1130116E+00
         25   -1    0    0    0    0  0.00000000000E+00  0.00000000000E+00  0.99999998245E-14  0.12500000000E+03  0.12500000000E+03 0.  0.
        -11    1    1    0    0    0 -0.26608349651E+01  0.50535270361E+01  0.34514020983E+02  0.34983364945E+02  0.51100000000E-03 0. -1.
         11    1    1    0    0    0 -0.34894244722E+01  0.15399680784E+02  0.23434343752E+02  0.28257648853E+02  0.51100000000E-03 0.  1.
         22    1    1    0    0    0  0.61502594373E+01 -0.20453207820E+02 -0.57948364734E+02  0.61758986202E+02  0.00000000000E+00 0.  1.
</event>
<event>
 4    1  0.1976955E-002  0.9118800E+02  0.7818608E-02  0.1130116E+00
         25   -1    0    0    0    0  0.00000000000E+00  0.00000000000E+00  0.99999998245E-14  0.12500000000E+03  0.12500000000E+03 0.  0.
        -11    1    1    0    0    0 -0.19752223055E+02 -0.49074108507E+02  0.29214324958E+02  0.60430912821E+02  0.51100000000E-03 0. -1.
         11    1    1    0    0    0 -0.59352318824E+00 -0.98602501968E+00  0.18950807010E+01  0.22171707735E+01  0.51100000000E-03 0.  1.
         22    1    1    0    0    0  0.20345746243E+02  0.50060133527E+02 -0.31109405659E+02  0.62351916405E+02  0.00000000000E+00 0. -1.
</event>
<event>
 4    1  0.1976955E-002  0.9118800E+02  0.7818608E-02  0.1130116E+00
         25   -1    0    0    0    0  0.00000000000E+00  0.00000000000E+00  0.99999998245E-14  0.12500000000E+03  0.12500000000E+03 0.  0.
        -11    1    1    0    0    0 -0.11075830575E+02  0.21913548011E+02  0.20450424298E+02  0.31954615685E+02  0.51100000000E-03 0.  1.
         11    1    1    0    0    0 -0.14921645085E+02 -0.48881268454E+02 -0.21798845412E+02  0.55562789340E+02  0.51100000000E-03 0. -1.
         22    1    1    0    0    0  0.25997475659E+02  0.26967720443E+02  0.13484211145E+01  0.37482594975E+02  0.00000000000E+00 0. -1.
</event>
<event>
 4    1  0.1976955E-002  0.9118800E+02  0.7818608E-02  0.1130116E+00
         25   -1    0    0    0    0  0.00000000000E+00  0.00000000000E+00  0.99999998245E-14  0.12500000000E+03  0.12500000000E+03 0.  0.
        -11    1    1    0    0    0 -0.18634825117E+02 -0.19990645847E+02  0.11944417723E+02  0.29825354038E+02  0.51100000000E-03 0.  1.
         11    1    1    0    0    0 -0.20415136002E+02 -0.21900379370E+02  0.13085415324E+02  0.32674645966E+02  0.51100000000E-03 0.  1.
         22    1    1    0    0    0  0.39049961119E+02  0.41891025216E+02 -0.25029833048E+02  0.62499999996E+02  0.00000000000E+00 0.  1.
</event>
<event>
 4    1  0.1976955E-002  0.9118800E+02  0.7818608E-02  0.1130116E+00
         25   -1    0    0    0    0  0.00000000000E+00  0.00000000000E+00  0.99999998245E-14  0.12500000000E+03  0.12500000000E+03 0.  0.
        -11    1    1    0    0    0 -0.32923687202E+01  0.62315500950E-01 -0.38450352571E+01  0.50623977917E+01  0.51100000000E-03 0.  1.
         11    1    1    0    0    0 -0.37532040047E+02  0.79425986591E+00 -0.43471781706E+02  0.57437624288E+02  0.51100000000E-03 0. -1.
         22    1    1    0    0    0  0.40824408767E+02 -0.85657536686E+00  0.47316816964E+02  0.62499977921E+02  0.00000000000E+00 0. -1.
</event>
<event>
 4    1  0.1976955E-002  0.9118800E+02  0.7818608E-02  0.1130116E+00
         25   -1    0    0    0    0  0.00000000000E+00  0.00000000000E+00  0.99999998245E-14  0.12500000000E+03  0.12500000000E+03 0.  0.
        -11    1    1    0    0    0 -0.66086071743E+01  0.65442044787E+01  0.34829092950E+02  0.36049493991E+02  0.51100000000E-03 0.  1.
         11    1    1    0    0    0 -0.48545369598E+01  0.47979404805E+01  0.25554696619E+02  0.26450506262E+02  0.51100000000E-03 0. -1.
         22    1    1    0    0    0  0.11463144134E+02 -0.11342144959E+02 -0.60383789569E+02  0.62499999747E+02  0.00000000000E+00 0.  1.
</event>
<event>
 4    1  0.1976955E-002  0.9118800E+02  0.7818608E-02  0.1130116E+00
         25   -1    0    0    0    0  0.00000000000E+00  0.00000000000E+00  0.99999998245E-14  0.12500000000E+03  0.12500000000E+03 0.  0.
        -11    1    1    0    0    0 -0.25616555262E+02  0.18225162810E+01 -0.89473222705E+01  0.27195294541E+02  0.51100000000E-03 0. -1.
         11    1    1    0    0    0 -0.27118480692E+02  0.21416768107E+02 -0.11860968523E+02  0.36534538806E+02  0.51100000000E-03 0.  1.
         22    1    1    0    0    0  0.52735035954E+02 -0.23239284388E+02  0.20808290793E+02  0.61270166653E+02  0.00000000000E+00 0. -1.
</event>
<event>
 4    1  0.1976955E-002  0.9118800E+02  0.7818608E-02  0.1130116E+00
         25   -1    0    0    0    0  0.00000000000E+00  0.00000000000E+00  0.99999998245E-14  0.12500000000E+03  0.12500000000E+03 0.  0.
        -11    1    1    0    0    0  0.39132123454E+00 -0.31261732021E+02  0.14020681209E+02  0.34264099625E+02  0.51100000000E-03 0. -1.
         11    1    1    0    0    0  0.32270010765E+00 -0.25762092418E+02  0.11553204278E+02  0.28235900383E+02  0.51100000000E-03 0. -1.
         22    1    1    0    0    0 -0.71402134219E+00  0.57023824439E+02 -0.25573885487E+02  0.62499999992E+02  0.00000000000E+00 0. -1.
</event>
<event>
 4    1  0.1976955E-002  0.9118800E+02  0.7818608E-02  0.1130116E+00
         25   -1    0    0    0    0  0.00000000000E+00  0.00000000000E+00  0.99999998245E-14  0.12500000000E+03  0.12500000000E+03 0.  0.
        -11    1    1    0    0    0 -0.10265254249E+01 -0.10302661439E+01 -0.42216493994E+00  0.15144062443E+01  0.51100000000E-03 0.  1.
         11    1    1    0    0    0 -0.47076541185E+02 -0.32890574947E+02 -0.20559674960E+02  0.60997466218E+02  0.51100000000E-03 0. -1.
         22    1    1    0    0    0  0.48103066610E+02  0.33920841091E+02  0.20981839900E+02  0.62488127538E+02  0.00000000000E+00 0. -1.
</event>
<event>
 4    1  0.1976955E-002  0.9118800E+02  0.7818608E-02  0.1130116E+00
         25   -1    0    0    0    0  0.00000000000E+00  0.00000000000E+00  0.99999998245E-14  0.12500000000E+03  0.12500000000E+03 0.  0.
        -11    1    1    0    0    0 -0.56736871705E+02 -0.19917397226E+02 -0.16656360957E+02  0.62395590258E+02  0.51100000000E-03 0. -1.
         11    1    1    0    0    0  0.21860117588E+01  0.18866004700E+01  0.59636418280E+00  0.29484842280E+01  0.51100000000E-03 0.  1.
         22    1    1    0    0    0  0.54550859946E+02  0.18030796756E+02  0.16059996774E+02  0.59655925514E+02  0.00000000000E+00 0. -1.
</event>
<event>
 4    1  0.1976955E-002  0.9118800E+02  0.7818608E-02  0.1130116E+00
         25   -1    0    0    0    0  0.00000000000E+00  0.00000000000E+00  0.99999998245E-14  0.12500000000E+03  0.12500000000E+03 0.  0.
        -11    1    1    0    0    0 -0.41151771130E+01  0.70311632390E+01  0.14117630014E+01  0.82683138667E+01  0.51100000000E-03 0.  1.
         11    1    1    0    0    0 -0.14001264275E+02  0.36551056418E+02  0.38513845019E+02  0.54912033153E+02  0.51100000000E-03 0. -1.
         22    1    1    0    0    0  0.18116441388E+02 -0.43582219657E+02 -0.39925608020E+02  0.61819652980E+02  0.00000000000E+00 0. -1.
</event>
<event>
 4    1  0.1976955E-002  0.9118800E+02  0.7818608E-02  0.1130116E+00
         25   -1    0    0    0    0  0.00000000000E+00  0.00000000000E+00  0.99999998245E-14  0.12500000000E+03  0.12500000000E+03 0.  0.
        -11    1    1    0    0    0 -0.34080747891E+02 -0.13347820177E+02  0.12413262436E+01  0.36622432625E+02  0.51100000000E-03 0. -1.
         11    1    1    0    0    0 -0.24077972691E+02 -0.94397209840E+01  0.88964094261E+00  0.25877568712E+02  0.51100000000E-03 0.  1.
         22    1    1    0    0    0  0.58158720581E+02  0.22787541161E+02 -0.21309671862E+01  0.62499998664E+02  0.00000000000E+00 0.  1.
</event>
<event>
 4    1  0.1976955E-002  0.9118800E+02  0.7818608E-02  0.1130116E+00
         25   -1    0    0    0    0  0.00000000000E+00  0.00000000000E+00  0.99999998245E-14  0.12500000000E+03  0.12500000000E+03 0.  0.
        -11    1    1    0    0    0  0.17615227020E+02 -0.46735209777E+02 -0.33563396864E+02  0.60174559950E+02  0.51100000000E-03 0. -1.
         11    1    1    0    0    0  0.67952375704E+00 -0.18070614595E+01 -0.12963213644E+01  0.23254403875E+01  0.51100000000E-03 0.  1.
         22    1    1    0    0    0 -0.18294750777E+02  0.48542271237E+02  0.34859718228E+02  0.62499999662E+02  0.00000000000E+00 0. -1.
</event>
<event>
 4    1  0.1976955E-002  0.9118800E+02  0.7818608E-02  0.1130116E+00
         25   -1    0    0    0    0  0.00000000000E+00  0.00000000000E+00  0.99999998245E-14  0.12500000000E+03  0.12500000000E+03 0.  0.
        -11    1    1    0    0    0  0.31977475102E+02 -0.41747203979E+02 -0.21269154846E+01  0.52629950824E+02  0.51100000000E-03 0.  1.
         11    1    1    0    0    0  0.59969480719E+01 -0.78291322170E+01 -0.39896514023E+00  0.98700491839E+01  0.51100000000E-03 0.  1.
         22    1    1    0    0    0 -0.37974423174E+02  0.49576336197E+02  0.25258806249E+01  0.62499999992E+02  0.00000000000E+00 0.  1.
</event>
<event>
 4    1  0.1976955E-002  0.9118800E+02  0.7818608E-02  0.1130116E+00
         25   -1    0    0    0    0  0.00000000000E+00  0.00000000000E+00  0.99999998245E-14  0.12500000000E+03  0.12500000000E+03 0.  0.
        -11    1    1    0    0    0 -0.13884228092E+01 -0.69435410801E+00  0.29294993600E+01  0.33153902162E+01  0.51100000000E-03 0. -1.
         11    1    1    0    0    0 -0.24570987926E+02 -0.11497655012E+02  0.52601459902E+02  0.59184821555E+02  0.51100000000E-03 0.  1.
         22    1    1    0    0    0  0.25959410735E+02  0.12192009120E+02 -0.55530959262E+02  0.62499788229E+02  0.00000000000E+00 0.  1.
</event>
<event>
 4    1  0.1976955E-002  0.9118800E+02  0.7818608E-02  0.1130116E+00
         25   -1    0    0    0    0  0.00000000000E+00  0.00000000000E+00  0.99999998245E-14  0.12500000000E+03  0.12500000000E+03 0.  0.
        -11    1    1    0    0    0  0.10382305392E+02  0.87005612425E+01  0.65988341468E+01  0.15067735183E+02  0.51100000000E-03 0. -1.
         11    1    1    0    0    0  0.32620119326E+02  0.27537651760E+02  0.20674370773E+02  0.47432310258E+02  0.51100000000E-03 0.  1.
         22    1    1    0    0    0 -0.43002424718E+02 -0.36238213002E+02 -0.27273204920E+02  0.62499954559E+02  0.00000000000E+00 0.  1.
</event>
<event>
 4    1  0.1976955E-002  0.9118800E+02  0.7818608E-02  0.1130116E+00
         25   -1    0    0    0    0  0.00000000000E+00  0.00000000000E+00  0.99999998245E-14  0.12500000000E+03  0.12500000000E+03 0.  0.
        -11    1    1    0    0    0  0.26911945198E+02 -0.84245383525E+01 -0.16918293350E+02  0.32885472338E+02  0.51100000000E-03 0.  1.
         11    1    1    0    0    0  0.24239367005E+02 -0.75856921328E+01 -0.15229268724E+02  0.29614527922E+02  0.51100000000E-03 0. -1.
         22    1    1    0    0    0 -0.51151312202E+02  0.16010230485E+02  0.32147562073E+02  0.62499999740E+02  0.00000000000E+00 0. -1.
</event>
