<event>
 5    1  0.8863861E-005  0.9118800E+02  0.7818608E-02  0.1130116E+00
         25   -1    0    0    0    0  0.00000000000E+00  0.00000000000E+00  0.99999998245E-14  0.12500000000E+03  0.12500000000E+03 0.  0.
        -11    1    3    3    0    0 -0.37681401399E+01  0.25326268810E+02  0.26944969952E+02  0.37170555254E+02  0.51100000000E-03 0.  1.
         23    2    1    0    0    0 -0.13583784843E+02 -0.18375823382E+02 -0.14286987957E+02  0.98049895724E+02  0.94273399912E+02 0.  0.
         11    1    3    3    0    0 -0.98156447029E+01 -0.43702092191E+02 -0.41231957908E+02  0.60879340470E+02  0.51100000000E-03 0. -1.
         22    1    1    0    0    0  0.13583784843E+02  0.18375823382E+02  0.14286987957E+02  0.26950104276E+02  0.00000000000E+00 0. -1.
</event>
<event>
 5    1  0.8863861E-005  0.9118800E+02  0.7818608E-02  0.1130116E+00
         25   -1    0    0    0    0  0.00000000000E+00  0.00000000000E+00  0.99999998245E-14  0.12500000000E+03  0.12500000000E+03 0.  0.
        -11    1    3    3    0    0 -0.81400225401E+01 -0.24978073128E+02 -0.52444680790E+02  0.58656701643E+02  0.51100000000E-03 0. -1.
         23    2    1    0    0    0  0.60163825693E+01 -0.69294434750E+00 -0.29334208775E+02  0.95047156470E+02  0.90204152440E+02 0.  0.
         11    1    3    3    0    0  0.14156405109E+02  0.24285128780E+02  0.23110472015E+02  0.36390454827E+02  0.51100000000E-03 0.  1.
         22    1    1    0    0    0 -0.60163825693E+01  0.69294434750E+00  0.29334208775E+02  0.29952843530E+02  0.00000000000E+00 0. -1.
</event>
<event>
 5    1  0.8863861E-005  0.9118800E+02  0.7818608E-02  0.1130116E+00
         25   -1    0    0    0    0  0.00000000000E+00  0.00000000000E+00  0.99999998245E-14  0.12500000000E+03  0.12500000000E+03 0.  0.
        -11    1    3    3    0    0 -0.19254077582E+02 -0.24934077840E+02 -0.35557224576E+02  0.47505199306E+02  0.51100000000E-03 0.  1.
         23    2    1    0    0    0 -0.23927472483E+01  0.19031570962E+02 -0.20461108745E+02  0.96953914645E+02  0.92808828573E+02 0.  0.
         11    1    3    3    0    0  0.16861330334E+02  0.43965648802E+02  0.15096115831E+02  0.49448715339E+02  0.51100000000E-03 0. -1.
         22    1    1    0    0    0  0.23927472483E+01 -0.19031570962E+02  0.20461108745E+02  0.28046085355E+02  0.00000000000E+00 0.  1.
</event>
<event>
 5    1  0.8863861E-005  0.9118800E+02  0.7818608E-02  0.1130116E+00
         25   -1    0    0    0    0  0.00000000000E+00  0.00000000000E+00  0.99999998245E-14  0.12500000000E+03  0.12500000000E+03 0.  0.
        -11    1    3    3    0    0  0.21176425626E+02 -0.11714023941E+02 -0.46780627409E+02  0.52669597114E+02  0.51100000000E-03 0. -1.
         23    2    1    0    0    0  0.47047284363E+01  0.19098905256E+02 -0.21905715594E+02  0.95559160554E+02  0.90910891198E+02 0.  0.
         11    1    3    3    0    0 -0.16471697189E+02  0.30812929196E+02  0.24874911815E+02  0.42889563439E+02  0.51100000000E-03 0.  1.
         22    1    1    0    0    0 -0.47047284363E+01 -0.19098905256E+02  0.21905715594E+02  0.29440839446E+02  0.00000000000E+00 0.  1.
</event>
<event>
 5    1  0.8863861E-005  0.9118800E+02  0.7818608E-02  0.1130116E+00
         25   -1    0    0    0    0  0.00000000000E+00  0.00000000000E+00  0.99999998245E-14  0.12500000000E+03  0.12500000000E+03 0.  0.
        -11    1    3    3    0    0 -0.15519754713E+02 -0.30775642274E+01 -0.41777249747E+02  0.44672953614E+02  0.51100000000E-03 0.  1.
         23    2    1    0    0    0  0.72460446680E+01 -0.30988065459E+02 -0.13650156001E+02  0.90372090403E+02  0.83474682394E+02 0.  0.
         11    1    3    3    0    0  0.22765799381E+02 -0.27910501231E+02  0.28127093746E+02  0.45699136789E+02  0.51100000000E-03 0. -1.
         22    1    1    0    0    0 -0.72460446680E+01  0.30988065459E+02  0.13650156001E+02  0.34627909597E+02  0.00000000000E+00 0. -1.
</event>
<event>
 5    1  0.8863861E-005  0.9118800E+02  0.7818608E-02  0.1130116E+00
         25   -1    0    0    0    0  0.00000000000E+00  0.00000000000E+00  0.99999998245E-14  0.12500000000E+03  0.12500000000E+03 0.  0.
        -11    1    3    3    0    0  0.22403664280E+02 -0.11126651910E+02 -0.23813000117E+02  0.34536727274E+02  0.51100000000E-03 0.  1.
         23    2    1    0    0    0 -0.19940946765E+02 -0.12038533078E+02  0.19134236972E+02  0.94855569983E+02  0.89938270473E+02 0.  0.
         11    1    3    3    0    0 -0.42344611045E+02 -0.91188116730E+00  0.42947237090E+02  0.60318842709E+02  0.51100000000E-03 0. -1.
         22    1    1    0    0    0  0.19940946765E+02  0.12038533078E+02 -0.19134236972E+02  0.30144430017E+02  0.00000000000E+00 0. -1.
</event>
<event>
 5    1  0.8863861E-005  0.9118800E+02  0.7818608E-02  0.1130116E+00
         25   -1    0    0    0    0  0.00000000000E+00  0.00000000000E+00  0.99999998245E-14  0.12500000000E+03  0.12500000000E+03 0.  0.
        -11    1    3    3    0    0 -0.38062517860E+02  0.14251913005E+02 -0.48694771703E+01  0.40933899134E+02  0.51100000000E-03 0.  1.
         23    2    1    0    0    0  0.27577361483E+01  0.30013602552E+02  0.17573141245E+02  0.90111079982E+02  0.83082910370E+02 0.  0.
         11    1    3    3    0    0  0.40820254008E+02  0.15761689547E+02  0.22442618415E+02  0.49177180849E+02  0.51100000000E-03 0. -1.
         22    1    1    0    0    0 -0.27577361483E+01 -0.30013602552E+02 -0.17573141245E+02  0.34888920018E+02  0.00000000000E+00 0. -1.
</event>
<event>
 5    1  0.8863861E-005  0.9118800E+02  0.7818608E-02  0.1130116E+00
         25   -1    0    0    0    0  0.00000000000E+00  0.00000000000E+00  0.99999998245E-14  0.12500000000E+03  0.12500000000E+03 0.  0.
        -11    1    3    3    0    0 -0.30188649924E+02  0.21639048958E+02  0.32144354644E+02  0.49120897384E+02  0.51100000000E-03 0. -1.
         23    2    1    0    0    0  0.15131070732E+02  0.16350004584E+02  0.16205541837E+02  0.97452013910E+02  0.93477288565E+02 0.  0.
         11    1    3    3    0    0  0.45319720656E+02 -0.52890443738E+01 -0.15938812807E+02  0.48331116527E+02  0.51100000000E-03 0.  1.
         22    1    1    0    0    0 -0.15131070732E+02 -0.16350004584E+02 -0.16205541837E+02  0.27547986090E+02  0.00000000000E+00 0.  1.
</event>
<event>
 5    1  0.8863861E-005  0.9118800E+02  0.7818608E-02  0.1130116E+00
         25   -1    0    0    0    0  0.00000000000E+00  0.00000000000E+00  0.99999998245E-14  0.12500000000E+03  0.12500000000E+03 0.  0.
        -11    1    3    3    0    0 -0.14174736490E+02 -0.18005478677E+02  0.27784962148E+02  0.36015615208E+02  0.51100000000E-03 0. -1.
         23    2    1    0    0    0 -0.41372833492E+01  0.28898248547E+02 -0.66465752830E+01  0.95060012598E+02  0.90221966004E+02 0.  0.
         11    1    3    3    0    0  0.10037453141E+02  0.46903727224E+02 -0.34431537431E+02  0.59044397391E+02  0.51100000000E-03 0.  1.
         22    1    1    0    0    0  0.41372833492E+01 -0.28898248547E+02  0.66465752830E+01  0.29939987402E+02  0.00000000000E+00 0.  1.
</event>
<event>
 5    1  0.8863861E-005  0.9118800E+02  0.7818608E-02  0.1130116E+00
         25   -1    0    0    0    0  0.00000000000E+00  0.00000000000E+00  0.99999998245E-14  0.12500000000E+03  0.12500000000E+03 0.  0.
        -11    1    3    3    0    0  0.22423137773E+01 -0.47828140144E+02  0.27342513134E+01  0.47958681082E+02  0.51100000000E-03 0.  1.
         23    2    1    0    0    0 -0.98414494124E+01 -0.19101991752E+02 -0.26632683176E+02  0.90779537867E+02  0.84082605019E+02 0.  0.
         11    1    3    3    0    0 -0.12083763190E+02  0.28726148391E+02 -0.29366934489E+02  0.42820856785E+02  0.51100000000E-03 0. -1.
         22    1    1    0    0    0  0.98414494124E+01  0.19101991752E+02  0.26632683176E+02  0.34220462133E+02  0.00000000000E+00 0. -1.
</event>
<event>
 5    1  0.8863861E-005  0.9118800E+02  0.7818608E-02  0.1130116E+00
         25   -1    0    0    0    0  0.00000000000E+00  0.00000000000E+00  0.99999998245E-14  0.12500000000E+03  0.12500000000E+03 0.  0.
        -11    1    3    3    0    0 -0.16570496931E+02  0.36775557123E+01 -0.33219102647E+02  0.37304350490E+02  0.51100000000E-03 0.  1.
         23    2    1    0    0    0  0.27297534017E+02 -0.74785272483E+01  0.46455568376E+01  0.96317863895E+02  0.91948170041E+02 0.  0.
         11    1    3    3    0    0  0.43868030948E+02 -0.11156082961E+02  0.37864659484E+02  0.59013513405E+02  0.51100000000E-03 0. -1.
         22    1    1    0    0    0 -0.27297534017E+02  0.74785272483E+01 -0.46455568376E+01  0.28682136105E+02  0.00000000000E+00 0. -1.
</event>
<event>
 5    1  0.8863861E-005  0.9118800E+02  0.7818608E-02  0.1130116E+00
         25   -1    0    0    0    0  0.00000000000E+00  0.00000000000E+00  0.99999998245E-14  0.12500000000E+03  0.12500000000E+03 0.  0.
        -11    1    3    3    0    0 -0.38784202435E+02  0.33267109647E+02  0.30878616501E+02  0.59702628921E+02  0.51100000000E-03 0.  1.
         23    2    1    0    0    0 -0.25236801917E+02  0.44270324829E+01  0.12424045834E+02  0.96524542102E+02  0.92228713130E+02 0.  0.
         11    1    3    3    0    0  0.13547400518E+02 -0.28840077164E+02 -0.18454570666E+02  0.36821913182E+02  0.51100000000E-03 0. -1.
         22    1    1    0    0    0  0.25236801917E+02 -0.44270324829E+01 -0.12424045834E+02  0.28475457898E+02  0.00000000000E+00 0.  1.
</event>
<event>
 5    1  0.8863861E-005  0.9118800E+02  0.7818608E-02  0.1130116E+00
         25   -1    0    0    0    0  0.00000000000E+00  0.00000000000E+00  0.99999998245E-14  0.12500000000E+03  0.12500000000E+03 0.  0.
        -11    1    3    3    0    0 -0.42829580297E+02  0.18681367144E+02 -0.23379132684E+02  0.52248926038E+02  0.51100000000E-03 0.  1.
         23    2    1    0    0    0 -0.12422390896E+02 -0.50765444793E+01 -0.30672652474E+02  0.91520174594E+02  0.85176544005E+02 0.  0.
         11    1    3    3    0    0  0.30407189401E+02 -0.23757911623E+02 -0.72935197898E+01  0.39271248556E+02  0.51100000000E-03 0. -1.
         22    1    1    0    0    0  0.12422390896E+02  0.50765444793E+01  0.30672652474E+02  0.33479825406E+02  0.00000000000E+00 0.  1.
</event>
<event>
 5    1  0.8863861E-005  0.9118800E+02  0.7818608E-02  0.1130116E+00
         25   -1    0    0    0    0  0.00000000000E+00  0.00000000000E+00  0.99999998245E-14  0.12500000000E+03  0.12500000000E+03 0.  0.
        -11    1    3    3    0    0  0.52635606483E+00  0.13231361270E+02 -0.35429056086E+02  0.37822797189E+02  0.51100000000E-03 0.  1.
         23    2    1    0    0    0  0.24692137033E+02  0.46318115841E+01  0.15945027888E+02  0.95244341308E+02  0.90476987832E+02 0.  0.
         11    1    3    3    0    0  0.24165780968E+02 -0.85995496860E+01  0.51374083975E+02  0.57421544120E+02  0.51100000000E-03 0. -1.
         22    1    1    0    0    0 -0.24692137033E+02 -0.46318115841E+01 -0.15945027888E+02  0.29755658692E+02  0.00000000000E+00 0. -1.
</event>
<event>
 5    1  0.8863861E-005  0.9118800E+02  0.7818608E-02  0.1130116E+00
         25   -1    0    0    0    0  0.00000000000E+00  0.00000000000E+00  0.99999998245E-14  0.12500000000E+03  0.12500000000E+03 0.  0.
        -11    1    3    3    0    0  0.16843789568E+02 -0.41891945955E+02 -0.33198094318E+02  0.56042500385E+02  0.51100000000E-03 0.  1.
         23    2    1    0    0    0  0.25135902134E+02 -0.10755810694E+02 -0.94403434830E+01  0.96075596379E+02  0.91618224686E+02 0.  0.
         11    1    3    3    0    0  0.82921125666E+01  0.31136135261E+02  0.23757750835E+02  0.40033095993E+02  0.51100000000E-03 0. -1.
         22    1    1    0    0    0 -0.25135902134E+02  0.10755810694E+02  0.94403434830E+01  0.28924403621E+02  0.00000000000E+00 0.  1.
</event>
<event>
 5    1  0.8863861E-005  0.9118800E+02  0.7818608E-02  0.1130116E+00
         25   -1    0    0    0    0  0.00000000000E+00  0.00000000000E+00  0.99999998245E-14  0.12500000000E+03  0.12500000000E+03 0.  0.
        -11    1    3    3    0    0 -0.10639068891E+01  0.35154095525E+02  0.48670971140E+01  0.35505365294E+02  0.51100000000E-03 0. -1.
         23    2    1    0    0    0 -0.61447550734E+01 -0.25039767304E+02  0.12416635962E+02  0.96383207549E+02  0.92036959355E+02 0.  0.
         11    1    3    3    0    0 -0.50808481843E+01 -0.60193862829E+02  0.75495388484E+01  0.60877842255E+02  0.51100000000E-03 0.  1.
         22    1    1    0    0    0  0.61447550734E+01  0.25039767304E+02 -0.12416635962E+02  0.28616792451E+02  0.00000000000E+00 0.  1.
</event>
<event>
 5    1  0.8863861E-005  0.9118800E+02  0.7818608E-02  0.1130116E+00
         25   -1    0    0    0    0  0.00000000000E+00  0.00000000000E+00  0.99999998245E-14  0.12500000000E+03  0.12500000000E+03 0.  0.
        -11    1    3    3    0    0  0.10238025115E+02  0.18217859826E+02 -0.30604380900E+02  0.37058544297E+02  0.51100000000E-03 0.  1.
         23    2    1    0    0    0 -0.19968800759E+02  0.57095988635E+01  0.19253185352E+02  0.96679730419E+02  0.92438804648E+02 0.  0.
         11    1    3    3    0    0 -0.30206825874E+02 -0.12508260962E+02  0.49857566252E+02  0.59621186122E+02  0.51100000000E-03 0. -1.
         22    1    1    0    0    0  0.19968800759E+02 -0.57095988635E+01 -0.19253185352E+02  0.28320269581E+02  0.00000000000E+00 0. -1.
</event>
<event>
 5    1  0.8863861E-005  0.9118800E+02  0.7818608E-02  0.1130116E+00
         25   -1    0    0    0    0  0.00000000000E+00  0.00000000000E+00  0.99999998245E-14  0.12500000000E+03  0.12500000000E+03 0.  0.
        -11    1    3    3    0    0 -0.22197439731E+02 -0.27730099156E+02  0.39497725361E+02  0.53120194265E+02  0.51100000000E-03 0.  1.
         23    2    1    0    0    0  0.10896403387E+02 -0.24256351766E+02  0.14732086749E+02  0.94600385072E+02  0.89582901650E+02 0.  0.
         11    1    3    3    0    0  0.33093843119E+02  0.34737473899E+01 -0.24765638611E+02  0.41480190807E+02  0.51100000000E-03 0. -1.
         22    1    1    0    0    0 -0.10896403387E+02  0.24256351766E+02 -0.14732086749E+02  0.30399614928E+02  0.00000000000E+00 0.  1.
</event>
<event>
 5    1  0.8863861E-005  0.9118800E+02  0.7818608E-02  0.1130116E+00
         25   -1    0    0    0    0  0.00000000000E+00  0.00000000000E+00  0.99999998245E-14  0.12500000000E+03  0.12500000000E+03 0.  0.
        -11    1    3    3    0    0  0.55553836023E+01 -0.28989421535E+02  0.54388977491E+02  0.61882224594E+02  0.51100000000E-03 0. -1.
         23    2    1    0    0    0  0.88686444266E+01 -0.13622222636E+02  0.25861633632E+02  0.94454265476E+02  0.89378780306E+02 0.  0.
         11    1    3    3    0    0  0.33132608243E+01  0.15367198899E+02 -0.28527343859E+02  0.32572040882E+02  0.51100000000E-03 0.  1.
         22    1    1    0    0    0 -0.88686444266E+01  0.13622222636E+02 -0.25861633632E+02  0.30545734524E+02  0.00000000000E+00 0. -1.
</event>
<event>
 5    1  0.8863861E-005  0.9118800E+02  0.7818608E-02  0.1130116E+00
         25   -1    0    0    0    0  0.00000000000E+00  0.00000000000E+00  0.99999998245E-14  0.12500000000E+03  0.12500000000E+03 0.  0.
        -11    1    3    3    0    0 -0.26773126570E+02 -0.24008080366E+02  0.44278477239E+02  0.57041842327E+02  0.51100000000E-03 0. -1.
         23    2    1    0    0    0 -0.20575345642E+02 -0.62766631041E+01  0.18898775338E+01  0.10340571869E+03  0.10112581111E+03 0.  0.
         11    1    3    3    0    0  0.61977809279E+01  0.17731417261E+02 -0.42388599706E+02  0.46363876367E+02  0.51100000000E-03 0.  1.
         22    1    1    0    0    0  0.20575345642E+02  0.62766631041E+01 -0.18898775338E+01  0.21594281306E+02  0.00000000000E+00 0. -1.
</event>
<event>
 5    1  0.8863861E-005  0.9118800E+02  0.7818608E-02  0.1130116E+00
         25   -1    0    0    0    0  0.00000000000E+00  0.00000000000E+00  0.99999998245E-14  0.12500000000E+03  0.12500000000E+03 0.  0.
        -11    1    3    3    0    0  0.45674203707E+02 -0.74621982509E+01  0.18732999454E+01  0.46317669846E+02  0.51100000000E-03 0.  1.
         23    2    1    0    0    0  0.69680128129E+01  0.25221882193E+02  0.86765731149E+01  0.97432274941E+02  0.93450889430E+02 0.  0.
         11    1    3    3    0    0 -0.38706190894E+02  0.32684080444E+02  0.68032731695E+01  0.51114605095E+02  0.51100000000E-03 0. -1.
         22    1    1    0    0    0 -0.69680128129E+01 -0.25221882193E+02 -0.86765731149E+01  0.27567725059E+02  0.00000000000E+00 0. -1.
</event>
<event>
 5    1  0.8863861E-005  0.9118800E+02  0.7818608E-02  0.1130116E+00
         25   -1    0    0    0    0  0.00000000000E+00  0.00000000000E+00  0.99999998245E-14  0.12500000000E+03  0.12500000000E+03 0.  0.
        -11    1    3    3    0    0 -0.61411058460E+01  0.42287428525E+01  0.51733654916E+02  0.52268216905E+02  0.51100000000E-03 0.  1.
         23    2    1    0    0    0  0.60069713935E+01  0.24445468116E+02  0.15706607717E+02  0.95329102766E+02  0.90594015759E+02 0.  0.
         11    1    3    3    0    0  0.12148077239E+02  0.20216725263E+02 -0.36027047199E+02  0.43060885861E+02  0.51100000000E-03 0. -1.
         22    1    1    0    0    0 -0.60069713935E+01 -0.24445468116E+02 -0.15706607717E+02  0.29670897234E+02  0.00000000000E+00 0.  1.
</event>
<event>
 5    1  0.8863861E-005  0.9118800E+02  0.7818608E-02  0.1130116E+00
         25   -1    0    0    0    0  0.00000000000E+00  0.00000000000E+00  0.99999998245E-14  0.12500000000E+03  0.12500000000E+03 0.  0.
        -11    1    3    3    0    0  0.22088058843E+02  0.37073342694E+02  0.15648364138E+02  0.45904099843E+02  0.51100000000E-03 0. -1.
         23    2    1    0    0    0 -0.10330608786E+02  0.20926433415E+02 -0.18144841319E+02  0.95438667827E+02  0.90745065744E+02 0.  0.
         11    1    3    3    0    0 -0.32418667629E+02 -0.16146909279E+02 -0.33793205456E+02  0.49534567984E+02  0.51100000000E-03 0.  1.
         22    1    1    0    0    0  0.10330608786E+02 -0.20926433415E+02  0.18144841319E+02  0.29561332173E+02  0.00000000000E+00 0.  1.
</event>
<event>
 5    1  0.8863861E-005  0.9118800E+02  0.7818608E-02  0.1130116E+00
         25   -1    0    0    0    0  0.00000000000E+00  0.00000000000E+00  0.99999998245E-14  0.12500000000E+03  0.12500000000E+03 0.  0.
        -11    1    3    3    0    0 -0.35636294405E+02 -0.29222913399E+02 -0.20885098063E+02  0.50597544089E+02  0.51100000000E-03 0.  1.
         23    2    1    0    0    0 -0.27276266345E+02  0.10386982821E+01  0.11207333037E+02  0.95492748118E+02  0.90819530001E+02 0.  0.
         11    1    3    3    0    0  0.83600280609E+01  0.30261611681E+02  0.32092431100E+02  0.44895204029E+02  0.51100000000E-03 0. -1.
         22    1    1    0    0    0  0.27276266345E+02 -0.10386982821E+01 -0.11207333037E+02  0.29507251882E+02  0.00000000000E+00 0. -1.
</event>
<event>
 5    1  0.8863861E-005  0.9118800E+02  0.7818608E-02  0.1130116E+00
         25   -1    0    0    0    0  0.00000000000E+00  0.00000000000E+00  0.99999998245E-14  0.12500000000E+03  0.12500000000E+03 0.  0.
        -11    1    3    3    0    0 -0.26888391438E+02  0.18226451998E+02 -0.40284853272E+02  0.51749961835E+02  0.51100000000E-03 0. -1.
         23    2    1    0    0    0  0.62148745674E+01  0.26360015800E+02 -0.17285495463E+02  0.92871142998E+02  0.87136592483E+02 0.  0.
         11    1    3    3    0    0  0.33103266005E+02  0.81335638018E+01  0.22999357809E+02  0.41121181163E+02  0.51100000000E-03 0.  1.
         22    1    1    0    0    0 -0.62148745674E+01 -0.26360015800E+02  0.17285495463E+02  0.32128857002E+02  0.00000000000E+00 0. -1.
</event>
<event>
 5    1  0.8863861E-005  0.9118800E+02  0.7818608E-02  0.1130116E+00
         25   -1    0    0    0    0  0.00000000000E+00  0.00000000000E+00  0.99999998245E-14  0.12500000000E+03  0.12500000000E+03 0.  0.
        -11    1    3    3    0    0  0.36748615816E+02 -0.80897141635E+01 -0.46889839598E+01  0.37919530726E+02  0.51100000000E-03 0. -1.
         23    2    1    0    0    0  0.29515852921E+01  0.25274449498E+02  0.21084495430E+02  0.91953584148E+02  0.85810232705E+02 0.  0.
         11    1    3    3    0    0 -0.33797030524E+02  0.33364163661E+02  0.25773479390E+02  0.54034053422E+02  0.51100000000E-03 0.  1.
         22    1    1    0    0    0 -0.29515852921E+01 -0.25274449498E+02 -0.21084495430E+02  0.33046415852E+02  0.00000000000E+00 0.  1.
</event>
<event>
 5    1  0.8863861E-005  0.9118800E+02  0.7818608E-02  0.1130116E+00
         25   -1    0    0    0    0  0.00000000000E+00  0.00000000000E+00  0.99999998245E-14  0.12500000000E+03  0.12500000000E+03 0.  0.
        -11    1    3    3    0    0 -0.40209364361E+02 -0.18471208082E+02  0.32505700977E+02  0.54905365007E+02  0.51100000000E-03 0. -1.
         23    2    1    0    0    0 -0.22036490452E+01 -0.54504179482E+01  0.29198434657E+02  0.95215579385E+02  0.90437242584E+02 0.  0.
         11    1    3    3    0    0  0.38005715316E+02  0.13020790134E+02 -0.33072663194E+01  0.40310214378E+02  0.51100000000E-03 0.  1.
         22    1    1    0    0    0  0.22036490452E+01  0.54504179482E+01 -0.29198434657E+02  0.29784420615E+02  0.00000000000E+00 0. -1.
</event>
<event>
 5    1  0.8863861E-005  0.9118800E+02  0.7818608E-02  0.1130116E+00
         25   -1    0    0    0    0  0.00000000000E+00  0.00000000000E+00  0.99999998245E-14  0.12500000000E+03  0.12500000000E+03 0.  0.
        -11    1    3    3    0    0 -0.23194305749E+00  0.60230920331E+02 -0.15843316424E+02  0.62280239539E+02  0.51100000000E-03 0.  1.
         23    2    1    0    0    0 -0.21172719784E+01  0.28567976550E+02 -0.43086843310E+01  0.96031450063E+02  0.91557973524E+02 0.  0.
         11    1    3    3    0    0 -0.18853289209E+01 -0.31662943781E+02  0.11534632093E+02  0.33751210524E+02  0.51100000000E-03 0. -1.
         22    1    1    0    0    0  0.21172719784E+01 -0.28567976550E+02  0.43086843310E+01  0.28968549937E+02  0.00000000000E+00 0.  1.
</event>
<event>
 5    1  0.8863861E-005  0.9118800E+02  0.7818608E-02  0.1130116E+00
         25   -1    0    0    0    0  0.00000000000E+00  0.00000000000E+00  0.99999998245E-14  0.12500000000E+03  0.12500000000E+03 0.  0.
        -11    1    3    3    0    0 -0.25821460380E+02 -0.16746112051E+02  0.23979058849E+02  0.39015065661E+02  0.51100000000E-03 0. -1.
         23    2    1    0    0    0 -0.13431127074E+02  0.12867752301E+02 -0.22691077682E+02  0.95659597308E+02  0.91048884271E+02 0.  0.
         11    1    3    3    0    0  0.12390333306E+02  0.29613864353E+02 -0.46670136531E+02  0.56644531646E+02  0.51100000000E-03 0.  1.
         22    1    1    0    0    0  0.13431127074E+02 -0.12867752301E+02  0.22691077682E+02  0.29340402692E+02  0.00000000000E+00 0.  1.
</event>
<event>
 5    1  0.8863861E-005  0.9118800E+02  0.7818608E-02  0.1130116E+00
         25   -1    0    0    0    0  0.00000000000E+00  0.00000000000E+00  0.99999998245E-14  0.12500000000E+03  0.12500000000E+03 0.  0.
        -11    1    3    3    0    0 -0.38028565942E+02  0.34812276592E+02  0.16867700641E+02  0.54245605852E+02  0.51100000000E-03 0. -1.
         23    2    1    0    0    0 -0.10954852859E+02  0.24238804289E+02 -0.12539979789E+02  0.95592866042E+02  0.90957223520E+02 0.  0.
         11    1    3    3    0    0  0.27073713083E+02 -0.10573472303E+02 -0.29407680430E+02  0.41347260190E+02  0.51100000000E-03 0.  1.
         22    1    1    0    0    0  0.10954852859E+02 -0.24238804289E+02  0.12539979789E+02  0.29407133958E+02  0.00000000000E+00 0. -1.
</event>
<event>
 5    1  0.8863861E-005  0.9118800E+02  0.7818608E-02  0.1130116E+00
         25   -1    0    0    0    0  0.00000000000E+00  0.00000000000E+00  0.99999998245E-14  0.12500000000E+03  0.12500000000E+03 0.  0.
        -11    1    3    3    0    0  0.31384257672E+02 -0.35143825903E+02 -0.30244330698E+02  0.55989103122E+02  0.51100000000E-03 0.  1.
         23    2    1    0    0    0  0.27168119242E+02 -0.53633048902E+01 -0.20225502927E+01  0.97233789380E+02  0.93185016741E+02 0.  0.
         11    1    3    3    0    0 -0.42161384299E+01  0.29780521013E+02  0.28221780405E+02  0.41244686259E+02  0.51100000000E-03 0. -1.
         22    1    1    0    0    0 -0.27168119242E+02  0.53633048902E+01  0.20225502927E+01  0.27766210620E+02  0.00000000000E+00 0.  1.
</event>
<event>
 5    1  0.8863861E-005  0.9118800E+02  0.7818608E-02  0.1130116E+00
         25   -1    0    0    0    0  0.00000000000E+00  0.00000000000E+00  0.99999998245E-14  0.12500000000E+03  0.12500000000E+03 0.  0.
        -11    1    3    3    0    0  0.41635766655E+02  0.21086452966E+01  0.96696020602E+01  0.42795848563E+02  0.51100000000E-03 0. -1.
         23    2    1    0    0    0  0.51846343622E+01 -0.14046427343E+02 -0.25149991542E+02  0.95730482937E+02  0.91146150408E+02 0.  0.
         11    1    3    3    0    0 -0.36451132293E+02 -0.16155072640E+02 -0.34819593602E+02  0.52934634374E+02  0.51100000000E-03 0.  1.
         22    1    1    0    0    0 -0.51846343622E+01  0.14046427343E+02  0.25149991542E+02  0.29269517063E+02  0.00000000000E+00 0.  1.
</event>
<event>
 5    1  0.8863861E-005  0.9118800E+02  0.7818608E-02  0.1130116E+00
         25   -1    0    0    0    0  0.00000000000E+00  0.00000000000E+00  0.99999998245E-14  0.12500000000E+03  0.12500000000E+03 0.  0.
        -11    1    3    3    0    0 -0.21678078436E+02 -0.83284293167E+01  0.30085137658E+02  0.38005490757E+02  0.51100000000E-03 0.  1.
         23    2    1    0    0    0 -0.70568695776E+01 -0.84536195170E+01 -0.26422718823E+02  0.96374431688E+02  0.92025039647E+02 0.  0.
         11    1    3    3    0    0  0.14621208858E+02 -0.12519020027E+00 -0.56507856481E+02  0.58368940931E+02  0.51100000000E-03 0. -1.
         22    1    1    0    0    0  0.70568695776E+01  0.84536195170E+01  0.26422718823E+02  0.28625568312E+02  0.00000000000E+00 0. -1.
</event>
<event>
 5    1  0.8863861E-005  0.9118800E+02  0.7818608E-02  0.1130116E+00
         25   -1    0    0    0    0  0.00000000000E+00  0.00000000000E+00  0.99999998245E-14  0.12500000000E+03  0.12500000000E+03 0.  0.
        -11    1    3    3    0    0 -0.16106861537E+01 -0.22852061555E+02  0.33967890687E+02  0.40971070589E+02  0.51100000000E-03 0.  1.
         23    2    1    0    0    0 -0.80755078286E+01  0.26163631202E+02  0.10887646522E+02  0.95533234464E+02  0.90875236539E+02 0.  0.
         11    1    3    3    0    0 -0.64648216748E+01  0.49015692757E+02 -0.23080244166E+02  0.54562163875E+02  0.51100000000E-03 0. -1.
         22    1    1    0    0    0  0.80755078286E+01 -0.26163631202E+02 -0.10887646522E+02  0.29466765536E+02  0.00000000000E+00 0. -1.
</event>
<event>
 4    1  0.8863861E-005  0.9118800E+02  0.7818608E-02  0.1130116E+00
         25   -1    0    0    0    0  0.00000000000E+00  0.00000000000E+00  0.99999998245E-14  0.12500000000E+03  0.12500000000E+03 0.  0.
        -11    1    1    0    0    0  0.30119891645E+02 -0.29650198511E+02 -0.31045875928E+02  0.52442240197E+02  0.51100000000E-03 0. -1.
         11    1    1    0    0    0  0.13453769374E+02  0.27920999288E+01  0.10942815027E+02  0.17565447144E+02  0.51100000000E-03 0.  1.
         22    1    1    0    0    0 -0.43573661019E+02  0.26858098583E+02  0.20103060902E+02  0.54992312660E+02  0.00000000000E+00 0. -1.
</event>
<event>
 5    1  0.8863861E-005  0.9118800E+02  0.7818608E-02  0.1130116E+00
         25   -1    0    0    0    0  0.00000000000E+00  0.00000000000E+00  0.99999998245E-14  0.12500000000E+03  0.12500000000E+03 0.  0.
        -11    1    3    3    0    0  0.28035873740E+02  0.25488004542E+02 -0.45185814971E+01  0.38158435122E+02  0.51100000000E-03 0. -1.
         23    2    1    0    0    0 -0.64427866246E+01 -0.98775478357E+01  0.26161856912E+02  0.96302993051E+02  0.91927951477E+02 0.  0.
         11    1    3    3    0    0 -0.34478660365E+02 -0.35365552378E+02  0.30680438409E+02  0.58144557929E+02  0.51100000000E-03 0.  1.
         22    1    1    0    0    0  0.64427866246E+01  0.98775478357E+01 -0.26161856912E+02  0.28697006949E+02  0.00000000000E+00 0.  1.
</event>
<event>
 5    1  0.8863861E-005  0.9118800E+02  0.7818608E-02  0.1130116E+00
         25   -1    0    0    0    0  0.00000000000E+00  0.00000000000E+00  0.99999998245E-14  0.12500000000E+03  0.12500000000E+03 0.  0.
        -11    1    3    3    0    0 -0.39481674444E+02 -0.14819122801E+02 -0.90046118648E+01  0.43121828030E+02  0.51100000000E-03 0.  1.
         23    2    1    0    0    0 -0.27557108357E+00  0.16111050356E+02 -0.24735693537E+02  0.95478881835E+02  0.90800443053E+02 0.  0.
         11    1    3    3    0    0  0.39206103361E+02  0.30930173157E+02 -0.15731081672E+02  0.52357053805E+02  0.51100000000E-03 0. -1.
         22    1    1    0    0    0  0.27557108357E+00 -0.16111050356E+02  0.24735693537E+02  0.29521118165E+02  0.00000000000E+00 0. -1.
</event>
<event>
 5    1  0.8863861E-005  0.9118800E+02  0.7818608E-02  0.1130116E+00
         25   -1    0    0    0    0  0.00000000000E+00  0.00000000000E+00  0.99999998245E-14  0.12500000000E+03  0.12500000000E+03 0.  0.
        -11    1    3    3    0    0 -0.45756647325E+02  0.11546681477E+02  0.36854616346E+02  0.59877035446E+02  0.51100000000E-03 0. -1.
         23    2    1    0    0    0 -0.27792008175E+02 -0.13678329885E+01  0.83741540855E+01  0.95941556440E+02  0.91435163422E+02 0.  0.
         11    1    3    3    0    0  0.17964639149E+02 -0.12914514465E+02 -0.28480462261E+02  0.36064520994E+02  0.51100000000E-03 0.  1.
         22    1    1    0    0    0  0.27792008175E+02  0.13678329885E+01 -0.83741540855E+01  0.29058443560E+02  0.00000000000E+00 0. -1.
</event>
<event>
 5    1  0.8863861E-005  0.9118800E+02  0.7818608E-02  0.1130116E+00
         25   -1    0    0    0    0  0.00000000000E+00  0.00000000000E+00  0.99999998245E-14  0.12500000000E+03  0.12500000000E+03 0.  0.
        -11    1    3    3    0    0  0.57953912905E+02  0.20320978269E+02 -0.21379817446E+00  0.61413710919E+02  0.51100000000E-03 0.  1.
         23    2    1    0    0    0  0.22477987441E+02  0.16357753949E+02 -0.17657758868E+01  0.97144049143E+02  0.93064559774E+02 0.  0.
         11    1    3    3    0    0 -0.35475925465E+02 -0.39632243207E+01 -0.15519777123E+01  0.35730338225E+02  0.51100000000E-03 0. -1.
         22    1    1    0    0    0 -0.22477987441E+02 -0.16357753949E+02  0.17657758868E+01  0.27855950857E+02  0.00000000000E+00 0.  1.
</event>
<event>
 5    1  0.8863861E-005  0.9118800E+02  0.7818608E-02  0.1130116E+00
         25   -1    0    0    0    0  0.00000000000E+00  0.00000000000E+00  0.99999998245E-14  0.12500000000E+03  0.12500000000E+03 0.  0.
        -11    1    3    3    0    0 -0.20970359858E+02  0.54647300279E+02  0.20521775072E+02  0.62026016096E+02  0.51100000000E-03 0.  1.
         23    2    1    0    0    0 -0.57598979085E+01  0.28380287852E+02  0.12751521851E+02  0.93357963529E+02  0.87832174528E+02 0.  0.
         11    1    3    3    0    0  0.15210461950E+02 -0.26267012427E+02 -0.77702532204E+01  0.31331947433E+02  0.51100000000E-03 0. -1.
         22    1    1    0    0    0  0.57598979085E+01 -0.28380287852E+02 -0.12751521851E+02  0.31642036471E+02  0.00000000000E+00 0.  1.
</event>
<event>
 5    1  0.8863861E-005  0.9118800E+02  0.7818608E-02  0.1130116E+00
         25   -1    0    0    0    0  0.00000000000E+00  0.00000000000E+00  0.99999998245E-14  0.12500000000E+03  0.12500000000E+03 0.  0.
        -11    1    3    3    0    0  0.19082335043E+02  0.23987896244E+02 -0.15280404783E+02  0.34249751057E+02  0.51100000000E-03 0.  1.
         23    2    1    0    0    0 -0.90871796775E+01 -0.23586435078E+02  0.13245211626E+02  0.96463490312E+02  0.92145930881E+02 0.  0.
         11    1    3    3    0    0 -0.28169514721E+02 -0.47574331321E+02  0.28525616409E+02  0.62213739255E+02  0.51100000000E-03 0. -1.
         22    1    1    0    0    0  0.90871796775E+01  0.23586435078E+02 -0.13245211626E+02  0.28536509688E+02  0.00000000000E+00 0. -1.
</event>
<event>
 5    1  0.8863861E-005  0.9118800E+02  0.7818608E-02  0.1130116E+00
         25   -1    0    0    0    0  0.00000000000E+00  0.00000000000E+00  0.99999998245E-14  0.12500000000E+03  0.12500000000E+03 0.  0.
        -11    1    3    3    0    0  0.12738272571E+02 -0.33705352763E+02  0.23859680477E+02  0.43215723362E+02  0.51100000000E-03 0. -1.
         23    2    1    0    0    0 -0.21446247525E+02 -0.13644225178E+02 -0.12204234631E+02  0.96803373313E+02  0.92605849319E+02 0.  0.
         11    1    3    3    0    0 -0.34184520096E+02  0.20061127584E+02 -0.36063915108E+02  0.53587649951E+02  0.51100000000E-03 0.  1.
         22    1    1    0    0    0  0.21446247525E+02  0.13644225178E+02  0.12204234631E+02  0.28196626687E+02  0.00000000000E+00 0.  1.
</event>
<event>
 5    1  0.8863861E-005  0.9118800E+02  0.7818608E-02  0.1130116E+00
         25   -1    0    0    0    0  0.00000000000E+00  0.00000000000E+00  0.99999998245E-14  0.12500000000E+03  0.12500000000E+03 0.  0.
        -11    1    3    3    0    0 -0.10640519096E+02 -0.19617425220E+02 -0.30374052270E+02  0.37691472118E+02  0.51100000000E-03 0.  1.
         23    2    1    0    0    0  0.56595833649E+00 -0.25669440760E+02  0.21750805568E+02  0.91349769085E+02  0.84926098882E+02 0.  0.
         11    1    3    3    0    0  0.11206477432E+02 -0.60520155408E+01  0.52124857838E+02  0.53658296967E+02  0.51100000000E-03 0. -1.
         22    1    1    0    0    0 -0.56595833649E+00  0.25669440760E+02 -0.21750805568E+02  0.33650230915E+02  0.00000000000E+00 0. -1.
</event>
<event>
 5    1  0.8863861E-005  0.9118800E+02  0.7818608E-02  0.1130116E+00
         25   -1    0    0    0    0  0.00000000000E+00  0.00000000000E+00  0.99999998245E-14  0.12500000000E+03  0.12500000000E+03 0.  0.
        -11    1    3    3    0    0 -0.31691586162E+02  0.75510613912E+01 -0.73751112805E+01  0.33403105069E+02  0.51100000000E-03 0.  1.
         23    2    1    0    0    0  0.21762248844E+02 -0.17218832302E+02  0.11049130454E+02  0.95130836229E+02  0.90320036854E+02 0.  0.
         11    1    3    3    0    0  0.53453835006E+02 -0.24769893693E+02  0.18424241734E+02  0.61727731160E+02  0.51100000000E-03 0. -1.
         22    1    1    0    0    0 -0.21762248844E+02  0.17218832302E+02 -0.11049130454E+02  0.29869163771E+02  0.00000000000E+00 0. -1.
</event>
<event>
 5    1  0.8863861E-005  0.9118800E+02  0.7818608E-02  0.1130116E+00
         25   -1    0    0    0    0  0.00000000000E+00  0.00000000000E+00  0.99999998245E-14  0.12500000000E+03  0.12500000000E+03 0.  0.
        -11    1    3    3    0    0  0.19913527621E+02 -0.42043968352E+02 -0.28450958180E+02  0.54531650247E+02  0.51100000000E-03 0.  1.
         23    2    1    0    0    0 -0.93296981231E+01 -0.12229634573E+02 -0.23950496517E+02  0.96535398961E+02  0.92243426543E+02 0.  0.
         11    1    3    3    0    0 -0.29243225744E+02  0.29814333779E+02  0.45004616629E+01  0.42003748714E+02  0.51100000000E-03 0. -1.
         22    1    1    0    0    0  0.93296981231E+01  0.12229634573E+02  0.23950496517E+02  0.28464601039E+02  0.00000000000E+00 0.  1.
</event>
<event>
 5    1  0.8863861E-005  0.9118800E+02  0.7818608E-02  0.1130116E+00
         25   -1    0    0    0    0  0.00000000000E+00  0.00000000000E+00  0.99999998245E-14  0.12500000000E+03  0.12500000000E+03 0.  0.
        -11    1    3    3    0    0 -0.35274135837E+01 -0.20825932016E+02  0.28185966833E+02  0.35222305681E+02  0.51100000000E-03 0. -1.
         23    2    1    0    0    0 -0.12906157633E+02  0.15578916538E+02 -0.20143337494E+02  0.96451346954E+02  0.92129456410E+02 0.  0.
         11    1    3    3    0    0 -0.93787440493E+01  0.36404848555E+02 -0.48329304327E+02  0.61229041273E+02  0.51100000000E-03 0.  1.
         22    1    1    0    0    0  0.12906157633E+02 -0.15578916538E+02  0.20143337494E+02  0.28548653046E+02  0.00000000000E+00 0.  1.
</event>
<event>
 5    1  0.8863861E-005  0.9118800E+02  0.7818608E-02  0.1130116E+00
         25   -1    0    0    0    0  0.00000000000E+00  0.00000000000E+00  0.99999998245E-14  0.12500000000E+03  0.12500000000E+03 0.  0.
        -11    1    3    3    0    0  0.12436612899E+02 -0.23106603874E+02  0.23372954617E+02  0.35140852163E+02  0.51100000000E-03 0.  1.
         23    2    1    0    0    0 -0.14734109748E+02  0.15806555453E+01 -0.25042988065E+02  0.95901138970E+02  0.91379892441E+02 0.  0.
         11    1    3    3    0    0 -0.27170722647E+02  0.24687259419E+02 -0.48415942682E+02  0.60760286807E+02  0.51100000000E-03 0. -1.
         22    1    1    0    0    0  0.14734109748E+02 -0.15806555453E+01  0.25042988065E+02  0.29098861030E+02  0.00000000000E+00 0. -1.
</event>
<event>
 5    1  0.8863861E-005  0.9118800E+02  0.7818608E-02  0.1130116E+00
         25   -1    0    0    0    0  0.00000000000E+00  0.00000000000E+00  0.99999998245E-14  0.12500000000E+03  0.12500000000E+03 0.  0.
        -11    1    3    3    0    0  0.19246840794E+02  0.56633026584E+02  0.15147999437E+02  0.61702532102E+02  0.51100000000E-03 0.  1.
         23    2    1    0    0    0  0.22480415057E+01  0.28215719491E+02  0.81137835072E+01  0.95554898544E+02  0.90905030861E+02 0.  0.
         11    1    3    3    0    0 -0.16998799288E+02 -0.28417307094E+02 -0.70342159294E+01  0.33852366441E+02  0.51100000000E-03 0. -1.
         22    1    1    0    0    0 -0.22480415057E+01 -0.28215719491E+02 -0.81137835072E+01  0.29445101456E+02  0.00000000000E+00 0.  1.
</event>
<event>
 5    1  0.8863861E-005  0.9118800E+02  0.7818608E-02  0.1130116E+00
         25   -1    0    0    0    0  0.00000000000E+00  0.00000000000E+00  0.99999998245E-14  0.12500000000E+03  0.12500000000E+03 0.  0.
        -11    1    3    3    0    0 -0.92373260641E+01 -0.34141121757E+02  0.15389318139E+02  0.38571692998E+02  0.51100000000E-03 0. -1.
         23    2    1    0    0    0  0.29293550796E+02  0.74973907792E+00 -0.65186515087E+01  0.94980555562E+02  0.90111813268E+02 0.  0.
         11    1    3    3    0    0  0.38530876860E+02  0.34890860835E+02 -0.21907969648E+02  0.56408862564E+02  0.51100000000E-03 0.  1.
         22    1    1    0    0    0 -0.29293550796E+02 -0.74973907792E+00  0.65186515087E+01  0.30019444438E+02  0.00000000000E+00 0.  1.
</event>
<event>
 5    1  0.8863861E-005  0.9118800E+02  0.7818608E-02  0.1130116E+00
         25   -1    0    0    0    0  0.00000000000E+00  0.00000000000E+00  0.99999998245E-14  0.12500000000E+03  0.12500000000E+03 0.  0.
        -11    1    3    3    0    0 -0.22357337177E+02 -0.42283076069E+02 -0.45767166929E+01  0.48048469106E+02  0.51100000000E-03 0. -1.
         23    2    1    0    0    0 -0.27949505688E+02  0.50725750937E+01 -0.68227649143E+01  0.95786030613E+02  0.91222298004E+02 0.  0.
         11    1    3    3    0    0 -0.55921685111E+01  0.47355651163E+02 -0.22460482213E+01  0.47737561507E+02  0.51100000000E-03 0.  1.
         22    1    1    0    0    0  0.27949505688E+02 -0.50725750937E+01  0.68227649143E+01  0.29213969387E+02  0.00000000000E+00 0. -1.
</event>
<event>
 5    1  0.8863861E-005  0.9118800E+02  0.7818608E-02  0.1130116E+00
         25   -1    0    0    0    0  0.00000000000E+00  0.00000000000E+00  0.99999998245E-14  0.12500000000E+03  0.12500000000E+03 0.  0.
        -11    1    3    3    0    0  0.55408616403E+02 -0.79165003133E+01  0.42171408768E+01  0.56129938770E+02  0.51100000000E-03 0.  1.
         23    2    1    0    0    0  0.41892807502E+02 -0.16161923863E+02  0.17511668452E+02  0.76803800613E+02  0.59799248768E+02 0.  0.
         11    1    3    3    0    0 -0.13515808901E+02 -0.82454235498E+01  0.13294527576E+02  0.20673861842E+02  0.51100000000E-03 0. -1.
         22    1    1    0    0    0 -0.41892807502E+02  0.16161923863E+02 -0.17511668452E+02  0.48196199387E+02  0.00000000000E+00 0.  1.
</event>
<event>
 5    1  0.8863861E-005  0.9118800E+02  0.7818608E-02  0.1130116E+00
         25   -1    0    0    0    0  0.00000000000E+00  0.00000000000E+00  0.99999998245E-14  0.12500000000E+03  0.12500000000E+03 0.  0.
        -11    1    3    3    0    0  0.20179213737E+02  0.38190776038E+02  0.79543405460E+01  0.43920468750E+02  0.51100000000E-03 0. -1.
         23    2    1    0    0    0  0.23003397328E+02 -0.60745074344E+01 -0.17868790974E+02  0.95245174843E+02  0.90478139409E+02 0.  0.
         11    1    3    3    0    0  0.28241835908E+01 -0.44265283472E+02 -0.25823131520E+02  0.51324706094E+02  0.51100000000E-03 0.  1.
         22    1    1    0    0    0 -0.23003397328E+02  0.60745074344E+01  0.17868790974E+02  0.29754825157E+02  0.00000000000E+00 0.  1.
</event>
<event>
 5    1  0.8863861E-005  0.9118800E+02  0.7818608E-02  0.1130116E+00
         25   -1    0    0    0    0  0.00000000000E+00  0.00000000000E+00  0.99999998245E-14  0.12500000000E+03  0.12500000000E+03 0.  0.
        -11    1    3    3    0    0  0.33473895566E+02 -0.15952974688E+01 -0.35720007710E+02  0.48979236513E+02  0.51100000000E-03 0. -1.
         23    2    1    0    0    0  0.17031688236E+02 -0.20886614713E+02  0.56183863903E+01  0.97470100909E+02  0.93501471792E+02 0.  0.
         11    1    3    3    0    0 -0.16442207330E+02 -0.19291317244E+02  0.41338394100E+02  0.48490864396E+02  0.51100000000E-03 0.  1.
         22    1    1    0    0    0 -0.17031688236E+02  0.20886614713E+02 -0.56183863903E+01  0.27529899091E+02  0.00000000000E+00 0. -1.
</event>
<event>
 5    1  0.8863861E-005  0.9118800E+02  0.7818608E-02  0.1130116E+00
         25   -1    0    0    0    0  0.00000000000E+00  0.00000000000E+00  0.99999998245E-14  0.12500000000E+03  0.12500000000E+03 0.  0.
        -11    1    3    3    0    0 -0.32577809061E+02  0.21268699043E+02 -0.36841994994E+02  0.53581748735E+02  0.51100000000E-03 0. -1.
         23    2    1    0    0    0 -0.20676472597E+02 -0.13316856823E+02 -0.15512997004E+02  0.95922375085E+02  0.91408937042E+02 0.  0.
         11    1    3    3    0    0  0.11901336464E+02 -0.34585555866E+02  0.21328997989E+02  0.42340626349E+02  0.51100000000E-03 0.  1.
         22    1    1    0    0    0  0.20676472597E+02  0.13316856823E+02  0.15512997004E+02  0.29077624915E+02  0.00000000000E+00 0. -1.
</event>
<event>
 5    1  0.8863861E-005  0.9118800E+02  0.7818608E-02  0.1130116E+00
         25   -1    0    0    0    0  0.00000000000E+00  0.00000000000E+00  0.99999998245E-14  0.12500000000E+03  0.12500000000E+03 0.  0.
        -11    1    3    3    0    0  0.26307479976E+02 -0.27187514038E+02 -0.17569904081E+02  0.41712659372E+02  0.51100000000E-03 0.  1.
         23    2    1    0    0    0  0.36408417503E+00 -0.16934350546E+02  0.26309976821E+02  0.93709112093E+02  0.88330504488E+02 0.  0.
         11    1    3    3    0    0 -0.25943395801E+02  0.10253163491E+02  0.43879880902E+02  0.51996452720E+02  0.51100000000E-03 0. -1.
         22    1    1    0    0    0 -0.36408417503E+00  0.16934350546E+02 -0.26309976821E+02  0.31290887907E+02  0.00000000000E+00 0. -1.
</event>
<event>
 5    1  0.8863861E-005  0.9118800E+02  0.7818608E-02  0.1130116E+00
         25   -1    0    0    0    0  0.00000000000E+00  0.00000000000E+00  0.99999998245E-14  0.12500000000E+03  0.12500000000E+03 0.  0.
        -11    1    3    3    0    0  0.26107331344E+02 -0.45356469824E+02  0.82379554690E+01  0.52977976701E+02  0.51100000000E-03 0.  1.
         23    2    1    0    0    0  0.20413139556E+02 -0.42283581340E+01  0.19977951660E+02  0.96126243203E+02  0.91687299016E+02 0.  0.
         11    1    3    3    0    0 -0.56941917879E+01  0.41128111690E+02  0.11739996191E+02  0.43148266502E+02  0.51100000000E-03 0. -1.
         22    1    1    0    0    0 -0.20413139556E+02  0.42283581340E+01 -0.19977951660E+02  0.28873756797E+02  0.00000000000E+00 0. -1.
</event>
<event>
 5    1  0.8863861E-005  0.9118800E+02  0.7818608E-02  0.1130116E+00
         25   -1    0    0    0    0  0.00000000000E+00  0.00000000000E+00  0.99999998245E-14  0.12500000000E+03  0.12500000000E+03 0.  0.
        -11    1    3    3    0    0 -0.86067945766E+01  0.18206344832E+02  0.28579199205E+02  0.34961672336E+02  0.51100000000E-03 0.  1.
         23    2    1    0    0    0  0.20754278982E+02 -0.19897974625E+02 -0.77257504199E+01  0.95228256521E+02  0.90454762894E+02 0.  0.
         11    1    3    3    0    0  0.29361073558E+02 -0.38104319458E+02 -0.36304949625E+02  0.60266584185E+02  0.51100000000E-03 0. -1.
         22    1    1    0    0    0 -0.20754278982E+02  0.19897974625E+02  0.77257504199E+01  0.29771743479E+02  0.00000000000E+00 0. -1.
</event>
<event>
 5    1  0.8863861E-005  0.9118800E+02  0.7818608E-02  0.1130116E+00
         25   -1    0    0    0    0  0.00000000000E+00  0.00000000000E+00  0.99999998245E-14  0.12500000000E+03  0.12500000000E+03 0.  0.
        -11    1    3    3    0    0  0.21807489602E+02 -0.52514220804E+02 -0.24302610648E+02  0.61837908066E+02  0.51100000000E-03 0.  1.
         23    2    1    0    0    0  0.66661859945E+01 -0.30118920076E+02 -0.91726748965E+01  0.92817312930E+02  0.87059337423E+02 0.  0.
         11    1    3    3    0    0 -0.15141303607E+02  0.22395300728E+02  0.15129935752E+02  0.30979404864E+02  0.51100000000E-03 0. -1.
         22    1    1    0    0    0 -0.66661859945E+01  0.30118920076E+02  0.91726748965E+01  0.32182687070E+02  0.00000000000E+00 0.  1.
</event>
<event>
 5    1  0.8863861E-005  0.9118800E+02  0.7818608E-02  0.1130116E+00
         25   -1    0    0    0    0  0.00000000000E+00  0.00000000000E+00  0.99999998245E-14  0.12500000000E+03  0.12500000000E+03 0.  0.
        -11    1    3    3    0    0  0.29305338538E+02  0.36957792305E-01  0.40381846757E+02  0.49894867276E+02  0.51100000000E-03 0.  1.
         23    2    1    0    0    0  0.25202987985E+01 -0.25906517484E+02  0.17149999654E+02  0.93829147552E+02  0.88500208407E+02 0.  0.
         11    1    3    3    0    0 -0.26785039740E+02 -0.25943475276E+02 -0.23231847103E+02  0.43934280276E+02  0.51100000000E-03 0. -1.
         22    1    1    0    0    0 -0.25202987985E+01  0.25906517484E+02 -0.17149999654E+02  0.31170852448E+02  0.00000000000E+00 0.  1.
</event>
<event>
 5    1  0.8863861E-005  0.9118800E+02  0.7818608E-02  0.1130116E+00
         25   -1    0    0    0    0  0.00000000000E+00  0.00000000000E+00  0.99999998245E-14  0.12500000000E+03  0.12500000000E+03 0.  0.
        -11    1    3    3    0    0 -0.22694927509E+02 -0.33599327086E+02 -0.25882902581E+02  0.48103005743E+02  0.51100000000E-03 0. -1.
         23    2    1    0    0    0 -0.13810595951E+02 -0.20059079888E+02  0.17893886404E+02  0.94779304820E+02  0.89832211401E+02 0.  0.
         11    1    3    3    0    0  0.88843315578E+01  0.13540247197E+02  0.43776788986E+02  0.46676299077E+02  0.51100000000E-03 0.  1.
         22    1    1    0    0    0  0.13810595951E+02  0.20059079888E+02 -0.17893886404E+02  0.30220695180E+02  0.00000000000E+00 0.  1.
</event>
<event>
 5    1  0.8863861E-005  0.9118800E+02  0.7818608E-02  0.1130116E+00
         25   -1    0    0    0    0  0.00000000000E+00  0.00000000000E+00  0.99999998245E-14  0.12500000000E+03  0.12500000000E+03 0.  0.
        -11    1    3    3    0    0 -0.39158135682E+02  0.18723097040E+02  0.14256322907E+02  0.45685410100E+02  0.51100000000E-03 0. -1.
         23    2    1    0    0    0  0.28908314815E+01  0.28775399008E+02 -0.89146011823E+01  0.94736976209E+02  0.89773292534E+02 0.  0.
         11    1    3    3    0    0  0.42048967164E+02  0.10052301968E+02 -0.23170924090E+02  0.49051566110E+02  0.51100000000E-03 0.  1.
         22    1    1    0    0    0 -0.28908314815E+01 -0.28775399008E+02  0.89146011823E+01  0.30263023791E+02  0.00000000000E+00 0.  1.
</event>
<event>
 5    1  0.8863861E-005  0.9118800E+02  0.7818608E-02  0.1130116E+00
         25   -1    0    0    0    0  0.00000000000E+00  0.00000000000E+00  0.99999998245E-14  0.12500000000E+03  0.12500000000E+03 0.  0.
        -11    1    3    3    0    0 -0.32547027228E+02  0.73078418574E+01  0.25392771595E+02  0.41922623768E+02  0.51100000000E-03 0. -1.
         23    2    1    0    0    0  0.20816587771E+01 -0.28898706205E+02  0.82514307660E+01  0.94874352567E+02  0.89964371512E+02 0.  0.
         11    1    3    3    0    0  0.34628686006E+02 -0.36206548063E+02 -0.17141340829E+02  0.52951728799E+02  0.51100000000E-03 0.  1.
         22    1    1    0    0    0 -0.20816587771E+01  0.28898706205E+02 -0.82514307660E+01  0.30125647433E+02  0.00000000000E+00 0.  1.
</event>
<event>
 5    1  0.8863861E-005  0.9118800E+02  0.7818608E-02  0.1130116E+00
         25   -1    0    0    0    0  0.00000000000E+00  0.00000000000E+00  0.99999998245E-14  0.12500000000E+03  0.12500000000E+03 0.  0.
        -11    1    3    3    0    0  0.22946398571E+02 -0.14789082326E+02  0.32540289659E+02  0.42474988108E+02  0.51100000000E-03 0. -1.
         23    2    1    0    0    0  0.21694421995E+02  0.96420717579E+01 -0.15682016992E+02  0.96547528220E+02  0.92259861559E+02 0.  0.
         11    1    3    3    0    0 -0.12519765757E+01  0.24431154084E+02 -0.48222306650E+02  0.54072540112E+02  0.51100000000E-03 0.  1.
         22    1    1    0    0    0 -0.21694421995E+02 -0.96420717579E+01  0.15682016992E+02  0.28452471780E+02  0.00000000000E+00 0.  1.
</event>
<event>
 5    1  0.8863861E-005  0.9118800E+02  0.7818608E-02  0.1130116E+00
         25   -1    0    0    0    0  0.00000000000E+00  0.00000000000E+00  0.99999998245E-14  0.12500000000E+03  0.12500000000E+03 0.  0.
        -11    1    3    3    0    0 -0.32916634288E+02 -0.13334050694E+02  0.24446545928E+02  0.43115372303E+02  0.51100000000E-03 0.  1.
         23    2    1    0    0    0  0.17562445287E+02 -0.14162924563E+02  0.21731977933E+02  0.93674183466E+02  0.88281061766E+02 0.  0.
         11    1    3    3    0    0  0.50479079575E+02 -0.82887386894E+00 -0.27145679945E+01  0.50558811163E+02  0.51100000000E-03 0. -1.
         22    1    1    0    0    0 -0.17562445287E+02  0.14162924563E+02 -0.21731977933E+02  0.31325816534E+02  0.00000000000E+00 0.  1.
</event>
<event>
 5    1  0.8863861E-005  0.9118800E+02  0.7818608E-02  0.1130116E+00
         25   -1    0    0    0    0  0.00000000000E+00  0.00000000000E+00  0.99999998245E-14  0.12500000000E+03  0.12500000000E+03 0.  0.
        -11    1    3    3    0    0  0.42811121855E+02  0.28519917731E+00 -0.32680825491E+02  0.53860095136E+02  0.51100000000E-03 0.  1.
         23    2    1    0    0    0  0.24920221027E+02 -0.57000184856E+01  0.75920278039E+01  0.98332669557E+02  0.94647595792E+02 0.  0.
         11    1    3    3    0    0 -0.17890900828E+02 -0.59852176629E+01  0.40272853295E+02  0.44472574421E+02  0.51100000000E-03 0. -1.
         22    1    1    0    0    0 -0.24920221027E+02  0.57000184856E+01 -0.75920278039E+01  0.26667330443E+02  0.00000000000E+00 0. -1.
</event>
<event>
 5    1  0.8863861E-005  0.9118800E+02  0.7818608E-02  0.1130116E+00
         25   -1    0    0    0    0  0.00000000000E+00  0.00000000000E+00  0.99999998245E-14  0.12500000000E+03  0.12500000000E+03 0.  0.
        -11    1    3    3    0    0  0.25664885970E+02 -0.60240964748E+01  0.28967691378E+02  0.39167630184E+02  0.51100000000E-03 0. -1.
         23    2    1    0    0    0  0.99085066107E+01  0.21102147197E+01 -0.26090958292E+02  0.97011259157E+02  0.92886031184E+02 0.  0.
         11    1    3    3    0    0 -0.15756379359E+02  0.81343111945E+01 -0.55058649669E+02  0.57843628973E+02  0.51100000000E-03 0.  1.
         22    1    1    0    0    0 -0.99085066107E+01 -0.21102147197E+01  0.26090958292E+02  0.27988740843E+02  0.00000000000E+00 0.  1.
</event>
<event>
 5    1  0.8863861E-005  0.9118800E+02  0.7818608E-02  0.1130116E+00
         25   -1    0    0    0    0  0.00000000000E+00  0.00000000000E+00  0.99999998245E-14  0.12500000000E+03  0.12500000000E+03 0.  0.
        -11    1    3    3    0    0  0.17113289256E+02 -0.28480341844E+02  0.10464703490E+02  0.34835392349E+02  0.51100000000E-03 0.  1.
         23    2    1    0    0    0  0.30641316395E+01  0.28408273452E+02 -0.62109698143E+01  0.95759701622E+02  0.91186212803E+02 0.  0.
         11    1    3    3    0    0 -0.14049157617E+02  0.56888615295E+02 -0.16675673304E+02  0.60924309273E+02  0.51100000000E-03 0. -1.
         22    1    1    0    0    0 -0.30641316395E+01 -0.28408273452E+02  0.62109698143E+01  0.29240298378E+02  0.00000000000E+00 0. -1.
</event>
<event>
 5    1  0.8863861E-005  0.9118800E+02  0.7818608E-02  0.1130116E+00
         25   -1    0    0    0    0  0.00000000000E+00  0.00000000000E+00  0.99999998245E-14  0.12500000000E+03  0.12500000000E+03 0.  0.
        -11    1    3    3    0    0 -0.14014516106E+02  0.33485529197E+02 -0.99414564837E+00  0.36313573952E+02  0.51100000000E-03 0.  1.
         23    2    1    0    0    0  0.32340982363E+02  0.15373698685E+01  0.85271087475E-01  0.92622385550E+02  0.86779008911E+02 0.  0.
         11    1    3    3    0    0  0.46355498469E+02 -0.31948159329E+02  0.10794167358E+01  0.56308811598E+02  0.51100000000E-03 0. -1.
         22    1    1    0    0    0 -0.32340982363E+02 -0.15373698685E+01 -0.85271087475E-01  0.32377614450E+02  0.00000000000E+00 0. -1.
</event>
<event>
 5    1  0.8863861E-005  0.9118800E+02  0.7818608E-02  0.1130116E+00
         25   -1    0    0    0    0  0.00000000000E+00  0.00000000000E+00  0.99999998245E-14  0.12500000000E+03  0.12500000000E+03 0.  0.
        -11    1    3    3    0    0  0.39204795600E+01 -0.37765035083E+02  0.18076788284E+02  0.42051614829E+02  0.51100000000E-03 0.  1.
         23    2    1    0    0    0  0.22600656265E+02 -0.19383776979E+01 -0.17863080780E+02  0.96127233824E+02  0.91688649549E+02 0.  0.
         11    1    3    3    0    0  0.18680176705E+02  0.35826657385E+02 -0.35939869064E+02  0.54075618995E+02  0.51100000000E-03 0. -1.
         22    1    1    0    0    0 -0.22600656265E+02  0.19383776979E+01  0.17863080780E+02  0.28872766176E+02  0.00000000000E+00 0. -1.
</event>
<event>
 5    1  0.8863861E-005  0.9118800E+02  0.7818608E-02  0.1130116E+00
         25   -1    0    0    0    0  0.00000000000E+00  0.00000000000E+00  0.99999998245E-14  0.12500000000E+03  0.12500000000E+03 0.  0.
        -11    1    3    3    0    0 -0.76945952492E+01  0.50236663947E+02 -0.28096204492E+02  0.58071730711E+02  0.51100000000E-03 0.  1.
         23    2    1    0    0    0  0.41191516754E+01  0.30574864939E+02 -0.25131217524E+00  0.94147886063E+02  0.88949263717E+02 0.  0.
         11    1    3    3    0    0  0.11813746925E+02 -0.19661799009E+02  0.27844892317E+02  0.36076155353E+02  0.51100000000E-03 0. -1.
         22    1    1    0    0    0 -0.41191516754E+01 -0.30574864939E+02  0.25131217524E+00  0.30852113937E+02  0.00000000000E+00 0.  1.
</event>
<event>
 5    1  0.8863861E-005  0.9118800E+02  0.7818608E-02  0.1130116E+00
         25   -1    0    0    0    0  0.00000000000E+00  0.00000000000E+00  0.99999998245E-14  0.12500000000E+03  0.12500000000E+03 0.  0.
        -11    1    3    3    0    0  0.36518447254E+02  0.10171281271E+02  0.38637744601E+01  0.38104864596E+02  0.51100000000E-03 0. -1.
         23    2    1    0    0    0 -0.11665560854E+02  0.73769176566E+01 -0.26496136124E+02  0.95124433835E+02  0.90311175714E+02 0.  0.
         11    1    3    3    0    0 -0.48184008108E+02 -0.27943636144E+01 -0.30359910584E+02  0.57019569240E+02  0.51100000000E-03 0.  1.
         22    1    1    0    0    0  0.11665560854E+02 -0.73769176566E+01  0.26496136124E+02  0.29875566165E+02  0.00000000000E+00 0. -1.
</event>
<event>
 5    1  0.8863861E-005  0.9118800E+02  0.7818608E-02  0.1130116E+00
         25   -1    0    0    0    0  0.00000000000E+00  0.00000000000E+00  0.99999998245E-14  0.12500000000E+03  0.12500000000E+03 0.  0.
        -11    1    3    3    0    0 -0.35492141175E+02 -0.20390374422E+02  0.42587876139E+02  0.59069337634E+02  0.51100000000E-03 0.  1.
         23    2    1    0    0    0 -0.19519068150E+02  0.48196805773E+01  0.21174012614E+02  0.95801333036E+02  0.91243264184E+02 0.  0.
         11    1    3    3    0    0  0.15973073025E+02  0.25210054999E+02 -0.21413863525E+02  0.36731995402E+02  0.51100000000E-03 0. -1.
         22    1    1    0    0    0  0.19519068150E+02 -0.48196805773E+01 -0.21174012614E+02  0.29198666964E+02  0.00000000000E+00 0.  1.
</event>
<event>
 5    1  0.8863861E-005  0.9118800E+02  0.7818608E-02  0.1130116E+00
         25   -1    0    0    0    0  0.00000000000E+00  0.00000000000E+00  0.99999998245E-14  0.12500000000E+03  0.12500000000E+03 0.  0.
        -11    1    3    3    0    0 -0.16055794303E+02 -0.39539953492E+02  0.26491568537E+01  0.42757624877E+02  0.51100000000E-03 0.  1.
         23    2    1    0    0    0 -0.19398949804E+02  0.85337097114E+01  0.21784392193E+02  0.94607514117E+02  0.89592848650E+02 0.  0.
         11    1    3    3    0    0 -0.33431555007E+01  0.48073663203E+02  0.19135235339E+02  0.51849889240E+02  0.51100000000E-03 0. -1.
         22    1    1    0    0    0  0.19398949804E+02 -0.85337097114E+01 -0.21784392193E+02  0.30392485883E+02  0.00000000000E+00 0. -1.
</event>
<event>
 5    1  0.8863861E-005  0.9118800E+02  0.7818608E-02  0.1130116E+00
         25   -1    0    0    0    0  0.00000000000E+00  0.00000000000E+00  0.99999998245E-14  0.12500000000E+03  0.12500000000E+03 0.  0.
        -11    1    3    3    0    0  0.33675872049E+02 -0.99348489396E+01 -0.21373202327E+02  0.41104493182E+02  0.51100000000E-03 0.  1.
         23    2    1    0    0    0  0.51886325742E+01 -0.91002831002E+01  0.26324426730E+02  0.96667818595E+02  0.92422695529E+02 0.  0.
         11    1    3    3    0    0 -0.28487239475E+02  0.83456583935E+00  0.47697629057E+02  0.55563325413E+02  0.51100000000E-03 0. -1.
         22    1    1    0    0    0 -0.51886325742E+01  0.91002831002E+01 -0.26324426730E+02  0.28332181405E+02  0.00000000000E+00 0. -1.
</event>
<event>
 5    1  0.8863861E-005  0.9118800E+02  0.7818608E-02  0.1130116E+00
         25   -1    0    0    0    0  0.00000000000E+00  0.00000000000E+00  0.99999998245E-14  0.12500000000E+03  0.12500000000E+03 0.  0.
        -11    1    3    3    0    0  0.39872448381E+01 -0.32793327437E+02  0.42686553465E+02  0.53976312330E+02  0.51100000000E-03 0. -1.
         23    2    1    0    0    0  0.23141564979E+02 -0.69837224782E+01  0.13945035468E+02  0.97093577378E+02  0.92996743731E+02 0.  0.
         11    1    3    3    0    0  0.19154320141E+02  0.25809604959E+02 -0.28741517997E+02  0.43117265048E+02  0.51100000000E-03 0.  1.
         22    1    1    0    0    0 -0.23141564979E+02  0.69837224782E+01 -0.13945035468E+02  0.27906422622E+02  0.00000000000E+00 0. -1.
</event>
<event>
 5    1  0.8863861E-005  0.9118800E+02  0.7818608E-02  0.1130116E+00
         25   -1    0    0    0    0  0.00000000000E+00  0.00000000000E+00  0.99999998245E-14  0.12500000000E+03  0.12500000000E+03 0.  0.
        -11    1    3    3    0    0 -0.42335244036E+02 -0.24093838403E+02 -0.32712104759E+01  0.48820966344E+02  0.51100000000E-03 0.  1.
         23    2    1    0    0    0 -0.22819476793E+02  0.66936719735E+01  0.21538821678E+02  0.92914884995E+02  0.87199319085E+02 0.  0.
         11    1    3    3    0    0  0.19515767243E+02  0.30787510376E+02  0.24810032154E+02  0.44093918651E+02  0.51100000000E-03 0. -1.
         22    1    1    0    0    0  0.22819476793E+02 -0.66936719735E+01 -0.21538821678E+02  0.32085115005E+02  0.00000000000E+00 0. -1.
</event>
<event>
 5    1  0.8863861E-005  0.9118800E+02  0.7818608E-02  0.1130116E+00
         25   -1    0    0    0    0  0.00000000000E+00  0.00000000000E+00  0.99999998245E-14  0.12500000000E+03  0.12500000000E+03 0.  0.
        -11    1    3    3    0    0  0.21224020891E+02  0.43432160644E+02 -0.22811687119E+02  0.53452639883E+02  0.51100000000E-03 0.  1.
         23    2    1    0    0    0 -0.12295453458E+01  0.27697368995E+02  0.93740714884E+01  0.95733479071E+02  0.91150259285E+02 0.  0.
         11    1    3    3    0    0 -0.22453566237E+02 -0.15734791649E+02  0.32185758608E+02  0.42280839188E+02  0.51100000000E-03 0. -1.
         22    1    1    0    0    0  0.12295453458E+01 -0.27697368995E+02 -0.93740714884E+01  0.29266520929E+02  0.00000000000E+00 0.  1.
</event>
<event>
 5    1  0.8863861E-005  0.9118800E+02  0.7818608E-02  0.1130116E+00
         25   -1    0    0    0    0  0.00000000000E+00  0.00000000000E+00  0.99999998245E-14  0.12500000000E+03  0.12500000000E+03 0.  0.
        -11    1    3    3    0    0 -0.33868639210E+02  0.97850151429E+01  0.49513151293E+02  0.60781439556E+02  0.51100000000E-03 0. -1.
         23    2    1    0    0    0 -0.24684920798E+02 -0.23878535766E+01  0.24097124623E+02  0.90420836121E+02  0.83547645270E+02 0.  0.
         11    1    3    3    0    0  0.91837184125E+01 -0.12172868720E+02 -0.25416026670E+02  0.29639396564E+02  0.51100000000E-03 0.  1.
         22    1    1    0    0    0  0.24684920798E+02  0.23878535766E+01 -0.24097124623E+02  0.34579163879E+02  0.00000000000E+00 0. -1.
</event>
<event>
 5    1  0.8863861E-005  0.9118800E+02  0.7818608E-02  0.1130116E+00
         25   -1    0    0    0    0  0.00000000000E+00  0.00000000000E+00  0.99999998245E-14  0.12500000000E+03  0.12500000000E+03 0.  0.
        -11    1    3    3    0    0 -0.32713163632E+02 -0.24775249151E+02  0.10816365073E+02  0.42437693139E+02  0.51100000000E-03 0. -1.
         23    2    1    0    0    0 -0.23253617634E+01  0.17127163232E+02  0.23593606916E+02  0.95752687046E+02  0.91176596567E+02 0.  0.
         11    1    3    3    0    0  0.30387801869E+02  0.41902412383E+02  0.12777241843E+02  0.53314993907E+02  0.51100000000E-03 0.  1.
         22    1    1    0    0    0  0.23253617634E+01 -0.17127163232E+02 -0.23593606916E+02  0.29247312954E+02  0.00000000000E+00 0. -1.
</event>
<event>
 5    1  0.8863861E-005  0.9118800E+02  0.7818608E-02  0.1130116E+00
         25   -1    0    0    0    0  0.00000000000E+00  0.00000000000E+00  0.99999998245E-14  0.12500000000E+03  0.12500000000E+03 0.  0.
        -11    1    3    3    0    0 -0.23675778796E+02 -0.25955529305E+02 -0.94649445581E+01  0.36384298521E+02  0.51100000000E-03 0.  1.
         23    2    1    0    0    0  0.27851733999E+01  0.27920427143E+02 -0.40277197313E+01  0.96653395813E+02  0.92403186921E+02 0.  0.
         11    1    3    3    0    0  0.26460952196E+02  0.53875956448E+02  0.54372248268E+01  0.60269097292E+02  0.51100000000E-03 0. -1.
         22    1    1    0    0    0 -0.27851733999E+01 -0.27920427143E+02  0.40277197313E+01  0.28346604187E+02  0.00000000000E+00 0. -1.
</event>
<event>
 5    1  0.8863861E-005  0.9118800E+02  0.7818608E-02  0.1130116E+00
         25   -1    0    0    0    0  0.00000000000E+00  0.00000000000E+00  0.99999998245E-14  0.12500000000E+03  0.12500000000E+03 0.  0.
        -11    1    3    3    0    0 -0.19534724059E+01 -0.46647427762E+02  0.30813022996E+02  0.55939618855E+02  0.51100000000E-03 0. -1.
         23    2    1    0    0    0 -0.15591275162E+02 -0.82674028689E+01  0.20488859239E+02  0.97958713709E+02  0.94152421250E+02 0.  0.
         11    1    3    3    0    0 -0.13637802756E+02  0.38380024893E+02 -0.10324163757E+02  0.42019094854E+02  0.51100000000E-03 0.  1.
         22    1    1    0    0    0  0.15591275162E+02  0.82674028689E+01 -0.20488859239E+02  0.27041286291E+02  0.00000000000E+00 0. -1.
</event>
<event>
 5    1  0.8863861E-005  0.9118800E+02  0.7818608E-02  0.1130116E+00
         25   -1    0    0    0    0  0.00000000000E+00  0.00000000000E+00  0.99999998245E-14  0.12500000000E+03  0.12500000000E+03 0.  0.
        -11    1    3    3    0    0 -0.50677146765E+02  0.16756942614E+02 -0.12971541740E+02  0.54929311168E+02  0.51100000000E-03 0.  1.
         23    2    1    0    0    0 -0.21944591066E+02 -0.12795736133E+02 -0.13669062066E+02  0.96153176986E+02  0.91724011286E+02 0.  0.
         11    1    3    3    0    0  0.28732555699E+02 -0.29552678747E+02 -0.69752032589E+00  0.41223865818E+02  0.51100000000E-03 0. -1.
         22    1    1    0    0    0  0.21944591066E+02  0.12795736133E+02  0.13669062066E+02  0.28846823014E+02  0.00000000000E+00 0.  1.
</event>
<event>
 5    1  0.8863861E-005  0.9118800E+02  0.7818608E-02  0.1130116E+00
         25   -1    0    0    0    0  0.00000000000E+00  0.00000000000E+00  0.99999998245E-14  0.12500000000E+03  0.12500000000E+03 0.  0.
        -11    1    3    3    0    0 -0.12512420980E+02  0.89662052445E+01 -0.34770901988E+02  0.38025900918E+02  0.51100000000E-03 0.  1.
         23    2    1    0    0    0  0.27688350898E+02  0.94883618350E+01  0.58207574756E+01  0.95157831792E+02  0.90357390113E+02 0.  0.
         11    1    3    3    0    0  0.40200771878E+02  0.52215659056E+00  0.40591659464E+02  0.57131930874E+02  0.51100000000E-03 0. -1.
         22    1    1    0    0    0 -0.27688350898E+02 -0.94883618350E+01 -0.58207574756E+01  0.29842168208E+02  0.00000000000E+00 0. -1.
</event>
<event>
 5    1  0.8863861E-005  0.9118800E+02  0.7818608E-02  0.1130116E+00
         25   -1    0    0    0    0  0.00000000000E+00  0.00000000000E+00  0.99999998245E-14  0.12500000000E+03  0.12500000000E+03 0.  0.
        -11    1    3    3    0    0  0.16305624218E+02  0.40928889064E+02  0.20991250662E+02  0.48802458399E+02  0.51100000000E-03 0.  1.
         23    2    1    0    0    0 -0.21977012922E+02  0.19440281614E+02  0.79111931698E+01  0.94610846942E+02  0.89597498489E+02 0.  0.
         11    1    3    3    0    0 -0.38282637141E+02 -0.21488607450E+02 -0.13080057493E+02  0.45808388543E+02  0.51100000000E-03 0. -1.
         22    1    1    0    0    0  0.21977012922E+02 -0.19440281614E+02 -0.79111931698E+01  0.30389153058E+02  0.00000000000E+00 0.  1.
</event>
<event>
 5    1  0.8863861E-005  0.9118800E+02  0.7818608E-02  0.1130116E+00
         25   -1    0    0    0    0  0.00000000000E+00  0.00000000000E+00  0.99999998245E-14  0.12500000000E+03  0.12500000000E+03 0.  0.
        -11    1    3    3    0    0  0.89041834434E+00  0.55038689559E+02  0.28578782874E+02  0.62022552543E+02  0.51100000000E-03 0.  1.
         23    2    1    0    0    0  0.12907761156E+01  0.34161952700E+02  0.11716421059E+02  0.88861659727E+02  0.81181370595E+02 0.  0.
         11    1    3    3    0    0  0.40035777127E+00 -0.20876736858E+02 -0.16862361815E+02  0.26839107184E+02  0.51100000000E-03 0. -1.
         22    1    1    0    0    0 -0.12907761156E+01 -0.34161952700E+02 -0.11716421059E+02  0.36138340273E+02  0.00000000000E+00 0.  1.
</event>
<event>
 5    1  0.8863861E-005  0.9118800E+02  0.7818608E-02  0.1130116E+00
         25   -1    0    0    0    0  0.00000000000E+00  0.00000000000E+00  0.99999998245E-14  0.12500000000E+03  0.12500000000E+03 0.  0.
        -11    1    3    3    0    0 -0.11108099856E+02 -0.38838527883E+02  0.55350433796E+01  0.40773249024E+02  0.51100000000E-03 0.  1.
         23    2    1    0    0    0 -0.23763850787E+01 -0.12218278633E+00 -0.30516148965E+02  0.94391218869E+02  0.89290563428E+02 0.  0.
         11    1    3    3    0    0  0.87317147776E+01  0.38716345097E+02 -0.36051192344E+02  0.53617969845E+02  0.51100000000E-03 0. -1.
         22    1    1    0    0    0  0.23763850787E+01  0.12218278633E+00  0.30516148965E+02  0.30608781131E+02  0.00000000000E+00 0. -1.
</event>
<event>
 5    1  0.8863861E-005  0.9118800E+02  0.7818608E-02  0.1130116E+00
         25   -1    0    0    0    0  0.00000000000E+00  0.00000000000E+00  0.99999998245E-14  0.12500000000E+03  0.12500000000E+03 0.  0.
        -11    1    3    3    0    0  0.38596580600E+01 -0.43002105448E+02 -0.30569247577E+02  0.52901388744E+02  0.51100000000E-03 0.  1.
         23    2    1    0    0    0 -0.20861741199E+02 -0.24752486359E+02 -0.63843045809E+01  0.92005194776E+02  0.85885381142E+02 0.  0.
         11    1    3    3    0    0 -0.24721399259E+02  0.18249619089E+02  0.24184942996E+02  0.39103806032E+02  0.51100000000E-03 0. -1.
         22    1    1    0    0    0  0.20861741199E+02  0.24752486359E+02  0.63843045809E+01  0.32994805224E+02  0.00000000000E+00 0.  1.
</event>
<event>
 5    1  0.8863861E-005  0.9118800E+02  0.7818608E-02  0.1130116E+00
         25   -1    0    0    0    0  0.00000000000E+00  0.00000000000E+00  0.99999998245E-14  0.12500000000E+03  0.12500000000E+03 0.  0.
        -11    1    3    3    0    0 -0.24679354717E+02  0.29995807093E+01 -0.29964117635E+02  0.38934770830E+02  0.51100000000E-03 0.  1.
         23    2    1    0    0    0 -0.94587804101E+01  0.72224872245E+01  0.25636664784E+02  0.96735686285E+02  0.92514439798E+02 0.  0.
         11    1    3    3    0    0  0.15220574307E+02  0.42229065152E+01  0.55600782418E+02  0.57800915455E+02  0.51100000000E-03 0. -1.
         22    1    1    0    0    0  0.94587804101E+01 -0.72224872245E+01 -0.25636664784E+02  0.28264313715E+02  0.00000000000E+00 0. -1.
</event>
<event>
 5    1  0.8863861E-005  0.9118800E+02  0.7818608E-02  0.1130116E+00
         25   -1    0    0    0    0  0.00000000000E+00  0.00000000000E+00  0.99999998245E-14  0.12500000000E+03  0.12500000000E+03 0.  0.
        -11    1    3    3    0    0 -0.16412037103E+02  0.17737629398E+01 -0.51805645371E+02  0.54372107642E+02  0.51100000000E-03 0.  1.
         23    2    1    0    0    0 -0.69620787475E+01 -0.21560993877E+02 -0.21564924679E+02  0.93720726130E+02  0.88346938444E+02 0.  0.
         11    1    3    3    0    0  0.94499583554E+01 -0.23334756817E+02  0.30240720693E+02  0.39348618488E+02  0.51100000000E-03 0. -1.
         22    1    1    0    0    0  0.69620787475E+01  0.21560993877E+02  0.21564924679E+02  0.31279273870E+02  0.00000000000E+00 0.  1.
</event>
<event>
 5    1  0.8863861E-005  0.9118800E+02  0.7818608E-02  0.1130116E+00
         25   -1    0    0    0    0  0.00000000000E+00  0.00000000000E+00  0.99999998245E-14  0.12500000000E+03  0.12500000000E+03 0.  0.
        -11    1    3    3    0    0  0.34460488021E+02 -0.15277665964E+02 -0.19122637013E+02  0.42268280762E+02  0.51100000000E-03 0. -1.
         23    2    1    0    0    0 -0.21133277141E+02 -0.78119170865E+00 -0.13305556326E+02  0.10001473449E+03  0.96843603938E+02 0.  0.
         11    1    3    3    0    0 -0.55593765163E+02  0.14496474255E+02  0.58170806866E+01  0.57746453733E+02  0.51100000000E-03 0.  1.
         22    1    1    0    0    0  0.21133277141E+02  0.78119170865E+00  0.13305556326E+02  0.24985265505E+02  0.00000000000E+00 0.  1.
</event>
<event>
 5    1  0.8863861E-005  0.9118800E+02  0.7818608E-02  0.1130116E+00
         25   -1    0    0    0    0  0.00000000000E+00  0.00000000000E+00  0.99999998245E-14  0.12500000000E+03  0.12500000000E+03 0.  0.
        -11    1    3    3    0    0  0.99227100717E+01  0.24260136817E+02 -0.51152543260E+02  0.57476926638E+02  0.51100000000E-03 0.  1.
         23    2    1    0    0    0 -0.61577392613E+00 -0.40292360890E+01 -0.30906372976E+02  0.93826007450E+02  0.88495773133E+02 0.  0.
         11    1    3    3    0    0 -0.10538483998E+02 -0.28289372906E+02  0.20246170284E+02  0.36349080811E+02  0.51100000000E-03 0. -1.
         22    1    1    0    0    0  0.61577392613E+00  0.40292360890E+01  0.30906372976E+02  0.31173992550E+02  0.00000000000E+00 0.  1.
</event>
<event>
 5    1  0.8863861E-005  0.9118800E+02  0.7818608E-02  0.1130116E+00
         25   -1    0    0    0    0  0.00000000000E+00  0.00000000000E+00  0.99999998245E-14  0.12500000000E+03  0.12500000000E+03 0.  0.
        -11    1    3    3    0    0  0.21871992774E+02 -0.30605626275E+02  0.38175250833E+02  0.53595132279E+02  0.51100000000E-03 0.  1.
         23    2    1    0    0    0 -0.11465956313E+02 -0.23279022067E+02  0.13229265798E+02  0.95872787704E+02  0.91341102063E+02 0.  0.
         11    1    3    3    0    0 -0.33337949088E+02  0.73266042076E+01 -0.24945985035E+02  0.42277655425E+02  0.51100000000E-03 0. -1.
         22    1    1    0    0    0  0.11465956313E+02  0.23279022067E+02 -0.13229265798E+02  0.29127212296E+02  0.00000000000E+00 0.  1.
</event>
<event>
 5    1  0.8863861E-005  0.9118800E+02  0.7818608E-02  0.1130116E+00
         25   -1    0    0    0    0  0.00000000000E+00  0.00000000000E+00  0.99999998245E-14  0.12500000000E+03  0.12500000000E+03 0.  0.
        -11    1    3    3    0    0  0.26281277215E+02 -0.26718982329E+02 -0.37942628564E+01  0.37669695773E+02  0.51100000000E-03 0. -1.
         23    2    1    0    0    0 -0.26059796766E+02 -0.27598353962E+01 -0.12632886477E+02  0.95908428718E+02  0.91389863659E+02 0.  0.
         11    1    3    3    0    0 -0.52341073981E+02  0.23959146933E+02 -0.88386236210E+01  0.58238732945E+02  0.51100000000E-03 0.  1.
         22    1    1    0    0    0  0.26059796766E+02  0.27598353962E+01  0.12632886477E+02  0.29091571282E+02  0.00000000000E+00 0.  1.
</event>
<event>
 5    1  0.8863861E-005  0.9118800E+02  0.7818608E-02  0.1130116E+00
         25   -1    0    0    0    0  0.00000000000E+00  0.00000000000E+00  0.99999998245E-14  0.12500000000E+03  0.12500000000E+03 0.  0.
        -11    1    3    3    0    0  0.42267031810E+02 -0.18269138752E+02  0.22266820865E+02  0.51147577855E+02  0.51100000000E-03 0.  1.
         23    2    1    0    0    0  0.21352858016E+00 -0.51892775390E+01  0.28857676058E+02  0.95678682442E+02  0.91075082270E+02 0.  0.
         11    1    3    3    0    0 -0.42053503230E+02  0.13079861213E+02  0.65908551937E+01  0.44531104587E+02  0.51100000000E-03 0. -1.
         22    1    1    0    0    0 -0.21352858016E+00  0.51892775390E+01 -0.28857676058E+02  0.29321317558E+02  0.00000000000E+00 0.  1.
</event>
<event>
 5    1  0.8863861E-005  0.9118800E+02  0.7818608E-02  0.1130116E+00
         25   -1    0    0    0    0  0.00000000000E+00  0.00000000000E+00  0.99999998245E-14  0.12500000000E+03  0.12500000000E+03 0.  0.
        -11    1    3    3    0    0 -0.57580845798E+02 -0.10038227966E+02  0.16462069804E+02  0.60723303319E+02  0.51100000000E-03 0.  1.
         23    2    1    0    0    0 -0.22058606172E+02 -0.21012002493E+01  0.16913303123E+02  0.97124258373E+02  0.93037973931E+02 0.  0.
         11    1    3    3    0    0  0.35522239626E+02  0.79370277164E+01  0.45123331865E+00  0.36400955053E+02  0.51100000000E-03 0. -1.
         22    1    1    0    0    0  0.22058606172E+02  0.21012002493E+01 -0.16913303123E+02  0.27875741627E+02  0.00000000000E+00 0.  1.
</event>
<event>
 5    1  0.8863861E-005  0.9118800E+02  0.7818608E-02  0.1130116E+00
         25   -1    0    0    0    0  0.00000000000E+00  0.00000000000E+00  0.99999998245E-14  0.12500000000E+03  0.12500000000E+03 0.  0.
        -11    1    3    3    0    0 -0.74226367029E+01 -0.41097769102E+02 -0.39507532046E+02  0.57488844565E+02  0.51100000000E-03 0. -1.
         23    2    1    0    0    0  0.25482618325E+01 -0.75225543864E+01 -0.30262035003E+02  0.93713050239E+02  0.88336077339E+02 0.  0.
         11    1    3    3    0    0  0.99708985354E+01  0.33575214716E+02  0.92454970434E+01  0.36224205673E+02  0.51100000000E-03 0.  1.
         22    1    1    0    0    0 -0.25482618325E+01  0.75225543864E+01  0.30262035003E+02  0.31286949761E+02  0.00000000000E+00 0. -1.
</event>
<event>
 5    1  0.8863861E-005  0.9118800E+02  0.7818608E-02  0.1130116E+00
         25   -1    0    0    0    0  0.00000000000E+00  0.00000000000E+00  0.99999998245E-14  0.12500000000E+03  0.12500000000E+03 0.  0.
        -11    1    3    3    0    0  0.34563975366E+02  0.57933228999E+01  0.13110216591E+02  0.37418027242E+02  0.51100000000E-03 0.  1.
         23    2    1    0    0    0 -0.12064975616E+02 -0.26946224788E+02  0.25206677696E+01  0.95368657929E+02  0.90648576835E+02 0.  0.
         11    1    3    3    0    0 -0.46628950982E+02 -0.32739547688E+02 -0.10589548822E+02  0.57950630687E+02  0.51100000000E-03 0. -1.
         22    1    1    0    0    0  0.12064975616E+02  0.26946224788E+02 -0.25206677696E+01  0.29631342071E+02  0.00000000000E+00 0. -1.
</event>
<event>
 5    1  0.8863861E-005  0.9118800E+02  0.7818608E-02  0.1130116E+00
         25   -1    0    0    0    0  0.00000000000E+00  0.00000000000E+00  0.99999998245E-14  0.12500000000E+03  0.12500000000E+03 0.  0.
        -11    1    3    3    0    0  0.23478961684E+02 -0.48285704788E+01 -0.22440672010E+02  0.32835354347E+02  0.51100000000E-03 0. -1.
         23    2    1    0    0    0 -0.26798773220E+02 -0.27039684238E+01  0.13690464786E+02  0.94785524705E+02  0.89840865847E+02 0.  0.
         11    1    3    3    0    0 -0.50277734903E+02  0.21246020550E+01  0.36131136796E+02  0.61950170357E+02  0.51100000000E-03 0.  1.
         22    1    1    0    0    0  0.26798773220E+02  0.27039684238E+01 -0.13690464786E+02  0.30214475295E+02  0.00000000000E+00 0.  1.
</event>
<event>
 5    1  0.8863861E-005  0.9118800E+02  0.7818608E-02  0.1130116E+00
         25   -1    0    0    0    0  0.00000000000E+00  0.00000000000E+00  0.99999998245E-14  0.12500000000E+03  0.12500000000E+03 0.  0.
        -11    1    3    3    0    0  0.49155312924E+02 -0.16918846611E+02 -0.17538716255E+02  0.54864366646E+02  0.51100000000E-03 0.  1.
         23    2    1    0    0    0  0.13869853607E+02  0.16850242301E+01 -0.25854862358E+02  0.95611463914E+02  0.90982778472E+02 0.  0.
         11    1    3    3    0    0 -0.35285459317E+02  0.18603870841E+02 -0.83161461033E+01  0.40747097268E+02  0.51100000000E-03 0. -1.
         22    1    1    0    0    0 -0.13869853607E+02 -0.16850242301E+01  0.25854862358E+02  0.29388536086E+02  0.00000000000E+00 0. -1.
</event>
<event>
 5    1  0.8863861E-005  0.9118800E+02  0.7818608E-02  0.1130116E+00
         25   -1    0    0    0    0  0.00000000000E+00  0.00000000000E+00  0.99999998245E-14  0.12500000000E+03  0.12500000000E+03 0.  0.
        -11    1    3    3    0    0 -0.38643794769E+02  0.26747791817E+02 -0.73501485716E+01  0.47569022751E+02  0.51100000000E-03 0.  1.
         23    2    1    0    0    0  0.10185991007E+02  0.26337465214E+02 -0.20557953564E+01  0.96686703102E+02  0.92448232950E+02 0.  0.
         11    1    3    3    0    0  0.48829785776E+02 -0.41032660267E+00  0.52943532152E+01  0.49117680351E+02  0.51100000000E-03 0. -1.
         22    1    1    0    0    0 -0.10185991007E+02 -0.26337465214E+02  0.20557953564E+01  0.28313296898E+02  0.00000000000E+00 0.  1.
</event>
<event>
 5    1  0.8863861E-005  0.9118800E+02  0.7818608E-02  0.1130116E+00
         25   -1    0    0    0    0  0.00000000000E+00  0.00000000000E+00  0.99999998245E-14  0.12500000000E+03  0.12500000000E+03 0.  0.
        -11    1    3    3    0    0  0.22905749753E+02 -0.35941358074E+02  0.38125583662E+02  0.57184042545E+02  0.51100000000E-03 0. -1.
         23    2    1    0    0    0  0.24526827688E+02 -0.49723959599E+01  0.15648455806E+02  0.95484509709E+02  0.90808190309E+02 0.  0.
         11    1    3    3    0    0  0.16210779349E+01  0.30968962114E+02 -0.22477127856E+02  0.38300467164E+02  0.51100000000E-03 0.  1.
         22    1    1    0    0    0 -0.24526827688E+02  0.49723959599E+01 -0.15648455806E+02  0.29515490291E+02  0.00000000000E+00 0. -1.
</event>
<event>
 5    1  0.8863861E-005  0.9118800E+02  0.7818608E-02  0.1130116E+00
         25   -1    0    0    0    0  0.00000000000E+00  0.00000000000E+00  0.99999998245E-14  0.12500000000E+03  0.12500000000E+03 0.  0.
        -11    1    3    3    0    0 -0.40716048313E+02 -0.15458957586E+02 -0.11366853471E+02  0.45010902212E+02  0.51100000000E-03 0.  1.
         23    2    1    0    0    0  0.41146422704E+01 -0.34418681354E+01 -0.29630092232E+02  0.94888223185E+02  0.89983641825E+02 0.  0.
         11    1    3    3    0    0  0.44830690583E+02  0.12017089451E+02 -0.18263238762E+02  0.49877320972E+02  0.51100000000E-03 0. -1.
         22    1    1    0    0    0 -0.41146422704E+01  0.34418681354E+01  0.29630092232E+02  0.30111776815E+02  0.00000000000E+00 0. -1.
</event>
<event>
 5    1  0.8863861E-005  0.9118800E+02  0.7818608E-02  0.1130116E+00
         25   -1    0    0    0    0  0.00000000000E+00  0.00000000000E+00  0.99999998245E-14  0.12500000000E+03  0.12500000000E+03 0.  0.
        -11    1    3    3    0    0 -0.61710501704E+01  0.14442315736E+02 -0.15195139429E+02  0.21853022824E+02  0.51100000000E-03 0.  1.
         23    2    1    0    0    0 -0.12677585155E+02 -0.32417726232E+02  0.23524783492E+02  0.82987554489E+02  0.71567371213E+02 0.  0.
         11    1    3    3    0    0 -0.65065349848E+01 -0.46860041968E+02  0.38719922921E+02  0.61134531666E+02  0.51100000000E-03 0. -1.
         22    1    1    0    0    0  0.12677585155E+02  0.32417726232E+02 -0.23524783492E+02  0.42012445511E+02  0.00000000000E+00 0. -1.
</event>
<event>
 5    1  0.8863861E-005  0.9118800E+02  0.7818608E-02  0.1130116E+00
         25   -1    0    0    0    0  0.00000000000E+00  0.00000000000E+00  0.99999998245E-14  0.12500000000E+03  0.12500000000E+03 0.  0.
        -11    1    3    3    0    0 -0.14597007411E+01  0.81166623375E+01  0.33226807520E+02  0.34234948109E+02  0.51100000000E-03 0.  1.
         23    2    1    0    0    0  0.12861150833E+02 -0.15453148282E+02 -0.21528360654E+02  0.95543603326E+02  0.90889497916E+02 0.  0.
         11    1    3    3    0    0  0.14320851574E+02 -0.23569810620E+02 -0.54755168174E+02  0.61308655217E+02  0.51100000000E-03 0. -1.
         22    1    1    0    0    0 -0.12861150833E+02  0.15453148282E+02  0.21528360654E+02  0.29456396674E+02  0.00000000000E+00 0. -1.
</event>
<event>
 5    1  0.8863861E-005  0.9118800E+02  0.7818608E-02  0.1130116E+00
         25   -1    0    0    0    0  0.00000000000E+00  0.00000000000E+00  0.99999998245E-14  0.12500000000E+03  0.12500000000E+03 0.  0.
        -11    1    3    3    0    0  0.41023064742E+02  0.83299386466E+01  0.45889224485E+02  0.62113610769E+02  0.51100000000E-03 0.  1.
         23    2    1    0    0    0  0.22722005176E+02  0.48050057316E+01  0.18186779459E+02  0.95501923005E+02  0.90832157033E+02 0.  0.
         11    1    3    3    0    0 -0.18301059566E+02 -0.35249329150E+01 -0.27702445026E+02  0.33388312236E+02  0.51100000000E-03 0. -1.
         22    1    1    0    0    0 -0.22722005176E+02 -0.48050057316E+01 -0.18186779459E+02  0.29498076995E+02  0.00000000000E+00 0.  1.
</event>
<event>
 5    1  0.8863861E-005  0.9118800E+02  0.7818608E-02  0.1130116E+00
         25   -1    0    0    0    0  0.00000000000E+00  0.00000000000E+00  0.99999998245E-14  0.12500000000E+03  0.12500000000E+03 0.  0.
        -11    1    3    3    0    0  0.55496064432E+02 -0.92510160108E+01  0.20033982939E+01  0.56297496123E+02  0.51100000000E-03 0. -1.
         23    2    1    0    0    0  0.23929560929E+02  0.10039949721E+02  0.14410363889E+02  0.95316956624E+02  0.90577255180E+02 0.  0.
         11    1    3    3    0    0 -0.31566503503E+02  0.19290965732E+02  0.12406965595E+02  0.39019460501E+02  0.51100000000E-03 0.  1.
         22    1    1    0    0    0 -0.23929560929E+02 -0.10039949721E+02 -0.14410363889E+02  0.29683043376E+02  0.00000000000E+00 0. -1.
</event>
<event>
 5    1  0.8863861E-005  0.9118800E+02  0.7818608E-02  0.1130116E+00
         25   -1    0    0    0    0  0.00000000000E+00  0.00000000000E+00  0.99999998245E-14  0.12500000000E+03  0.12500000000E+03 0.  0.
        -11    1    3    3    0    0 -0.97738189018E+01 -0.35258083309E+02 -0.12353866945E+01  0.36608553032E+02  0.51100000000E-03 0. -1.
         23    2    1    0    0    0  0.27196110025E+02  0.10557893295E+02 -0.40453032801E+01  0.95547292316E+02  0.90894571229E+02 0.  0.
         11    1    3    3    0    0  0.36969928927E+02  0.45815976603E+02 -0.28099165856E+01  0.58938739284E+02  0.51100000000E-03 0.  1.
         22    1    1    0    0    0 -0.27196110025E+02 -0.10557893295E+02  0.40453032801E+01  0.29452707684E+02  0.00000000000E+00 0. -1.
</event>
<event>
 5    1  0.8863861E-005  0.9118800E+02  0.7818608E-02  0.1130116E+00
         25   -1    0    0    0    0  0.00000000000E+00  0.00000000000E+00  0.99999998245E-14  0.12500000000E+03  0.12500000000E+03 0.  0.
        -11    1    3    3    0    0 -0.38862197086E+02  0.47324469063E+02 -0.43511028127E+01  0.61390616794E+02  0.51100000000E-03 0.  1.
         23    2    1    0    0    0 -0.24663286877E+02  0.16944785805E+02 -0.17417502524E+01  0.95026058326E+02  0.90174911042E+02 0.  0.
         11    1    3    3    0    0  0.14198910209E+02 -0.30379683257E+02  0.26093525603E+01  0.33635441531E+02  0.51100000000E-03 0. -1.
         22    1    1    0    0    0  0.24663286877E+02 -0.16944785805E+02  0.17417502524E+01  0.29973941674E+02  0.00000000000E+00 0.  1.
</event>
<event>
 5    1  0.8863861E-005  0.9118800E+02  0.7818608E-02  0.1130116E+00
         25   -1    0    0    0    0  0.00000000000E+00  0.00000000000E+00  0.99999998245E-14  0.12500000000E+03  0.12500000000E+03 0.  0.
        -11    1    3    3    0    0  0.30444592162E+01 -0.61426527406E+02  0.81057727076E+01  0.62033785573E+02  0.51100000000E-03 0.  1.
         23    2    1    0    0    0  0.62149420957E+01 -0.27281590828E+02  0.59536388842E+01  0.96393068684E+02  0.92050351281E+02 0.  0.
         11    1    3    3    0    0  0.31704828795E+01  0.34144936578E+02 -0.21521338234E+01  0.34359283110E+02  0.51100000000E-03 0. -1.
         22    1    1    0    0    0 -0.62149420957E+01  0.27281590828E+02 -0.59536388842E+01  0.28606931316E+02  0.00000000000E+00 0.  1.
</event>
<event>
 5    1  0.8863861E-005  0.9118800E+02  0.7818608E-02  0.1130116E+00
         25   -1    0    0    0    0  0.00000000000E+00  0.00000000000E+00  0.99999998245E-14  0.12500000000E+03  0.12500000000E+03 0.  0.
        -11    1    3    3    0    0 -0.30689326294E+02 -0.27139984186E+02 -0.28856736556E+02  0.50111123865E+02  0.51100000000E-03 0. -1.
         23    2    1    0    0    0 -0.64477051801E+01  0.12238662924E+02 -0.24891458043E+02  0.96522948612E+02  0.92226553406E+02 0.  0.
         11    1    3    3    0    0  0.24241621114E+02  0.39378647110E+02  0.39652785138E+01  0.46411824748E+02  0.51100000000E-03 0.  1.
         22    1    1    0    0    0  0.64477051801E+01 -0.12238662924E+02  0.24891458043E+02  0.28477051388E+02  0.00000000000E+00 0. -1.
</event>
<event>
 5    1  0.8863861E-005  0.9118800E+02  0.7818608E-02  0.1130116E+00
         25   -1    0    0    0    0  0.00000000000E+00  0.00000000000E+00  0.99999998245E-14  0.12500000000E+03  0.12500000000E+03 0.  0.
        -11    1    3    3    0    0  0.77361292254E+01 -0.34839233095E+02 -0.17784479466E+02  0.39873645033E+02  0.51100000000E-03 0. -1.
         23    2    1    0    0    0  0.21054020020E+02  0.11678106282E+01  0.21558244346E+02  0.94843849054E+02  0.89921978756E+02 0.  0.
         11    1    3    3    0    0  0.13317890794E+02  0.36007043723E+02  0.39342723812E+02  0.54970204021E+02  0.51100000000E-03 0.  1.
         22    1    1    0    0    0 -0.21054020020E+02 -0.11678106282E+01 -0.21558244346E+02  0.30156150946E+02  0.00000000000E+00 0.  1.
</event>
<event>
 5    1  0.8863861E-005  0.9118800E+02  0.7818608E-02  0.1130116E+00
         25   -1    0    0    0    0  0.00000000000E+00  0.00000000000E+00  0.99999998245E-14  0.12500000000E+03  0.12500000000E+03 0.  0.
        -11    1    3    3    0    0  0.36228649733E+02 -0.30510876008E+02  0.10490281004E+02  0.48512623224E+02  0.51100000000E-03 0.  1.
         23    2    1    0    0    0  0.13918925584E+02  0.76051072315E+01  0.25338312707E+02  0.95106786117E+02  0.90286746143E+02 0.  0.
         11    1    3    3    0    0 -0.22309724149E+02  0.38115983240E+02  0.14848031704E+02  0.46594162893E+02  0.51100000000E-03 0. -1.
         22    1    1    0    0    0 -0.13918925584E+02 -0.76051072315E+01 -0.25338312707E+02  0.29893213883E+02  0.00000000000E+00 0.  1.
</event>
<event>
 5    1  0.8863861E-005  0.9118800E+02  0.7818608E-02  0.1130116E+00
         25   -1    0    0    0    0  0.00000000000E+00  0.00000000000E+00  0.99999998245E-14  0.12500000000E+03  0.12500000000E+03 0.  0.
        -11    1    3    3    0    0  0.46461699826E+02  0.34582414937E+02 -0.19086587245E+02  0.60983036875E+02  0.51100000000E-03 0.  1.
         23    2    1    0    0    0  0.16705472765E+02  0.24404522879E+02 -0.75924602496E+01  0.94466428150E+02  0.89395788702E+02 0.  0.
         11    1    3    3    0    0 -0.29756227061E+02 -0.10177892058E+02  0.11494126996E+02  0.33483391275E+02  0.51100000000E-03 0. -1.
         22    1    1    0    0    0 -0.16705472765E+02 -0.24404522879E+02  0.75924602496E+01  0.30533571850E+02  0.00000000000E+00 0.  1.
</event>
<event>
 5    1  0.8863861E-005  0.9118800E+02  0.7818608E-02  0.1130116E+00
         25   -1    0    0    0    0  0.00000000000E+00  0.00000000000E+00  0.99999998245E-14  0.12500000000E+03  0.12500000000E+03 0.  0.
        -11    1    3    3    0    0  0.36810331544E+02  0.13300814652E+02 -0.31940436503E+01  0.39269760553E+02  0.51100000000E-03 0. -1.
         23    2    1    0    0    0  0.55405461453E+01 -0.26899387782E+02  0.15430214777E+02  0.93498154932E+02  0.88031464448E+02 0.  0.
         11    1    3    3    0    0 -0.31269785399E+02 -0.40200202434E+02  0.18624258428E+02  0.54228394379E+02  0.51100000000E-03 0.  1.
         22    1    1    0    0    0 -0.55405461453E+01  0.26899387782E+02 -0.15430214777E+02  0.31501845068E+02  0.00000000000E+00 0. -1.
</event>
<event>
 5    1  0.8863861E-005  0.9118800E+02  0.7818608E-02  0.1130116E+00
         25   -1    0    0    0    0  0.00000000000E+00  0.00000000000E+00  0.99999998245E-14  0.12500000000E+03  0.12500000000E+03 0.  0.
        -11    1    3    3    0    0  0.40404732425E+02 -0.31557682138E+02 -0.34923112391E+02  0.62032680770E+02  0.51100000000E-03 0. -1.
         23    2    1    0    0    0  0.22300380112E+02 -0.11577449651E+02 -0.20249635176E+02  0.92729393896E+02  0.86933011417E+02 0.  0.
         11    1    3    3    0    0 -0.18104352313E+02  0.19980232486E+02  0.14673477215E+02  0.30696713126E+02  0.51100000000E-03 0.  1.
         22    1    1    0    0    0 -0.22300380112E+02  0.11577449651E+02  0.20249635176E+02  0.32270606104E+02  0.00000000000E+00 0. -1.
</event>
<event>
 5    1  0.8863861E-005  0.9118800E+02  0.7818608E-02  0.1130116E+00
         25   -1    0    0    0    0  0.00000000000E+00  0.00000000000E+00  0.99999998245E-14  0.12500000000E+03  0.12500000000E+03 0.  0.
        -11    1    3    3    0    0 -0.14736882070E+02 -0.17032442568E+02  0.35753092702E+02  0.42255927762E+02  0.51100000000E-03 0.  1.
         23    2    1    0    0    0  0.25982906212E+02 -0.21398877344E+02  0.16708972873E+02  0.87420575559E+02  0.78931260536E+02 0.  0.
         11    1    3    3    0    0  0.40719788282E+02 -0.43664347763E+01 -0.19044119829E+02  0.45164647798E+02  0.51100000000E-03 0. -1.
         22    1    1    0    0    0 -0.25982906212E+02  0.21398877344E+02 -0.16708972873E+02  0.37579424441E+02  0.00000000000E+00 0. -1.
</event>
<event>
 5    1  0.8863861E-005  0.9118800E+02  0.7818608E-02  0.1130116E+00
         25   -1    0    0    0    0  0.00000000000E+00  0.00000000000E+00  0.99999998245E-14  0.12500000000E+03  0.12500000000E+03 0.  0.
        -11    1    3    3    0    0 -0.14935503529E+02  0.27864182193E+02 -0.98122723920E+01  0.33102305127E+02  0.51100000000E-03 0.  1.
         23    2    1    0    0    0  0.22449793550E+02 -0.53019687611E+01  0.22630087355E+02  0.92685530225E+02  0.86869917441E+02 0.  0.
         11    1    3    3    0    0  0.37385297080E+02 -0.33166150954E+02  0.32442359747E+02  0.59583225098E+02  0.51100000000E-03 0. -1.
         22    1    1    0    0    0 -0.22449793550E+02  0.53019687611E+01 -0.22630087355E+02  0.32314469775E+02  0.00000000000E+00 0. -1.
</event>
<event>
 5    1  0.8863861E-005  0.9118800E+02  0.7818608E-02  0.1130116E+00
         25   -1    0    0    0    0  0.00000000000E+00  0.00000000000E+00  0.99999998245E-14  0.12500000000E+03  0.12500000000E+03 0.  0.
        -11    1    3    3    0    0 -0.46142568114E+02 -0.12064760071E+01 -0.41993369552E+02  0.62402205595E+02  0.51100000000E-03 0.  1.
         23    2    1    0    0    0 -0.19949252711E+02  0.11699067826E+01 -0.20536945978E+02  0.96345026335E+02  0.91985088921E+02 0.  0.
         11    1    3    3    0    0  0.26193315404E+02  0.23763827898E+01  0.21456423573E+02  0.33942820741E+02  0.51100000000E-03 0. -1.
         22    1    1    0    0    0  0.19949252711E+02 -0.11699067826E+01  0.20536945978E+02  0.28654973665E+02  0.00000000000E+00 0.  1.
</event>
<event>
 5    1  0.8863861E-005  0.9118800E+02  0.7818608E-02  0.1130116E+00
         25   -1    0    0    0    0  0.00000000000E+00  0.00000000000E+00  0.99999998245E-14  0.12500000000E+03  0.12500000000E+03 0.  0.
        -11    1    3    3    0    0  0.97165783747E+01 -0.12025704487E+02  0.12295404997E+02  0.19753643918E+02  0.51100000000E-03 0.  1.
         23    2    1    0    0    0 -0.37333973470E+02  0.20877495989E+02 -0.95302822665E+01  0.81176242814E+02  0.68330525415E+02 0.  0.
         11    1    3    3    0    0 -0.47050551844E+02  0.32903200476E+02 -0.21825687264E+02  0.61422598897E+02  0.51100000000E-03 0. -1.
         22    1    1    0    0    0  0.37333973470E+02 -0.20877495989E+02  0.95302822665E+01  0.43823757186E+02  0.00000000000E+00 0. -1.
</event>
<event>
 5    1  0.8863861E-005  0.9118800E+02  0.7818608E-02  0.1130116E+00
         25   -1    0    0    0    0  0.00000000000E+00  0.00000000000E+00  0.99999998245E-14  0.12500000000E+03  0.12500000000E+03 0.  0.
        -11    1    3    3    0    0 -0.22455628613E+02  0.19187160061E+02 -0.16093590441E+02  0.33636379430E+02  0.51100000000E-03 0.  1.
         23    2    1    0    0    0  0.87904088759E+01 -0.20280651186E+02  0.19690145641E+02  0.95398007903E+02  0.90689039998E+02 0.  0.
         11    1    3    3    0    0  0.31246037489E+02 -0.39467811247E+02  0.35783736082E+02  0.61761628473E+02  0.51100000000E-03 0. -1.
         22    1    1    0    0    0 -0.87904088759E+01  0.20280651186E+02 -0.19690145641E+02  0.29601992097E+02  0.00000000000E+00 0. -1.
</event>
<event>
 5    1  0.8863861E-005  0.9118800E+02  0.7818608E-02  0.1130116E+00
         25   -1    0    0    0    0  0.00000000000E+00  0.00000000000E+00  0.99999998245E-14  0.12500000000E+03  0.12500000000E+03 0.  0.
        -11    1    3    3    0    0 -0.45219887230E+02  0.38222652386E+02 -0.10573324262E+02  0.60146525608E+02  0.51100000000E-03 0. -1.
         23    2    1    0    0    0 -0.23141816836E+02  0.12669940733E+02 -0.15693705686E+02  0.94302060610E+02  0.89165661285E+02 0.  0.
         11    1    3    3    0    0  0.22078070394E+02 -0.25552711653E+02 -0.51203814233E+01  0.34155535002E+02  0.51100000000E-03 0.  1.
         22    1    1    0    0    0  0.23141816836E+02 -0.12669940733E+02  0.15693705686E+02  0.30697939390E+02  0.00000000000E+00 0. -1.
</event>
<event>
 5    1  0.8863861E-005  0.9118800E+02  0.7818608E-02  0.1130116E+00
         25   -1    0    0    0    0  0.00000000000E+00  0.00000000000E+00  0.99999998245E-14  0.12500000000E+03  0.12500000000E+03 0.  0.
        -11    1    3    3    0    0 -0.16069980827E+02 -0.24786781481E+02 -0.97329926294E+01  0.31102410931E+02  0.51100000000E-03 0. -1.
         23    2    1    0    0    0  0.35505490928E+01  0.31373177608E+02  0.64962843633E+01  0.92765168177E+02  0.86984435644E+02 0.  0.
         11    1    3    3    0    0  0.19620529920E+02  0.56159959089E+02  0.16229276993E+02  0.61662757246E+02  0.51100000000E-03 0.  1.
         22    1    1    0    0    0 -0.35505490928E+01 -0.31373177608E+02 -0.64962843633E+01  0.32234831823E+02  0.00000000000E+00 0.  1.
</event>
<event>
 5    1  0.8863861E-005  0.9118800E+02  0.7818608E-02  0.1130116E+00
         25   -1    0    0    0    0  0.00000000000E+00  0.00000000000E+00  0.99999998245E-14  0.12500000000E+03  0.12500000000E+03 0.  0.
        -11    1    3    3    0    0  0.22254801765E+02 -0.32291525867E+01  0.52474859251E+02  0.57090406214E+02  0.51100000000E-03 0. -1.
         23    2    1    0    0    0 -0.62488256083E+00 -0.16593658366E+02  0.20626538668E+02  0.98519930635E+02  0.94894587088E+02 0.  0.
         11    1    3    3    0    0 -0.22879684325E+02 -0.13364505779E+02 -0.31848320583E+02  0.41429524421E+02  0.51100000000E-03 0.  1.
         22    1    1    0    0    0  0.62488256083E+00  0.16593658366E+02 -0.20626538668E+02  0.26480069365E+02  0.00000000000E+00 0. -1.
</event>
<event>
 5    1  0.8863861E-005  0.9118800E+02  0.7818608E-02  0.1130116E+00
         25   -1    0    0    0    0  0.00000000000E+00  0.00000000000E+00  0.99999998245E-14  0.12500000000E+03  0.12500000000E+03 0.  0.
        -11    1    3    3    0    0 -0.40013225874E+02 -0.10364825680E+02  0.36643212477E+02  0.55237784868E+02  0.51100000000E-03 0. -1.
         23    2    1    0    0    0 -0.43668717498E+01 -0.20887852558E+02  0.19199133392E+02  0.96294971236E+02  0.91917043082E+02 0.  0.
         11    1    3    3    0    0  0.35646354125E+02 -0.10523026878E+02 -0.17444079085E+02  0.41057186368E+02  0.51100000000E-03 0.  1.
         22    1    1    0    0    0  0.43668717498E+01  0.20887852558E+02 -0.19199133392E+02  0.28705028764E+02  0.00000000000E+00 0. -1.
</event>
<event>
 5    1  0.8863861E-005  0.9118800E+02  0.7818608E-02  0.1130116E+00
         25   -1    0    0    0    0  0.00000000000E+00  0.00000000000E+00  0.99999998245E-14  0.12500000000E+03  0.12500000000E+03 0.  0.
        -11    1    3    3    0    0 -0.26155987873E+02  0.75315301360E+01  0.47777720285E+02  0.54987000315E+02  0.51100000000E-03 0. -1.
         23    2    1    0    0    0  0.44759646524E+01  0.17614718924E+02  0.23171646785E+02  0.95551098542E+02  0.90899805476E+02 0.  0.
         11    1    3    3    0    0  0.30631952525E+02  0.10083188788E+02 -0.24606073500E+02  0.40564098227E+02  0.51100000000E-03 0.  1.
         22    1    1    0    0    0 -0.44759646524E+01 -0.17614718924E+02 -0.23171646785E+02  0.29448901458E+02  0.00000000000E+00 0. -1.
</event>
<event>
 5    1  0.8863861E-005  0.9118800E+02  0.7818608E-02  0.1130116E+00
         25   -1    0    0    0    0  0.00000000000E+00  0.00000000000E+00  0.99999998245E-14  0.12500000000E+03  0.12500000000E+03 0.  0.
        -11    1    3    3    0    0  0.23612950540E+01  0.35286575431E+02  0.20592960349E+01  0.35425397957E+02  0.51100000000E-03 0. -1.
         23    2    1    0    0    0  0.15253295041E+02 -0.22900848415E+02 -0.90172863026E+01  0.96044459597E+02  0.91575733136E+02 0.  0.
         11    1    3    3    0    0  0.12891999987E+02 -0.58187423847E+02 -0.11076582337E+02  0.60619061640E+02  0.51100000000E-03 0.  1.
         22    1    1    0    0    0 -0.15253295041E+02  0.22900848415E+02  0.90172863026E+01  0.28955540403E+02  0.00000000000E+00 0.  1.
</event>
<event>
 5    1  0.8863861E-005  0.9118800E+02  0.7818608E-02  0.1130116E+00
         25   -1    0    0    0    0  0.00000000000E+00  0.00000000000E+00  0.99999998245E-14  0.12500000000E+03  0.12500000000E+03 0.  0.
        -11    1    3    3    0    0 -0.27380950568E+02  0.53459620365E+02 -0.61166634355E+01  0.60374340869E+02  0.51100000000E-03 0.  1.
         23    2    1    0    0    0 -0.61212609284E+01  0.30474253184E+02 -0.10928757704E+02  0.92051742270E+02  0.85953100977E+02 0.  0.
         11    1    3    3    0    0  0.21259689640E+02 -0.22985367181E+02 -0.48120942685E+01  0.31677401401E+02  0.51100000000E-03 0. -1.
         22    1    1    0    0    0  0.61212609284E+01 -0.30474253184E+02  0.10928757704E+02  0.32948257730E+02  0.00000000000E+00 0.  1.
</event>
<event>
 5    1  0.8863861E-005  0.9118800E+02  0.7818608E-02  0.1130116E+00
         25   -1    0    0    0    0  0.00000000000E+00  0.00000000000E+00  0.99999998245E-14  0.12500000000E+03  0.12500000000E+03 0.  0.
        -11    1    3    3    0    0 -0.84577737918E+01  0.44654121229E+02 -0.26145700919E+00  0.45448793606E+02  0.51100000000E-03 0. -1.
         23    2    1    0    0    0  0.90582754511E+01  0.11203045034E+02 -0.28811749063E+02  0.92786998646E+02  0.87015801217E+02 0.  0.
         11    1    3    3    0    0  0.17516049243E+02 -0.33451076195E+02 -0.28550292054E+02  0.47338205039E+02  0.51100000000E-03 0.  1.
         22    1    1    0    0    0 -0.90582754511E+01 -0.11203045034E+02  0.28811749063E+02  0.32213001354E+02  0.00000000000E+00 0.  1.
</event>
<event>
 5    1  0.8863861E-005  0.9118800E+02  0.7818608E-02  0.1130116E+00
         25   -1    0    0    0    0  0.00000000000E+00  0.00000000000E+00  0.99999998245E-14  0.12500000000E+03  0.12500000000E+03 0.  0.
        -11    1    3    3    0    0  0.19571614088E+02 -0.44043852644E+02 -0.89326592687E+01  0.49017358514E+02  0.51100000000E-03 0.  1.
         23    2    1    0    0    0  0.39885926593E+01 -0.67621160841E+01  0.23113367085E+02  0.10058969842E+03  0.97582911436E+02 0.  0.
         11    1    3    3    0    0 -0.15583021429E+02  0.37281736560E+02  0.32046026354E+02  0.51572339904E+02  0.51100000000E-03 0. -1.
         22    1    1    0    0    0 -0.39885926593E+01  0.67621160841E+01 -0.23113367085E+02  0.24410301583E+02  0.00000000000E+00 0. -1.
</event>
<event>
 5    1  0.8863861E-005  0.9118800E+02  0.7818608E-02  0.1130116E+00
         25   -1    0    0    0    0  0.00000000000E+00  0.00000000000E+00  0.99999998245E-14  0.12500000000E+03  0.12500000000E+03 0.  0.
        -11    1    3    3    0    0  0.62657042304E+01 -0.29232849123E+02  0.52209568699E+02  0.60163590163E+02  0.51100000000E-03 0. -1.
         23    2    1    0    0    0 -0.90186189257E+01 -0.15236877541E+02  0.23198266158E+02  0.95816828869E+02  0.91264490451E+02 0.  0.
         11    1    3    3    0    0 -0.15284323156E+02  0.13995971582E+02 -0.29011302541E+02  0.35653238706E+02  0.51100000000E-03 0.  1.
         22    1    1    0    0    0  0.90186189257E+01  0.15236877541E+02 -0.23198266158E+02  0.29183171131E+02  0.00000000000E+00 0. -1.
</event>
<event>
 5    1  0.8863861E-005  0.9118800E+02  0.7818608E-02  0.1130116E+00
         25   -1    0    0    0    0  0.00000000000E+00  0.00000000000E+00  0.99999998245E-14  0.12500000000E+03  0.12500000000E+03 0.  0.
        -11    1    3    3    0    0 -0.45272334414E+02 -0.28827454138E+02  0.95466561162E+01  0.54513714042E+02  0.51100000000E-03 0.  1.
         23    2    1    0    0    0 -0.45732355211E+01 -0.28095886838E+02  0.87232837721E+01  0.95227713891E+02  0.90454013028E+02 0.  0.
         11    1    3    3    0    0  0.40699098893E+02  0.73156729957E+00 -0.82337234418E+00  0.40713999849E+02  0.51100000000E-03 0. -1.
         22    1    1    0    0    0  0.45732355211E+01  0.28095886838E+02 -0.87232837721E+01  0.29772286109E+02  0.00000000000E+00 0.  1.
</event>
<event>
 5    1  0.8863861E-005  0.9118800E+02  0.7818608E-02  0.1130116E+00
         25   -1    0    0    0    0  0.00000000000E+00  0.00000000000E+00  0.99999998245E-14  0.12500000000E+03  0.12500000000E+03 0.  0.
        -11    1    3    3    0    0 -0.51160262109E+02 -0.20464806920E+02  0.16735931012E+02  0.57587083000E+02  0.51100000000E-03 0.  1.
         23    2    1    0    0    0 -0.27822295983E+02  0.50440049924E+01 -0.15170297192E+01  0.96683511530E+02  0.92443917499E+02 0.  0.
         11    1    3    3    0    0  0.23337966126E+02  0.25508811913E+02 -0.18252960731E+02  0.39096428530E+02  0.51100000000E-03 0. -1.
         22    1    1    0    0    0  0.27822295983E+02 -0.50440049924E+01  0.15170297192E+01  0.28316488470E+02  0.00000000000E+00 0.  1.
</event>
<event>
 5    1  0.8863861E-005  0.9118800E+02  0.7818608E-02  0.1130116E+00
         25   -1    0    0    0    0  0.00000000000E+00  0.00000000000E+00  0.99999998245E-14  0.12500000000E+03  0.12500000000E+03 0.  0.
        -11    1    3    3    0    0  0.46205610886E+01  0.54630585292E+02  0.14575508964E+02  0.56730026405E+02  0.51100000000E-03 0. -1.
         23    2    1    0    0    0  0.90605608261E+01  0.24384784847E+02 -0.11162915514E+02  0.96692365389E+02  0.92455888656E+02 0.  0.
         11    1    3    3    0    0  0.44399997374E+01 -0.30245800445E+02 -0.25738424478E+02  0.39962338984E+02  0.51100000000E-03 0.  1.
         22    1    1    0    0    0 -0.90605608261E+01 -0.24384784847E+02  0.11162915514E+02  0.28307634611E+02  0.00000000000E+00 0. -1.
</event>
<event>
 5    1  0.8863861E-005  0.9118800E+02  0.7818608E-02  0.1130116E+00
         25   -1    0    0    0    0  0.00000000000E+00  0.00000000000E+00  0.99999998245E-14  0.12500000000E+03  0.12500000000E+03 0.  0.
        -11    1    3    3    0    0  0.18538764751E+02 -0.10923307289E+02 -0.31799256536E+02  0.38395275193E+02  0.51100000000E-03 0.  1.
         23    2    1    0    0    0 -0.18799144652E+02 -0.17601771444E+02  0.12213569657E+02  0.96497342556E+02  0.92191841499E+02 0.  0.
         11    1    3    3    0    0 -0.37337909403E+02 -0.66784641553E+01  0.44012826194E+02  0.58102067363E+02  0.51100000000E-03 0. -1.
         22    1    1    0    0    0  0.18799144652E+02  0.17601771444E+02 -0.12213569657E+02  0.28502657444E+02  0.00000000000E+00 0. -1.
</event>
<event>
 5    1  0.8863861E-005  0.9118800E+02  0.7818608E-02  0.1130116E+00
         25   -1    0    0    0    0  0.00000000000E+00  0.00000000000E+00  0.99999998245E-14  0.12500000000E+03  0.12500000000E+03 0.  0.
        -11    1    3    3    0    0  0.15947774037E+02 -0.59058307459E+01  0.54467131550E+02  0.57060308035E+02  0.51100000000E-03 0.  1.
         23    2    1    0    0    0 -0.10916040970E+02 -0.61983097547E+01  0.25559750131E+02  0.96524048373E+02  0.92228043963E+02 0.  0.
         11    1    3    3    0    0 -0.26863815007E+02 -0.29247900880E+00 -0.28907381419E+02  0.39463740338E+02  0.51100000000E-03 0. -1.
         22    1    1    0    0    0  0.10916040970E+02  0.61983097547E+01 -0.25559750131E+02  0.28475951627E+02  0.00000000000E+00 0.  1.
</event>
<event>
 5    1  0.8863861E-005  0.9118800E+02  0.7818608E-02  0.1130116E+00
         25   -1    0    0    0    0  0.00000000000E+00  0.00000000000E+00  0.99999998245E-14  0.12500000000E+03  0.12500000000E+03 0.  0.
        -11    1    3    3    0    0  0.33252404131E+02 -0.73045701382E+01  0.44618057834E+01  0.34336377743E+02  0.51100000000E-03 0. -1.
         23    2    1    0    0    0 -0.11907490103E+02  0.48978926620E+01  0.33304797969E+02  0.89293036522E+02  0.81842892975E+02 0.  0.
         11    1    3    3    0    0 -0.45159894235E+02  0.12202462800E+02  0.28842992185E+02  0.54956658779E+02  0.51100000000E-03 0.  1.
         22    1    1    0    0    0  0.11907490103E+02 -0.48978926620E+01 -0.33304797969E+02  0.35706963478E+02  0.00000000000E+00 0.  1.
</event>
<event>
 5    1  0.8863861E-005  0.9118800E+02  0.7818608E-02  0.1130116E+00
         25   -1    0    0    0    0  0.00000000000E+00  0.00000000000E+00  0.99999998245E-14  0.12500000000E+03  0.12500000000E+03 0.  0.
        -11    1    3    3    0    0  0.14686012474E+02 -0.14695439638E+01  0.35296340367E+02  0.38257942514E+02  0.51100000000E-03 0. -1.
         23    2    1    0    0    0  0.21511697714E+02 -0.73514155992E+00 -0.20974688906E+02  0.94946195809E+02  0.90064137992E+02 0.  0.
         11    1    3    3    0    0  0.68256852399E+01  0.73440240389E+00 -0.56271029273E+02  0.56688253295E+02  0.51100000000E-03 0.  1.
         22    1    1    0    0    0 -0.21511697714E+02  0.73514155992E+00  0.20974688906E+02  0.30053804191E+02  0.00000000000E+00 0.  1.
</event>
<event>
 5    1  0.8863861E-005  0.9118800E+02  0.7818608E-02  0.1130116E+00
         25   -1    0    0    0    0  0.00000000000E+00  0.00000000000E+00  0.99999998245E-14  0.12500000000E+03  0.12500000000E+03 0.  0.
        -11    1    3    3    0    0 -0.32044716675E+02  0.35217729082E+02 -0.26881114895E+02  0.54678575757E+02  0.51100000000E-03 0.  1.
         23    2    1    0    0    0  0.29657639626E+01  0.16863344764E+02 -0.25565589484E+02  0.94230412447E+02  0.89065162166E+02 0.  0.
         11    1    3    3    0    0  0.35010480638E+02 -0.18354384318E+02  0.13155254102E+01  0.39551836690E+02  0.51100000000E-03 0. -1.
         22    1    1    0    0    0 -0.29657639626E+01 -0.16863344764E+02  0.25565589484E+02  0.30769587553E+02  0.00000000000E+00 0.  1.
</event>
<event>
 5    1  0.8863861E-005  0.9118800E+02  0.7818608E-02  0.1130116E+00
         25   -1    0    0    0    0  0.00000000000E+00  0.00000000000E+00  0.99999998245E-14  0.12500000000E+03  0.12500000000E+03 0.  0.
        -11    1    3    3    0    0 -0.13652644422E+02  0.33214906507E+02 -0.45804200924E+02  0.58203518248E+02  0.51100000000E-03 0.  1.
         23    2    1    0    0    0 -0.62155582768E+01  0.15004699234E+01 -0.29845180444E+02  0.94477559560E+02  0.89411352131E+02 0.  0.
         11    1    3    3    0    0  0.74370861452E+01 -0.31714436583E+02  0.15959020479E+02  0.36274041311E+02  0.51100000000E-03 0. -1.
         22    1    1    0    0    0  0.62155582768E+01 -0.15004699234E+01  0.29845180444E+02  0.30522440440E+02  0.00000000000E+00 0.  1.
</event>
<event>
 5    1  0.8863861E-005  0.9118800E+02  0.7818608E-02  0.1130116E+00
         25   -1    0    0    0    0  0.00000000000E+00  0.00000000000E+00  0.99999998245E-14  0.12500000000E+03  0.12500000000E+03 0.  0.
        -11    1    3    3    0    0  0.18237847612E+01  0.12279964909E+01 -0.36258034991E+02  0.36324637202E+02  0.51100000000E-03 0. -1.
         23    2    1    0    0    0  0.10033089768E+02  0.30067597427E+02  0.10272251805E+02  0.91679698944E+02  0.85410331553E+02 0.  0.
         11    1    3    3    0    0  0.82093050064E+01  0.28839600936E+02  0.46530286796E+02  0.55355061742E+02  0.51100000000E-03 0.  1.
         22    1    1    0    0    0 -0.10033089768E+02 -0.30067597427E+02 -0.10272251805E+02  0.33320301056E+02  0.00000000000E+00 0.  1.
</event>
<event>
 5    1  0.8863861E-005  0.9118800E+02  0.7818608E-02  0.1130116E+00
         25   -1    0    0    0    0  0.00000000000E+00  0.00000000000E+00  0.99999998245E-14  0.12500000000E+03  0.12500000000E+03 0.  0.
        -11    1    3    3    0    0 -0.20228841480E+02 -0.48706049814E+02 -0.10151956649E+02  0.53707983952E+02  0.51100000000E-03 0.  1.
         23    2    1    0    0    0 -0.14956257014E+02 -0.17442111778E+02  0.17768397027E+02  0.95954642023E+02  0.91453050827E+02 0.  0.
         11    1    3    3    0    0  0.52725844663E+01  0.31263938036E+02  0.27920353676E+02  0.42246658070E+02  0.51100000000E-03 0. -1.
         22    1    1    0    0    0  0.14956257014E+02  0.17442111778E+02 -0.17768397027E+02  0.29045357977E+02  0.00000000000E+00 0.  1.
</event>
<event>
 5    1  0.8863861E-005  0.9118800E+02  0.7818608E-02  0.1130116E+00
         25   -1    0    0    0    0  0.00000000000E+00  0.00000000000E+00  0.99999998245E-14  0.12500000000E+03  0.12500000000E+03 0.  0.
        -11    1    3    3    0    0 -0.31955727250E+02 -0.38316954952E+02 -0.35532289028E+02  0.61252764057E+02  0.51100000000E-03 0.  1.
         23    2    1    0    0    0 -0.19960608838E+02 -0.17909202092E+02 -0.92299639433E+01  0.96638800111E+02  0.92383440225E+02 0.  0.
         11    1    3    3    0    0  0.11995118412E+02  0.20407752860E+02  0.26302325084E+02  0.35386036054E+02  0.51100000000E-03 0. -1.
         22    1    1    0    0    0  0.19960608838E+02  0.17909202092E+02  0.92299639433E+01  0.28361199889E+02  0.00000000000E+00 0.  1.
</event>
<event>
 5    1  0.8863861E-005  0.9118800E+02  0.7818608E-02  0.1130116E+00
         25   -1    0    0    0    0  0.00000000000E+00  0.00000000000E+00  0.99999998245E-14  0.12500000000E+03  0.12500000000E+03 0.  0.
        -11    1    3    3    0    0 -0.43958685939E+02  0.38332912705E+02  0.55881327620E+01  0.58591855185E+02  0.51100000000E-03 0. -1.
         23    2    1    0    0    0 -0.12528318569E+02  0.21738419735E+02  0.15522576959E+02  0.95496304398E+02  0.90824424575E+02 0.  0.
         11    1    3    3    0    0  0.31430367370E+02 -0.16594492970E+02  0.99344441968E+01  0.36904449213E+02  0.51100000000E-03 0.  1.
         22    1    1    0    0    0  0.12528318569E+02 -0.21738419735E+02 -0.15522576959E+02  0.29503695602E+02  0.00000000000E+00 0.  1.
</event>
<event>
 5    1  0.8863861E-005  0.9118800E+02  0.7818608E-02  0.1130116E+00
         25   -1    0    0    0    0  0.00000000000E+00  0.00000000000E+00  0.99999998245E-14  0.12500000000E+03  0.12500000000E+03 0.  0.
        -11    1    3    3    0    0 -0.31136499889E+01 -0.12875928673E+02  0.37704541535E+02  0.39963943850E+02  0.51100000000E-03 0.  1.
         23    2    1    0    0    0  0.17362746723E+02 -0.19820053527E+02 -0.13388793600E+02  0.95443963567E+02  0.90752360254E+02 0.  0.
         11    1    3    3    0    0  0.20476396712E+02 -0.69441248539E+01 -0.51093335135E+02  0.55480019717E+02  0.51100000000E-03 0. -1.
         22    1    1    0    0    0 -0.17362746723E+02  0.19820053527E+02  0.13388793600E+02  0.29556036433E+02  0.00000000000E+00 0.  1.
</event>
<event>
 5    1  0.8863861E-005  0.9118800E+02  0.7818608E-02  0.1130116E+00
         25   -1    0    0    0    0  0.00000000000E+00  0.00000000000E+00  0.99999998245E-14  0.12500000000E+03  0.12500000000E+03 0.  0.
        -11    1    3    3    0    0  0.30503772353E+02 -0.30111210856E+02  0.19722226811E+02  0.47181896715E+02  0.51100000000E-03 0. -1.
         23    2    1    0    0    0  0.24888219171E+02  0.44142941053E+01 -0.14283763131E+02  0.95966651327E+02  0.91469463931E+02 0.  0.
         11    1    3    3    0    0 -0.56155531818E+01  0.34525504961E+02 -0.34005989942E+02  0.48784754612E+02  0.51100000000E-03 0.  1.
         22    1    1    0    0    0 -0.24888219171E+02 -0.44142941053E+01  0.14283763131E+02  0.29033348673E+02  0.00000000000E+00 0.  1.
</event>
<event>
 5    1  0.8863861E-005  0.9118800E+02  0.7818608E-02  0.1130116E+00
         25   -1    0    0    0    0  0.00000000000E+00  0.00000000000E+00  0.99999998245E-14  0.12500000000E+03  0.12500000000E+03 0.  0.
        -11    1    3    3    0    0 -0.39785013594E+01 -0.39934613194E+02 -0.30153785486E+02  0.50198133267E+02  0.51100000000E-03 0. -1.
         23    2    1    0    0    0 -0.25155049428E+02 -0.23237179746E+01 -0.12203550417E+02  0.96944647218E+02  0.92796345858E+02 0.  0.
         11    1    3    3    0    0 -0.21176548068E+02  0.37610895220E+02  0.17950235069E+02  0.46746513952E+02  0.51100000000E-03 0.  1.
         22    1    1    0    0    0  0.25155049428E+02  0.23237179746E+01  0.12203550417E+02  0.28055352782E+02  0.00000000000E+00 0. -1.
</event>
<event>
 5    1  0.8863861E-005  0.9118800E+02  0.7818608E-02  0.1130116E+00
         25   -1    0    0    0    0  0.00000000000E+00  0.00000000000E+00  0.99999998245E-14  0.12500000000E+03  0.12500000000E+03 0.  0.
        -11    1    3    3    0    0 -0.48890224113E+01 -0.19109908046E+02  0.55547285513E+02  0.58945670356E+02  0.51100000000E-03 0.  1.
         23    2    1    0    0    0 -0.13150154448E+02 -0.17086521552E+02  0.19678998494E+02  0.95808584096E+02  0.91253197336E+02 0.  0.
         11    1    3    3    0    0 -0.82611320368E+01  0.20233864943E+01 -0.35868287019E+02  0.36862913740E+02  0.51100000000E-03 0. -1.
         22    1    1    0    0    0  0.13150154448E+02  0.17086521552E+02 -0.19678998494E+02  0.29191415904E+02  0.00000000000E+00 0.  1.
</event>
<event>
 5    1  0.8863861E-005  0.9118800E+02  0.7818608E-02  0.1130116E+00
         25   -1    0    0    0    0  0.00000000000E+00  0.00000000000E+00  0.99999998245E-14  0.12500000000E+03  0.12500000000E+03 0.  0.
        -11    1    3    3    0    0  0.36796024469E+02  0.20820342090E+02 -0.26862173699E+01  0.42363307538E+02  0.51100000000E-03 0. -1.
         23    2    1    0    0    0 -0.49514620370E+01 -0.56457015115E+01  0.24915514254E+02  0.98977437244E+02  0.95495336593E+02 0.  0.
         11    1    3    3    0    0 -0.41747486506E+02 -0.26466043602E+02  0.27601731624E+02  0.56614129706E+02  0.51100000000E-03 0.  1.
         22    1    1    0    0    0  0.49514620370E+01  0.56457015115E+01 -0.24915514254E+02  0.26022562756E+02  0.00000000000E+00 0.  1.
</event>
<event>
 5    1  0.8863861E-005  0.9118800E+02  0.7818608E-02  0.1130116E+00
         25   -1    0    0    0    0  0.00000000000E+00  0.00000000000E+00  0.99999998245E-14  0.12500000000E+03  0.12500000000E+03 0.  0.
        -11    1    3    3    0    0  0.65506439197E+00 -0.67098711272E+00  0.33862710650E+02  0.33875691962E+02  0.51100000000E-03 0.  1.
         23    2    1    0    0    0  0.77527589974E+01 -0.22109572767E+02 -0.21208382731E+02  0.93397247302E+02  0.87888064181E+02 0.  0.
         11    1    3    3    0    0  0.70976946054E+01 -0.21438585655E+02 -0.55071093381E+02  0.59521555340E+02  0.51100000000E-03 0. -1.
         22    1    1    0    0    0 -0.77527589974E+01  0.22109572767E+02  0.21208382731E+02  0.31602752698E+02  0.00000000000E+00 0. -1.
</event>
<event>
 5    1  0.8863861E-005  0.9118800E+02  0.7818608E-02  0.1130116E+00
         25   -1    0    0    0    0  0.00000000000E+00  0.00000000000E+00  0.99999998245E-14  0.12500000000E+03  0.12500000000E+03 0.  0.
        -11    1    3    3    0    0  0.74774988609E+01  0.24051961318E+02  0.48658352874E+02  0.54790922032E+02  0.51100000000E-03 0.  1.
         23    2    1    0    0    0 -0.64160169630E+01 -0.78345953776E+01  0.27953076453E+02  0.95269197092E+02  0.90511321241E+02 0.  0.
         11    1    3    3    0    0 -0.13893515824E+02 -0.31886556696E+02 -0.20705276421E+02  0.40478275059E+02  0.51100000000E-03 0. -1.
         22    1    1    0    0    0  0.64160169630E+01  0.78345953776E+01 -0.27953076453E+02  0.29730802908E+02  0.00000000000E+00 0.  1.
</event>
<event>
 5    1  0.8863861E-005  0.9118800E+02  0.7818608E-02  0.1130116E+00
         25   -1    0    0    0    0  0.00000000000E+00  0.00000000000E+00  0.99999998245E-14  0.12500000000E+03  0.12500000000E+03 0.  0.
        -11    1    3    3    0    0  0.33182840719E+02 -0.45151994841E+01  0.43009886277E+02  0.54509983145E+02  0.51100000000E-03 0. -1.
         23    2    1    0    0    0  0.11463721937E+01 -0.19193015830E+02  0.22956875827E+02  0.95054980822E+02  0.90214994349E+02 0.  0.
         11    1    3    3    0    0 -0.32036468526E+02 -0.14677816346E+02 -0.20053010450E+02  0.40544997677E+02  0.51100000000E-03 0.  1.
         22    1    1    0    0    0 -0.11463721937E+01  0.19193015830E+02 -0.22956875827E+02  0.29945019178E+02  0.00000000000E+00 0. -1.
</event>
<event>
 4    1  0.8863861E-005  0.9118800E+02  0.7818608E-02  0.1130116E+00
         25   -1    0    0    0    0  0.00000000000E+00  0.00000000000E+00  0.99999998245E-14  0.12500000000E+03  0.12500000000E+03 0.  0.
        -11    1    1    0    0    0  0.37007857913E+02  0.82695179939E+01 -0.44006897194E+02  0.58091079144E+02  0.51100000000E-03 0. -1.
         11    1    1    0    0    0 -0.54479891971E+01 -0.11424352071E+02 -0.79440737482E-02  0.12656874413E+02  0.51100000000E-03 0.  1.
         22    1    1    0    0    0 -0.31559868716E+02  0.31548340772E+01  0.44014841268E+02  0.54252046443E+02  0.00000000000E+00 0. -1.
</event>
<event>
 5    1  0.8863861E-005  0.9118800E+02  0.7818608E-02  0.1130116E+00
         25   -1    0    0    0    0  0.00000000000E+00  0.00000000000E+00  0.99999998245E-14  0.12500000000E+03  0.12500000000E+03 0.  0.
        -11    1    3    3    0    0  0.28483850547E+02 -0.41364381286E+01 -0.32060248670E+02  0.43084793227E+02  0.51100000000E-03 0.  1.
         23    2    1    0    0    0 -0.11103528159E+02  0.24247333206E+02 -0.11488558606E+02  0.95961947655E+02  0.91463035777E+02 0.  0.
         11    1    3    3    0    0 -0.39587378706E+02  0.28383771334E+02  0.20571690064E+02  0.52877154427E+02  0.51100000000E-03 0. -1.
         22    1    1    0    0    0  0.11103528159E+02 -0.24247333206E+02  0.11488558606E+02  0.29038052345E+02  0.00000000000E+00 0. -1.
</event>
<event>
 5    1  0.8863861E-005  0.9118800E+02  0.7818608E-02  0.1130116E+00
         25   -1    0    0    0    0  0.00000000000E+00  0.00000000000E+00  0.99999998245E-14  0.12500000000E+03  0.12500000000E+03 0.  0.
        -11    1    3    3    0    0 -0.33015012046E+01  0.23278566498E+02 -0.32689667281E+02  0.40266684934E+02  0.51100000000E-03 0.  1.
         23    2    1    0    0    0 -0.83614545546E+01 -0.26612355582E+02 -0.93428393758E+01  0.95581977642E+02  0.90942258661E+02 0.  0.
         11    1    3    3    0    0 -0.50599533499E+01 -0.49890922079E+02  0.23346827905E+02  0.55315292708E+02  0.51100000000E-03 0. -1.
         22    1    1    0    0    0  0.83614545546E+01  0.26612355582E+02  0.93428393758E+01  0.29418022358E+02  0.00000000000E+00 0.  1.
</event>
<event>
 5    1  0.8863861E-005  0.9118800E+02  0.7818608E-02  0.1130116E+00
         25   -1    0    0    0    0  0.00000000000E+00  0.00000000000E+00  0.99999998245E-14  0.12500000000E+03  0.12500000000E+03 0.  0.
        -11    1    3    3    0    0 -0.71649961820E+01  0.25947565401E+02  0.16548912542E+02  0.31598731416E+02  0.51100000000E-03 0.  1.
         23    2    1    0    0    0 -0.47248846987E+01 -0.28688671036E+02 -0.12298055653E+02  0.93430924086E+02  0.87935948403E+02 0.  0.
         11    1    3    3    0    0  0.24401114833E+01 -0.54636236437E+02 -0.28846968195E+02  0.61832192670E+02  0.51100000000E-03 0. -1.
         22    1    1    0    0    0  0.47248846987E+01  0.28688671036E+02  0.12298055653E+02  0.31569075914E+02  0.00000000000E+00 0. -1.
</event>
<event>
 5    1  0.8863861E-005  0.9118800E+02  0.7818608E-02  0.1130116E+00
         25   -1    0    0    0    0  0.00000000000E+00  0.00000000000E+00  0.99999998245E-14  0.12500000000E+03  0.12500000000E+03 0.  0.
        -11    1    3    3    0    0 -0.24906706936E+01 -0.20160971661E+02 -0.54791944981E+02  0.58436507886E+02  0.51100000000E-03 0.  1.
         23    2    1    0    0    0 -0.92600882277E+01  0.46298462363E+01 -0.25920449787E+02  0.97088453513E+02  0.92989856318E+02 0.  0.
         11    1    3    3    0    0 -0.67694175341E+01  0.24790817897E+02  0.28871495194E+02  0.38651945627E+02  0.51100000000E-03 0. -1.
         22    1    1    0    0    0  0.92600882277E+01 -0.46298462363E+01  0.25920449787E+02  0.27911546487E+02  0.00000000000E+00 0.  1.
</event>
<event>
 5    1  0.8863861E-005  0.9118800E+02  0.7818608E-02  0.1130116E+00
         25   -1    0    0    0    0  0.00000000000E+00  0.00000000000E+00  0.99999998245E-14  0.12500000000E+03  0.12500000000E+03 0.  0.
        -11    1    3    3    0    0 -0.14921914913E+02  0.56607655575E+02  0.15570725423E+02  0.60576709261E+02  0.51100000000E-03 0. -1.
         23    2    1    0    0    0 -0.14832630921E+02  0.20658248615E+02  0.12514739768E+02  0.96655884432E+02  0.92406553383E+02 0.  0.
         11    1    3    3    0    0  0.89283992643E-01 -0.35949406961E+02 -0.30559856551E+01  0.36079175171E+02  0.51100000000E-03 0.  1.
         22    1    1    0    0    0  0.14832630921E+02 -0.20658248615E+02 -0.12514739768E+02  0.28344115568E+02  0.00000000000E+00 0. -1.
</event>
<event>
 5    1  0.8863861E-005  0.9118800E+02  0.7818608E-02  0.1130116E+00
         25   -1    0    0    0    0  0.00000000000E+00  0.00000000000E+00  0.99999998245E-14  0.12500000000E+03  0.12500000000E+03 0.  0.
        -11    1    3    3    0    0  0.37330221174E+02 -0.10713530979E+02 -0.35575860648E+01  0.38999763817E+02  0.51100000000E-03 0. -1.
         23    2    1    0    0    0 -0.16871271430E+02 -0.15254920156E+02 -0.18804693149E+02  0.95487818226E+02  0.90812744460E+02 0.  0.
         11    1    3    3    0    0 -0.54201492604E+02 -0.45413891770E+01 -0.15247107085E+02  0.56488054408E+02  0.51100000000E-03 0.  1.
         22    1    1    0    0    0  0.16871271430E+02  0.15254920156E+02  0.18804693149E+02  0.29512181774E+02  0.00000000000E+00 0.  1.
</event>
<event>
 5    1  0.8863861E-005  0.9118800E+02  0.7818608E-02  0.1130116E+00
         25   -1    0    0    0    0  0.00000000000E+00  0.00000000000E+00  0.99999998245E-14  0.12500000000E+03  0.12500000000E+03 0.  0.
        -11    1    3    3    0    0 -0.13634750762E+02 -0.20586909755E+02  0.52268390286E+02  0.57807541938E+02  0.51100000000E-03 0.  1.
         23    2    1    0    0    0 -0.17410067911E+02  0.35190700628E+01  0.20238420657E+02  0.98072542091E+02  0.94303422646E+02 0.  0.
         11    1    3    3    0    0 -0.37753171488E+01  0.24105979818E+02 -0.32029969629E+02  0.40265000152E+02  0.51100000000E-03 0. -1.
         22    1    1    0    0    0  0.17410067911E+02 -0.35190700628E+01 -0.20238420657E+02  0.26927457909E+02  0.00000000000E+00 0.  1.
</event>
<event>
 5    1  0.8863861E-005  0.9118800E+02  0.7818608E-02  0.1130116E+00
         25   -1    0    0    0    0  0.00000000000E+00  0.00000000000E+00  0.99999998245E-14  0.12500000000E+03  0.12500000000E+03 0.  0.
        -11    1    3    3    0    0  0.15721672021E+02  0.14590189057E+02  0.50015292487E+02  0.54420346109E+02  0.51100000000E-03 0.  1.
         23    2    1    0    0    0  0.88043221846E+01  0.26670466588E+02  0.12837057374E+02  0.94119262976E+02  0.88909030722E+02 0.  0.
         11    1    3    3    0    0 -0.69173498366E+01  0.12080277531E+02 -0.37178235113E+02  0.39698916866E+02  0.51100000000E-03 0. -1.
         22    1    1    0    0    0 -0.88043221846E+01 -0.26670466588E+02 -0.12837057374E+02  0.30880737024E+02  0.00000000000E+00 0.  1.
</event>
<event>
 5    1  0.8863861E-005  0.9118800E+02  0.7818608E-02  0.1130116E+00
         25   -1    0    0    0    0  0.00000000000E+00  0.00000000000E+00  0.99999998245E-14  0.12500000000E+03  0.12500000000E+03 0.  0.
        -11    1    3    3    0    0  0.32537973254E+02  0.23095884253E+02 -0.10660004719E+02  0.41301032357E+02  0.51100000000E-03 0. -1.
         23    2    1    0    0    0  0.11831120275E+02 -0.23618090387E+02  0.10456429978E+02  0.96590027659E+02  0.92317424763E+02 0.  0.
         11    1    3    3    0    0 -0.20706852978E+02 -0.46713974640E+02  0.21116434697E+02  0.55288995302E+02  0.51100000000E-03 0.  1.
         22    1    1    0    0    0 -0.11831120275E+02  0.23618090387E+02 -0.10456429978E+02  0.28409972341E+02  0.00000000000E+00 0.  1.
</event>
<event>
 5    1  0.8863861E-005  0.9118800E+02  0.7818608E-02  0.1130116E+00
         25   -1    0    0    0    0  0.00000000000E+00  0.00000000000E+00  0.99999998245E-14  0.12500000000E+03  0.12500000000E+03 0.  0.
        -11    1    3    3    0    0 -0.49840511766E+02  0.54398420617E+01 -0.27971781826E+02  0.57411576128E+02  0.51100000000E-03 0. -1.
         23    2    1    0    0    0 -0.26355302899E+02 -0.13419646942E+02 -0.56783185879E+01  0.94884684678E+02  0.89978726206E+02 0.  0.
         11    1    3    3    0    0  0.23485208867E+02 -0.18859489004E+02  0.22293463238E+02  0.37473108550E+02  0.51100000000E-03 0.  1.
         22    1    1    0    0    0  0.26355302899E+02  0.13419646942E+02  0.56783185879E+01  0.30115315322E+02  0.00000000000E+00 0. -1.
</event>
<event>
 5    1  0.8863861E-005  0.9118800E+02  0.7818608E-02  0.1130116E+00
         25   -1    0    0    0    0  0.00000000000E+00  0.00000000000E+00  0.99999998245E-14  0.12500000000E+03  0.12500000000E+03 0.  0.
        -11    1    3    3    0    0 -0.24191992924E+02  0.32801409909E+02  0.17378383727E+02  0.44307936477E+02  0.51100000000E-03 0. -1.
         23    2    1    0    0    0 -0.23181900264E+02 -0.16683491071E+02  0.10768192518E+01  0.96418556477E+02  0.92084955987E+02 0.  0.
         11    1    3    3    0    0  0.10100926597E+01 -0.49484900980E+02 -0.16301564475E+02  0.52110620000E+02  0.51100000000E-03 0.  1.
         22    1    1    0    0    0  0.23181900264E+02  0.16683491071E+02 -0.10768192518E+01  0.28581443523E+02  0.00000000000E+00 0.  1.
</event>
<event>
 5    1  0.8863861E-005  0.9118800E+02  0.7818608E-02  0.1130116E+00
         25   -1    0    0    0    0  0.00000000000E+00  0.00000000000E+00  0.99999998245E-14  0.12500000000E+03  0.12500000000E+03 0.  0.
        -11    1    3    3    0    0  0.24771898391E+02 -0.20012394629E+02  0.31983575865E+02  0.45134155737E+02  0.51100000000E-03 0. -1.
         23    2    1    0    0    0  0.28644086627E+02  0.93857057305E+01 -0.69431366251E+01  0.94068101950E+02  0.88837072709E+02 0.  0.
         11    1    3    3    0    0  0.38721882357E+01  0.29398100359E+02 -0.38926712490E+02  0.48933946214E+02  0.51100000000E-03 0.  1.
         22    1    1    0    0    0 -0.28644086627E+02 -0.93857057305E+01  0.69431366251E+01  0.30931898050E+02  0.00000000000E+00 0.  1.
</event>
<event>
 5    1  0.8863861E-005  0.9118800E+02  0.7818608E-02  0.1130116E+00
         25   -1    0    0    0    0  0.00000000000E+00  0.00000000000E+00  0.99999998245E-14  0.12500000000E+03  0.12500000000E+03 0.  0.
        -11    1    3    3    0    0 -0.14101551927E+02  0.13890075189E+02 -0.56438956181E+02  0.59809227804E+02  0.51100000000E-03 0.  1.
         23    2    1    0    0    0 -0.32538587325E+01  0.18387620855E+02 -0.22284355859E+02  0.95926219486E+02  0.91414194037E+02 0.  0.
         11    1    3    3    0    0  0.10847693195E+02  0.44975456663E+01  0.34154600322E+02  0.36116991681E+02  0.51100000000E-03 0. -1.
         22    1    1    0    0    0  0.32538587325E+01 -0.18387620855E+02  0.22284355859E+02  0.29073780514E+02  0.00000000000E+00 0.  1.
</event>
<event>
 5    1  0.8863861E-005  0.9118800E+02  0.7818608E-02  0.1130116E+00
         25   -1    0    0    0    0  0.00000000000E+00  0.00000000000E+00  0.99999998245E-14  0.12500000000E+03  0.12500000000E+03 0.  0.
        -11    1    3    3    0    0 -0.16653088696E+02 -0.39926839544E+02  0.81867012811E+01  0.44028399439E+02  0.51100000000E-03 0. -1.
         23    2    1    0    0    0  0.36972626182E+01  0.41509033017E+01  0.27991896475E+02  0.96461499385E+02  0.92143230062E+02 0.  0.
         11    1    3    3    0    0  0.20350351314E+02  0.44077742845E+02  0.19805195194E+02  0.52433099945E+02  0.51100000000E-03 0.  1.
         22    1    1    0    0    0 -0.36972626182E+01 -0.41509033017E+01 -0.27991896475E+02  0.28538500615E+02  0.00000000000E+00 0.  1.
</event>
<event>
 5    1  0.8863861E-005  0.9118800E+02  0.7818608E-02  0.1130116E+00
         25   -1    0    0    0    0  0.00000000000E+00  0.00000000000E+00  0.99999998245E-14  0.12500000000E+03  0.12500000000E+03 0.  0.
        -11    1    3    3    0    0 -0.29807651964E+02 -0.13867946533E+02 -0.15091058531E+02  0.36173969985E+02  0.51100000000E-03 0.  1.
         23    2    1    0    0    0  0.57465954009E+01  0.14801030403E+01  0.29312955481E+02  0.95092418641E+02  0.90266852500E+02 0.  0.
         11    1    3    3    0    0  0.35554247364E+02  0.15348049573E+02  0.44404014012E+02  0.58918448656E+02  0.51100000000E-03 0. -1.
         22    1    1    0    0    0 -0.57465954009E+01 -0.14801030403E+01 -0.29312955481E+02  0.29907581359E+02  0.00000000000E+00 0. -1.
</event>
<event>
 5    1  0.8863861E-005  0.9118800E+02  0.7818608E-02  0.1130116E+00
         25   -1    0    0    0    0  0.00000000000E+00  0.00000000000E+00  0.99999998245E-14  0.12500000000E+03  0.12500000000E+03 0.  0.
        -11    1    3    3    0    0 -0.13628162053E+02 -0.47459800793E+02  0.64978333556E+01  0.49803426899E+02  0.51100000000E-03 0.  1.
         23    2    1    0    0    0 -0.44263970210E+01 -0.12604250796E+02  0.29534289411E+02  0.92584966764E+02  0.86725092625E+02 0.  0.
         11    1    3    3    0    0  0.92017650323E+01  0.34855549998E+02  0.23036456055E+02  0.42781539865E+02  0.51100000000E-03 0. -1.
         22    1    1    0    0    0  0.44263970210E+01  0.12604250796E+02 -0.29534289411E+02  0.32415033236E+02  0.00000000000E+00 0. -1.
</event>
<event>
 5    1  0.8863861E-005  0.9118800E+02  0.7818608E-02  0.1130116E+00
         25   -1    0    0    0    0  0.00000000000E+00  0.00000000000E+00  0.99999998245E-14  0.12500000000E+03  0.12500000000E+03 0.  0.
        -11    1    3    3    0    0  0.42705453193E+02 -0.13673712771E+02 -0.36536029405E+02  0.57841227496E+02  0.51100000000E-03 0. -1.
         23    2    1    0    0    0  0.23960176367E+02 -0.20908877223E+02 -0.89596742869E+01  0.91961432210E+02  0.85821664238E+02 0.  0.
         11    1    3    3    0    0 -0.18745276825E+02 -0.72351644514E+01  0.27576355118E+02  0.34120204714E+02  0.51100000000E-03 0.  1.
         22    1    1    0    0    0 -0.23960176367E+02  0.20908877223E+02  0.89596742869E+01  0.33038567790E+02  0.00000000000E+00 0. -1.
</event>
<event>
 5    1  0.8863861E-005  0.9118800E+02  0.7818608E-02  0.1130116E+00
         25   -1    0    0    0    0  0.00000000000E+00  0.00000000000E+00  0.99999998245E-14  0.12500000000E+03  0.12500000000E+03 0.  0.
        -11    1    3    3    0    0  0.25593245569E+02  0.43311058814E+02 -0.33046792132E+02  0.60190966970E+02  0.51100000000E-03 0. -1.
         23    2    1    0    0    0  0.49174932376E+01  0.15561274020E+02 -0.24030594987E+02  0.95951687066E+02  0.91449011840E+02 0.  0.
         11    1    3    3    0    0 -0.20675752332E+02 -0.27749784793E+02  0.90161971447E+01  0.35760720096E+02  0.51100000000E-03 0.  1.
         22    1    1    0    0    0 -0.49174932376E+01 -0.15561274020E+02  0.24030594987E+02  0.29048312934E+02  0.00000000000E+00 0. -1.
</event>
<event>
 5    1  0.8863861E-005  0.9118800E+02  0.7818608E-02  0.1130116E+00
         25   -1    0    0    0    0  0.00000000000E+00  0.00000000000E+00  0.99999998245E-14  0.12500000000E+03  0.12500000000E+03 0.  0.
        -11    1    3    3    0    0  0.17892995932E+00  0.29013896277E+02  0.32831084112E+02  0.43814589777E+02  0.51100000000E-03 0.  1.
         23    2    1    0    0    0 -0.11722664720E+02  0.24450682671E+02 -0.15478579883E+02  0.93777521136E+02  0.88427259847E+02 0.  0.
         11    1    3    3    0    0 -0.11901594679E+02 -0.45632136060E+01 -0.48309663996E+02  0.49962931359E+02  0.51100000000E-03 0. -1.
         22    1    1    0    0    0  0.11722664720E+02 -0.24450682671E+02  0.15478579883E+02  0.31222478864E+02  0.00000000000E+00 0.  1.
</event>
<event>
 5    1  0.8863861E-005  0.9118800E+02  0.7818608E-02  0.1130116E+00
         25   -1    0    0    0    0  0.00000000000E+00  0.00000000000E+00  0.99999998245E-14  0.12500000000E+03  0.12500000000E+03 0.  0.
        -11    1    3    3    0    0 -0.28160799885E+02  0.17189086872E+02 -0.19648211955E+02  0.38399838423E+02  0.51100000000E-03 0.  1.
         23    2    1    0    0    0 -0.12030090992E+02 -0.26419733498E+02  0.10852986559E+02  0.94007860277E+02  0.88752267967E+02 0.  0.
         11    1    3    3    0    0  0.16130708893E+02 -0.43608820370E+02  0.30501198514E+02  0.55608021854E+02  0.51100000000E-03 0. -1.
         22    1    1    0    0    0  0.12030090992E+02  0.26419733498E+02 -0.10852986559E+02  0.30992139723E+02  0.00000000000E+00 0. -1.
</event>
<event>
 5    1  0.8863861E-005  0.9118800E+02  0.7818608E-02  0.1130116E+00
         25   -1    0    0    0    0  0.00000000000E+00  0.00000000000E+00  0.99999998245E-14  0.12500000000E+03  0.12500000000E+03 0.  0.
        -11    1    3    3    0    0 -0.35672114159E+02  0.23513953883E+02 -0.17861310416E+02  0.46308014056E+02  0.51100000000E-03 0. -1.
         23    2    1    0    0    0 -0.14240855139E+02 -0.21283644924E+02 -0.13208993268E+02  0.96185541833E+02  0.91768106977E+02 0.  0.
         11    1    3    3    0    0  0.21431259020E+02 -0.44797598807E+02  0.46523171485E+01  0.49877527777E+02  0.51100000000E-03 0.  1.
         22    1    1    0    0    0  0.14240855139E+02  0.21283644924E+02  0.13208993268E+02  0.28814458167E+02  0.00000000000E+00 0. -1.
</event>
<event>
 5    1  0.8863861E-005  0.9118800E+02  0.7818608E-02  0.1130116E+00
         25   -1    0    0    0    0  0.00000000000E+00  0.00000000000E+00  0.99999998245E-14  0.12500000000E+03  0.12500000000E+03 0.  0.
        -11    1    3    3    0    0  0.34994952394E+02  0.76193041292E+01 -0.21045772824E+02  0.41540643261E+02  0.51100000000E-03 0.  1.
         23    2    1    0    0    0 -0.14079737025E+02  0.24986632699E+02 -0.84632296902E+01  0.95096871985E+02  0.90273019204E+02 0.  0.
         11    1    3    3    0    0 -0.49074689419E+02  0.17367328569E+02  0.12582543134E+02  0.53556228724E+02  0.51100000000E-03 0. -1.
         22    1    1    0    0    0  0.14079737025E+02 -0.24986632699E+02  0.84632296902E+01  0.29903128015E+02  0.00000000000E+00 0. -1.
</event>
<event>
 5    1  0.8863861E-005  0.9118800E+02  0.7818608E-02  0.1130116E+00
         25   -1    0    0    0    0  0.00000000000E+00  0.00000000000E+00  0.99999998245E-14  0.12500000000E+03  0.12500000000E+03 0.  0.
        -11    1    3    3    0    0  0.33767532931E+02 -0.39417847421E+02 -0.25312153400E+02  0.57747017980E+02  0.51100000000E-03 0.  1.
         23    2    1    0    0    0  0.13998296702E+02 -0.25545346507E+02  0.38567769996E+01  0.95616471152E+02  0.90989657589E+02 0.  0.
         11    1    3    3    0    0 -0.19769236228E+02  0.13872500915E+02  0.29168930399E+02  0.37869453172E+02  0.51100000000E-03 0. -1.
         22    1    1    0    0    0 -0.13998296702E+02  0.25545346507E+02 -0.38567769996E+01  0.29383528848E+02  0.00000000000E+00 0.  1.
</event>
<event>
 5    1  0.8863861E-005  0.9118800E+02  0.7818608E-02  0.1130116E+00
         25   -1    0    0    0    0  0.00000000000E+00  0.00000000000E+00  0.99999998245E-14  0.12500000000E+03  0.12500000000E+03 0.  0.
        -11    1    3    3    0    0  0.14686039904E+02  0.48507416967E+02  0.15031037195E+02  0.52863799980E+02  0.51100000000E-03 0.  1.
         23    2    1    0    0    0  0.85347868106E+01  0.70260633771E+01  0.26455988690E+02  0.96327234349E+02  0.91960907930E+02 0.  0.
         11    1    3    3    0    0 -0.61512530932E+01 -0.41481353590E+02  0.11424951495E+02  0.43463434370E+02  0.51100000000E-03 0. -1.
         22    1    1    0    0    0 -0.85347868106E+01 -0.70260633771E+01 -0.26455988690E+02  0.28672765651E+02  0.00000000000E+00 0.  1.
</event>
<event>
 5    1  0.8863861E-005  0.9118800E+02  0.7818608E-02  0.1130116E+00
         25   -1    0    0    0    0  0.00000000000E+00  0.00000000000E+00  0.99999998245E-14  0.12500000000E+03  0.12500000000E+03 0.  0.
        -11    1    3    3    0    0 -0.20262063527E+01 -0.32629857444E+02 -0.13607435658E+02  0.35411515280E+02  0.51100000000E-03 0.  1.
         23    2    1    0    0    0 -0.78540075277E+01  0.12958177866E+02  0.25221194169E+02  0.95577076230E+02  0.90935521429E+02 0.  0.
         11    1    3    3    0    0 -0.58278011749E+01  0.45588035310E+02  0.38828629827E+02  0.60165560950E+02  0.51100000000E-03 0. -1.
         22    1    1    0    0    0  0.78540075277E+01 -0.12958177866E+02 -0.25221194169E+02  0.29422923770E+02  0.00000000000E+00 0. -1.
</event>
<event>
 5    1  0.8863861E-005  0.9118800E+02  0.7818608E-02  0.1130116E+00
         25   -1    0    0    0    0  0.00000000000E+00  0.00000000000E+00  0.99999998245E-14  0.12500000000E+03  0.12500000000E+03 0.  0.
        -11    1    3    3    0    0 -0.17206776071E+02  0.60154214415E+01 -0.42637175803E+02  0.46370111048E+02  0.51100000000E-03 0.  1.
         23    2    1    0    0    0  0.11631769707E+02 -0.22406575673E+02 -0.20241930820E+02  0.92641253682E+02  0.86806183078E+02 0.  0.
         11    1    3    3    0    0  0.28838545778E+02 -0.28421997115E+02  0.22395244983E+02  0.46271142634E+02  0.51100000000E-03 0. -1.
         22    1    1    0    0    0 -0.11631769707E+02  0.22406575673E+02  0.20241930820E+02  0.32358746318E+02  0.00000000000E+00 0.  1.
</event>
<event>
 5    1  0.8863861E-005  0.9118800E+02  0.7818608E-02  0.1130116E+00
         25   -1    0    0    0    0  0.00000000000E+00  0.00000000000E+00  0.99999998245E-14  0.12500000000E+03  0.12500000000E+03 0.  0.
        -11    1    3    3    0    0  0.54442578804E+02  0.27336860765E+02 -0.25008083770E+01  0.60971734321E+02  0.51100000000E-03 0.  1.
         23    2    1    0    0    0  0.20711580116E+02  0.18930877159E+02  0.49058354946E+01  0.96514654946E+02  0.92215311834E+02 0.  0.
         11    1    3    3    0    0 -0.33730998688E+02 -0.84059836051E+01  0.74066438717E+01  0.35542920625E+02  0.51100000000E-03 0. -1.
         22    1    1    0    0    0 -0.20711580116E+02 -0.18930877159E+02 -0.49058354946E+01  0.28485345054E+02  0.00000000000E+00 0.  1.
</event>
<event>
 5    1  0.8863861E-005  0.9118800E+02  0.7818608E-02  0.1130116E+00
         25   -1    0    0    0    0  0.00000000000E+00  0.00000000000E+00  0.99999998245E-14  0.12500000000E+03  0.12500000000E+03 0.  0.
        -11    1    3    3    0    0 -0.51436121215E+02 -0.90471796260E+01 -0.10647740503E+02  0.53300097588E+02  0.51100000000E-03 0.  1.
         23    2    1    0    0    0 -0.17281652564E+02 -0.20460672177E+02  0.11798577642E+02  0.95733960711E+02  0.91150919786E+02 0.  0.
         11    1    3    3    0    0  0.34154468651E+02 -0.11413492551E+02  0.22446318145E+02  0.42433863123E+02  0.51100000000E-03 0. -1.
         22    1    1    0    0    0  0.17281652564E+02  0.20460672177E+02 -0.11798577642E+02  0.29266039289E+02  0.00000000000E+00 0.  1.
</event>
<event>
 5    1  0.8863861E-005  0.9118800E+02  0.7818608E-02  0.1130116E+00
         25   -1    0    0    0    0  0.00000000000E+00  0.00000000000E+00  0.99999998245E-14  0.12500000000E+03  0.12500000000E+03 0.  0.
        -11    1    3    3    0    0  0.27375735999E+02 -0.27340772825E+02  0.22707508814E+02  0.44861784817E+02  0.51100000000E-03 0. -1.
         23    2    1    0    0    0  0.10894211258E+02  0.20654522097E+02  0.17387317552E+02  0.95886224332E+02  0.91359488194E+02 0.  0.
         11    1    3    3    0    0 -0.16481524742E+02  0.47995294922E+02 -0.53201912629E+01  0.51024439515E+02  0.51100000000E-03 0.  1.
         22    1    1    0    0    0 -0.10894211258E+02 -0.20654522097E+02 -0.17387317552E+02  0.29113775668E+02  0.00000000000E+00 0.  1.
</event>
<event>
 5    1  0.8863861E-005  0.9118800E+02  0.7818608E-02  0.1130116E+00
         25   -1    0    0    0    0  0.00000000000E+00  0.00000000000E+00  0.99999998245E-14  0.12500000000E+03  0.12500000000E+03 0.  0.
        -11    1    3    3    0    0 -0.29002639936E+02  0.43256835573E+02 -0.33733580527E+02  0.62050474636E+02  0.51100000000E-03 0.  1.
         23    2    1    0    0    0 -0.15835992081E+02  0.22159146734E+02 -0.11405794510E+02  0.95472071228E+02  0.90791066779E+02 0.  0.
         11    1    3    3    0    0  0.13166647856E+02 -0.21097688839E+02  0.22327786016E+02  0.33421596592E+02  0.51100000000E-03 0. -1.
         22    1    1    0    0    0  0.15835992081E+02 -0.22159146734E+02  0.11405794510E+02  0.29527928772E+02  0.00000000000E+00 0.  1.
</event>
<event>
 5    1  0.8863861E-005  0.9118800E+02  0.7818608E-02  0.1130116E+00
         25   -1    0    0    0    0  0.00000000000E+00  0.00000000000E+00  0.99999998245E-14  0.12500000000E+03  0.12500000000E+03 0.  0.
        -11    1    3    3    0    0  0.82715096646E+00 -0.30005288710E+02  0.37905527243E+02  0.48351117103E+02  0.51100000000E-03 0. -1.
         23    2    1    0    0    0  0.26299781854E+02  0.79790147347E+00  0.11318519988E+02  0.96356954299E+02  0.92001296593E+02 0.  0.
         11    1    3    3    0    0  0.25472630887E+02  0.30803190183E+02 -0.26587007255E+02  0.48005837196E+02  0.51100000000E-03 0.  1.
         22    1    1    0    0    0 -0.26299781854E+02 -0.79790147347E+00 -0.11318519988E+02  0.28643045701E+02  0.00000000000E+00 0.  1.
</event>
<event>
 5    1  0.8863861E-005  0.9118800E+02  0.7818608E-02  0.1130116E+00
         25   -1    0    0    0    0  0.00000000000E+00  0.00000000000E+00  0.99999998245E-14  0.12500000000E+03  0.12500000000E+03 0.  0.
        -11    1    3    3    0    0 -0.47208305519E+02 -0.15211262827E+02  0.13675154250E+02  0.51449163946E+02  0.51100000000E-03 0.  1.
         23    2    1    0    0    0 -0.90604652654E+01  0.15078396409E+02  0.17342389018E+02  0.10029760081E+03  0.97208025397E+02 0.  0.
         11    1    3    3    0    0  0.38147840253E+02  0.30289659236E+02  0.36672347679E+01  0.48848436860E+02  0.51100000000E-03 0. -1.
         22    1    1    0    0    0  0.90604652654E+01 -0.15078396409E+02 -0.17342389018E+02  0.24702399194E+02  0.00000000000E+00 0. -1.
</event>
<event>
 5    1  0.8863861E-005  0.9118800E+02  0.7818608E-02  0.1130116E+00
         25   -1    0    0    0    0  0.00000000000E+00  0.00000000000E+00  0.99999998245E-14  0.12500000000E+03  0.12500000000E+03 0.  0.
        -11    1    3    3    0    0 -0.38293441845E+02 -0.29889251437E+02 -0.14550321109E+02  0.50709633054E+02  0.51100000000E-03 0. -1.
         23    2    1    0    0    0 -0.30979219554E+01 -0.26993227500E+02  0.12400803186E+02  0.95133440590E+02  0.90323641133E+02 0.  0.
         11    1    3    3    0    0  0.35195519890E+02  0.28960239372E+01  0.26951124296E+02  0.44423807536E+02  0.51100000000E-03 0.  1.
         22    1    1    0    0    0  0.30979219554E+01  0.26993227500E+02 -0.12400803186E+02  0.29866559410E+02  0.00000000000E+00 0.  1.
</event>
<event>
 5    1  0.8863861E-005  0.9118800E+02  0.7818608E-02  0.1130116E+00
         25   -1    0    0    0    0  0.00000000000E+00  0.00000000000E+00  0.99999998245E-14  0.12500000000E+03  0.12500000000E+03 0.  0.
        -11    1    3    3    0    0 -0.29646285582E+01  0.24156302176E+02 -0.52196000329E+02  0.57591131331E+02  0.51100000000E-03 0.  1.
         23    2    1    0    0    0  0.52427878030E+01  0.24484255909E+02 -0.14724871613E+02  0.95951980181E+02  0.91449412492E+02 0.  0.
         11    1    3    3    0    0  0.82074163611E+01  0.32795373303E+00  0.37471128716E+02  0.38360848850E+02  0.51100000000E-03 0. -1.
         22    1    1    0    0    0 -0.52427878030E+01 -0.24484255909E+02  0.14724871613E+02  0.29048019819E+02  0.00000000000E+00 0.  1.
</event>
<event>
 5    1  0.8863861E-005  0.9118800E+02  0.7818608E-02  0.1130116E+00
         25   -1    0    0    0    0  0.00000000000E+00  0.00000000000E+00  0.99999998245E-14  0.12500000000E+03  0.12500000000E+03 0.  0.
        -11    1    3    3    0    0 -0.35135841308E+02 -0.16402793279E+01  0.41099344567E+01  0.35413407379E+02  0.51100000000E-03 0.  1.
         23    2    1    0    0    0  0.24025730953E+02  0.96207057665E+01 -0.99776107217E+01  0.97262904929E+02  0.93224064662E+02 0.  0.
         11    1    3    3    0    0  0.59161572261E+02  0.11260985094E+02 -0.14087545178E+02  0.61849497550E+02  0.51100000000E-03 0. -1.
         22    1    1    0    0    0 -0.24025730953E+02 -0.96207057665E+01  0.99776107217E+01  0.27737095071E+02  0.00000000000E+00 0. -1.
</event>
<event>
 5    1  0.8863861E-005  0.9118800E+02  0.7818608E-02  0.1130116E+00
         25   -1    0    0    0    0  0.00000000000E+00  0.00000000000E+00  0.99999998245E-14  0.12500000000E+03  0.12500000000E+03 0.  0.
        -11    1    3    3    0    0  0.12020276548E+02 -0.45386384856E+02  0.25428558551E+02  0.53394967636E+02  0.51100000000E-03 0. -1.
         23    2    1    0    0    0  0.51434595115E+01 -0.25762132987E+02 -0.11927401972E+02  0.96148560008E+02  0.91717719128E+02 0.  0.
         11    1    3    3    0    0 -0.68768170366E+01  0.19624251869E+02 -0.37355960523E+02  0.42753592373E+02  0.51100000000E-03 0.  1.
         22    1    1    0    0    0 -0.51434595115E+01  0.25762132987E+02  0.11927401972E+02  0.28851439992E+02  0.00000000000E+00 0. -1.
</event>
<event>
 5    1  0.8863861E-005  0.9118800E+02  0.7818608E-02  0.1130116E+00
         25   -1    0    0    0    0  0.00000000000E+00  0.00000000000E+00  0.99999998245E-14  0.12500000000E+03  0.12500000000E+03 0.  0.
        -11    1    3    3    0    0  0.33586622342E+02 -0.66512184931E+01  0.10661068267E+02  0.35860260521E+02  0.51100000000E-03 0.  1.
         23    2    1    0    0    0 -0.14400844817E+02 -0.35549015885E-01 -0.25093502964E+02  0.96067846845E+02  0.91607650943E+02 0.  0.
         11    1    3    3    0    0 -0.47987467158E+02  0.66156694772E+01 -0.35754571230E+02  0.60207586325E+02  0.51100000000E-03 0. -1.
         22    1    1    0    0    0  0.14400844817E+02  0.35549015885E-01  0.25093502964E+02  0.28932153155E+02  0.00000000000E+00 0. -1.
</event>
<event>
 5    1  0.8863861E-005  0.9118800E+02  0.7818608E-02  0.1130116E+00
         25   -1    0    0    0    0  0.00000000000E+00  0.00000000000E+00  0.99999998245E-14  0.12500000000E+03  0.12500000000E+03 0.  0.
        -11    1    3    3    0    0 -0.33181468239E+02  0.13956196037E+02  0.21955859419E+02  0.42164499349E+02  0.51100000000E-03 0.  1.
         23    2    1    0    0    0  0.12987220082E+02  0.28453055279E+02  0.57372303561E+01  0.93201257064E+02  0.87608870932E+02 0.  0.
         11    1    3    3    0    0  0.46168688321E+02  0.14496859242E+02 -0.16218629063E+02  0.51036757715E+02  0.51100000000E-03 0. -1.
         22    1    1    0    0    0 -0.12987220082E+02 -0.28453055279E+02 -0.57372303561E+01  0.31798742936E+02  0.00000000000E+00 0. -1.
</event>
<event>
 5    1  0.8863861E-005  0.9118800E+02  0.7818608E-02  0.1130116E+00
         25   -1    0    0    0    0  0.00000000000E+00  0.00000000000E+00  0.99999998245E-14  0.12500000000E+03  0.12500000000E+03 0.  0.
        -11    1    3    3    0    0  0.29596615020E+02 -0.17189191266E+01  0.94319295501E+01  0.31110699106E+02  0.51100000000E-03 0.  1.
         23    2    1    0    0    0 -0.17020677743E+02  0.30693056226E+02  0.11896905450E+02  0.87941889814E+02  0.79752570199E+02 0.  0.
         11    1    3    3    0    0 -0.46617292763E+02  0.32411975352E+02  0.24649758996E+01  0.56831190707E+02  0.51100000000E-03 0. -1.
         22    1    1    0    0    0  0.17020677743E+02 -0.30693056226E+02 -0.11896905450E+02  0.37058110186E+02  0.00000000000E+00 0. -1.
</event>
<event>
 5    1  0.8863861E-005  0.9118800E+02  0.7818608E-02  0.1130116E+00
         25   -1    0    0    0    0  0.00000000000E+00  0.00000000000E+00  0.99999998245E-14  0.12500000000E+03  0.12500000000E+03 0.  0.
        -11    1    3    3    0    0 -0.81317332753E+01 -0.20812861710E+02 -0.31815641229E+02  0.38878468664E+02  0.51100000000E-03 0. -1.
         23    2    1    0    0    0  0.89088812430E+01  0.26659783715E+02 -0.36307662929E+01  0.96657546038E+02  0.92408801039E+02 0.  0.
         11    1    3    3    0    0  0.17040614518E+02  0.47472645424E+02  0.28184874936E+02  0.57779077374E+02  0.51100000000E-03 0.  1.
         22    1    1    0    0    0 -0.89088812430E+01 -0.26659783715E+02  0.36307662929E+01  0.28342453962E+02  0.00000000000E+00 0.  1.
</event>
<event>
 5    1  0.8863861E-005  0.9118800E+02  0.7818608E-02  0.1130116E+00
         25   -1    0    0    0    0  0.00000000000E+00  0.00000000000E+00  0.99999998245E-14  0.12500000000E+03  0.12500000000E+03 0.  0.
        -11    1    3    3    0    0  0.26222264259E+01 -0.32096171835E+02  0.50283508844E+02  0.59711569899E+02  0.51100000000E-03 0. -1.
         23    2    1    0    0    0 -0.10056636338E+02 -0.19745796181E+02  0.18320671667E+02  0.96247966827E+02  0.91853098515E+02 0.  0.
         11    1    3    3    0    0 -0.12678862764E+02  0.12350375653E+02 -0.31962837177E+02  0.36536396928E+02  0.51100000000E-03 0.  1.
         22    1    1    0    0    0  0.10056636338E+02  0.19745796181E+02 -0.18320671667E+02  0.28752033173E+02  0.00000000000E+00 0. -1.
</event>
<event>
 5    1  0.8863861E-005  0.9118800E+02  0.7818608E-02  0.1130116E+00
         25   -1    0    0    0    0  0.00000000000E+00  0.00000000000E+00  0.99999998245E-14  0.12500000000E+03  0.12500000000E+03 0.  0.
        -11    1    3    3    0    0  0.39136346402E+02 -0.31753445410E+02  0.12968009709E+02  0.52039448317E+02  0.51100000000E-03 0. -1.
         23    2    1    0    0    0  0.28425115142E+02 -0.12574177407E+01 -0.13207180357E+02  0.93631259457E+02  0.88220263343E+02 0.  0.
         11    1    3    3    0    0 -0.10711231259E+02  0.30496027669E+02 -0.26175190066E+02  0.41591811140E+02  0.51100000000E-03 0.  1.
         22    1    1    0    0    0 -0.28425115142E+02  0.12574177407E+01  0.13207180357E+02  0.31368740543E+02  0.00000000000E+00 0. -1.
</event>
<event>
 5    1  0.8863861E-005  0.9118800E+02  0.7818608E-02  0.1130116E+00
         25   -1    0    0    0    0  0.00000000000E+00  0.00000000000E+00  0.99999998245E-14  0.12500000000E+03  0.12500000000E+03 0.  0.
        -11    1    3    3    0    0 -0.41191500669E+02  0.22417828239E+02  0.20933297225E+02  0.51356612849E+02  0.51100000000E-03 0.  1.
         23    2    1    0    0    0 -0.65454874268E+00  0.28996751482E+02  0.42379442037E+01  0.95687883024E+02  0.91087709138E+02 0.  0.
         11    1    3    3    0    0  0.40536951927E+02  0.65789232424E+01 -0.16695353021E+02  0.44331270175E+02  0.51100000000E-03 0. -1.
         22    1    1    0    0    0  0.65454874268E+00 -0.28996751482E+02 -0.42379442037E+01  0.29312116976E+02  0.00000000000E+00 0.  1.
</event>
<event>
 5    1  0.8863861E-005  0.9118800E+02  0.7818608E-02  0.1130116E+00
         25   -1    0    0    0    0  0.00000000000E+00  0.00000000000E+00  0.99999998245E-14  0.12500000000E+03  0.12500000000E+03 0.  0.
        -11    1    3    3    0    0 -0.26358212720E+02  0.19204274186E+02  0.11368323225E+02  0.34536912109E+02  0.51100000000E-03 0.  1.
         23    2    1    0    0    0  0.21989427074E+02  0.25171730998E+02  0.22756366397E+02  0.84564827735E+02  0.74271171620E+02 0.  0.
         11    1    3    3    0    0  0.48347639794E+02  0.59674568116E+01  0.11388043172E+02  0.50027915627E+02  0.51100000000E-03 0. -1.
         22    1    1    0    0    0 -0.21989427074E+02 -0.25171730998E+02 -0.22756366397E+02  0.40435172265E+02  0.00000000000E+00 0. -1.
</event>
<event>
 5    1  0.8863861E-005  0.9118800E+02  0.7818608E-02  0.1130116E+00
         25   -1    0    0    0    0  0.00000000000E+00  0.00000000000E+00  0.99999998245E-14  0.12500000000E+03  0.12500000000E+03 0.  0.
        -11    1    3    3    0    0  0.27893340108E+02  0.54250712617E+01  0.48013887652E+02  0.55792501542E+02  0.51100000000E-03 0. -1.
         23    2    1    0    0    0  0.12206544448E+02  0.21953528337E+02  0.15543865512E+02  0.95460722946E+02  0.90775441263E+02 0.  0.
         11    1    3    3    0    0 -0.15686795660E+02  0.16528457075E+02 -0.32470022140E+02  0.39668221404E+02  0.51100000000E-03 0.  1.
         22    1    1    0    0    0 -0.12206544448E+02 -0.21953528337E+02 -0.15543865512E+02  0.29539277054E+02  0.00000000000E+00 0. -1.
</event>
<event>
 5    1  0.8863861E-005  0.9118800E+02  0.7818608E-02  0.1130116E+00
         25   -1    0    0    0    0  0.00000000000E+00  0.00000000000E+00  0.99999998245E-14  0.12500000000E+03  0.12500000000E+03 0.  0.
        -11    1    3    3    0    0  0.54942182416E+02 -0.38613291968E+01 -0.10619981374E+02  0.56092221176E+02  0.51100000000E-03 0.  1.
         23    2    1    0    0    0  0.25249469960E+02  0.17783166016E+02 -0.88571457065E+00  0.94104025875E+02  0.88887605822E+02 0.  0.
         11    1    3    3    0    0 -0.29692712456E+02  0.21644495213E+02  0.97342668034E+01  0.38011804699E+02  0.51100000000E-03 0. -1.
         22    1    1    0    0    0 -0.25249469960E+02 -0.17783166016E+02  0.88571457065E+00  0.30895974125E+02  0.00000000000E+00 0.  1.
</event>
<event>
 5    1  0.8863861E-005  0.9118800E+02  0.7818608E-02  0.1130116E+00
         25   -1    0    0    0    0  0.00000000000E+00  0.00000000000E+00  0.99999998245E-14  0.12500000000E+03  0.12500000000E+03 0.  0.
        -11    1    3    3    0    0  0.45448793892E+01 -0.29945201956E+02 -0.12196745139E+02  0.32651671336E+02  0.51100000000E-03 0. -1.
         23    2    1    0    0    0 -0.79704734367E+01  0.28721024442E+02  0.43486983787E+01  0.94877967044E+02  0.89969393468E+02 0.  0.
         11    1    3    3    0    0 -0.12515352826E+02  0.58666226397E+02  0.16545443517E+02  0.62226295708E+02  0.51100000000E-03 0.  1.
         22    1    1    0    0    0  0.79704734367E+01 -0.28721024442E+02 -0.43486983787E+01  0.30122032956E+02  0.00000000000E+00 0.  1.
</event>
<event>
 5    1  0.8863861E-005  0.9118800E+02  0.7818608E-02  0.1130116E+00
         25   -1    0    0    0    0  0.00000000000E+00  0.00000000000E+00  0.99999998245E-14  0.12500000000E+03  0.12500000000E+03 0.  0.
        -11    1    3    3    0    0  0.18217170306E+02 -0.39182193465E+02  0.13126089669E+02  0.45159758734E+02  0.51100000000E-03 0. -1.
         23    2    1    0    0    0  0.25871456469E+02  0.60591114154E+01 -0.10082848207E+02  0.96579779752E+02  0.92303547809E+02 0.  0.
         11    1    3    3    0    0  0.76542861628E+01  0.45241304880E+02 -0.23208937876E+02  0.51420021018E+02  0.51100000000E-03 0.  1.
         22    1    1    0    0    0 -0.25871456469E+02 -0.60591114154E+01  0.10082848207E+02  0.28420220248E+02  0.00000000000E+00 0. -1.
</event>
<event>
 5    1  0.8863861E-005  0.9118800E+02  0.7818608E-02  0.1130116E+00
         25   -1    0    0    0    0  0.00000000000E+00  0.00000000000E+00  0.99999998245E-14  0.12500000000E+03  0.12500000000E+03 0.  0.
        -11    1    3    3    0    0 -0.37576921201E+02 -0.26621106958E+02  0.38760729482E+02  0.60192212892E+02  0.51100000000E-03 0. -1.
         23    2    1    0    0    0 -0.11997679707E+02 -0.64153082334E+01  0.26854675123E+02  0.94895613708E+02  0.89993907721E+02 0.  0.
         11    1    3    3    0    0  0.25579241494E+02  0.20205798725E+02 -0.11906054359E+02  0.34703400816E+02  0.51100000000E-03 0.  1.
         22    1    1    0    0    0  0.11997679707E+02  0.64153082334E+01 -0.26854675123E+02  0.30104386292E+02  0.00000000000E+00 0. -1.
</event>
<event>
 5    1  0.8863861E-005  0.9118800E+02  0.7818608E-02  0.1130116E+00
         25   -1    0    0    0    0  0.00000000000E+00  0.00000000000E+00  0.99999998245E-14  0.12500000000E+03  0.12500000000E+03 0.  0.
        -11    1    3    3    0    0 -0.39766326811E+02 -0.64888316051E+01 -0.47203323928E+02  0.62061416949E+02  0.51100000000E-03 0.  1.
         23    2    1    0    0    0 -0.13887695757E+02 -0.36276165126E+01 -0.24494794857E+02  0.96609461610E+02  0.92343735047E+02 0.  0.
         11    1    3    3    0    0  0.25878631054E+02  0.28612150925E+01  0.22708529071E+02  0.34548044661E+02  0.51100000000E-03 0. -1.
         22    1    1    0    0    0  0.13887695757E+02  0.36276165126E+01  0.24494794857E+02  0.28390538390E+02  0.00000000000E+00 0.  1.
</event>
<event>
 5    1  0.8863861E-005  0.9118800E+02  0.7818608E-02  0.1130116E+00
         25   -1    0    0    0    0  0.00000000000E+00  0.00000000000E+00  0.99999998245E-14  0.12500000000E+03  0.12500000000E+03 0.  0.
        -11    1    3    3    0    0  0.23144344127E+02 -0.25274236635E+01  0.99133227934E+01  0.25304594533E+02  0.51100000000E-03 0. -1.
         23    2    1    0    0    0 -0.23323758362E+02  0.23834826703E+01 -0.30116596342E+02  0.86833416854E+02  0.77995860233E+02 0.  0.
         11    1    3    3    0    0 -0.46468102489E+02  0.49109063337E+01 -0.40029919136E+02  0.61528822321E+02  0.51100000000E-03 0.  1.
         22    1    1    0    0    0  0.23323758362E+02 -0.23834826703E+01  0.30116596342E+02  0.38166583146E+02  0.00000000000E+00 0.  1.
</event>
<event>
 5    1  0.8863861E-005  0.9118800E+02  0.7818608E-02  0.1130116E+00
         25   -1    0    0    0    0  0.00000000000E+00  0.00000000000E+00  0.99999998245E-14  0.12500000000E+03  0.12500000000E+03 0.  0.
        -11    1    3    3    0    0 -0.62815407684E+01  0.20366527904E+02 -0.31903796466E+02  0.38368026304E+02  0.51100000000E-03 0. -1.
         23    2    1    0    0    0  0.58562530698E+00 -0.25382999046E+02  0.68335295355E+01  0.98706717142E+02  0.95140313671E+02 0.  0.
         11    1    3    3    0    0  0.68671660754E+01 -0.45749526949E+02  0.38737326001E+02  0.60338690838E+02  0.51100000000E-03 0.  1.
         22    1    1    0    0    0 -0.58562530698E+00  0.25382999046E+02 -0.68335295355E+01  0.26293282858E+02  0.00000000000E+00 0.  1.
</event>
<event>
 5    1  0.8863861E-005  0.9118800E+02  0.7818608E-02  0.1130116E+00
         25   -1    0    0    0    0  0.00000000000E+00  0.00000000000E+00  0.99999998245E-14  0.12500000000E+03  0.12500000000E+03 0.  0.
        -11    1    3    3    0    0 -0.26660541841E+02 -0.99601389165E+01  0.24381885776E+02  0.37476195281E+02  0.51100000000E-03 0.  1.
         23    2    1    0    0    0  0.48660810470E+01  0.28984286213E+02 -0.44345011184E+01  0.95277409396E+02  0.90522662075E+02 0.  0.
         11    1    3    3    0    0  0.31526622888E+02  0.38944425129E+02 -0.28816386894E+02  0.57801214116E+02  0.51100000000E-03 0. -1.
         22    1    1    0    0    0 -0.48660810470E+01 -0.28984286213E+02  0.44345011184E+01  0.29722590604E+02  0.00000000000E+00 0. -1.
</event>
<event>
 5    1  0.8863861E-005  0.9118800E+02  0.7818608E-02  0.1130116E+00
         25   -1    0    0    0    0  0.00000000000E+00  0.00000000000E+00  0.99999998245E-14  0.12500000000E+03  0.12500000000E+03 0.  0.
        -11    1    3    3    0    0  0.16838077122E+02 -0.20073136427E+02  0.44791809082E+02  0.51891789412E+02  0.51100000000E-03 0.  1.
         23    2    1    0    0    0 -0.70459250371E+01 -0.30135913349E+02  0.17864206794E+02  0.89265587771E+02  0.81800959302E+02 0.  0.
         11    1    3    3    0    0 -0.23884002159E+02 -0.10062776922E+02 -0.26927602289E+02  0.37373798359E+02  0.51100000000E-03 0. -1.
         22    1    1    0    0    0  0.70459250371E+01  0.30135913349E+02 -0.17864206794E+02  0.35734412229E+02  0.00000000000E+00 0.  1.
</event>
<event>
 5    1  0.8863861E-005  0.9118800E+02  0.7818608E-02  0.1130116E+00
         25   -1    0    0    0    0  0.00000000000E+00  0.00000000000E+00  0.99999998245E-14  0.12500000000E+03  0.12500000000E+03 0.  0.
        -11    1    3    3    0    0  0.82124781083E+01 -0.12439130338E+02  0.49982439428E+02  0.52157655351E+02  0.51100000000E-03 0. -1.
         23    2    1    0    0    0  0.18712680873E+02  0.14478211466E+02  0.17905018501E+02  0.95328924519E+02  0.90593769817E+02 0.  0.
         11    1    3    3    0    0  0.10500202765E+02  0.26917341805E+02 -0.32077420927E+02  0.43171269168E+02  0.51100000000E-03 0.  1.
         22    1    1    0    0    0 -0.18712680873E+02 -0.14478211466E+02 -0.17905018501E+02  0.29671075481E+02  0.00000000000E+00 0.  1.
</event>
<event>
 5    1  0.8863861E-005  0.9118800E+02  0.7818608E-02  0.1130116E+00
         25   -1    0    0    0    0  0.00000000000E+00  0.00000000000E+00  0.99999998245E-14  0.12500000000E+03  0.12500000000E+03 0.  0.
        -11    1    3    3    0    0 -0.23160074986E+02  0.28054769009E+02  0.22566298167E+02  0.42810009936E+02  0.51100000000E-03 0. -1.
         23    2    1    0    0    0 -0.10636853403E+02  0.11005307564E+02 -0.25462608389E+02  0.95291350235E+02  0.90541910510E+02 0.  0.
         11    1    3    3    0    0  0.12523221582E+02 -0.17049461445E+02 -0.48028906556E+02  0.52481340299E+02  0.51100000000E-03 0.  1.
         22    1    1    0    0    0  0.10636853403E+02 -0.11005307564E+02  0.25462608389E+02  0.29708649765E+02  0.00000000000E+00 0.  1.
</event>
<event>
 5    1  0.8863861E-005  0.9118800E+02  0.7818608E-02  0.1130116E+00
         25   -1    0    0    0    0  0.00000000000E+00  0.00000000000E+00  0.99999998245E-14  0.12500000000E+03  0.12500000000E+03 0.  0.
        -11    1    3    3    0    0 -0.22783300015E+02  0.15972384257E+02  0.55010267066E+02  0.61646778516E+02  0.51100000000E-03 0.  1.
         23    2    1    0    0    0 -0.45246173233E+01  0.11202346023E+02  0.26988635946E+02  0.95430570034E+02  0.90733910466E+02 0.  0.
         11    1    3    3    0    0  0.18258682692E+02 -0.47700382348E+01 -0.28021631120E+02  0.33783791518E+02  0.51100000000E-03 0. -1.
         22    1    1    0    0    0  0.45246173233E+01 -0.11202346023E+02 -0.26988635946E+02  0.29569429966E+02  0.00000000000E+00 0.  1.
</event>
<event>
 5    1  0.8863861E-005  0.9118800E+02  0.7818608E-02  0.1130116E+00
         25   -1    0    0    0    0  0.00000000000E+00  0.00000000000E+00  0.99999998245E-14  0.12500000000E+03  0.12500000000E+03 0.  0.
        -11    1    3    3    0    0  0.34685977895E+02  0.21342410702E+02 -0.17915684087E+02  0.44492553238E+02  0.51100000000E-03 0.  1.
         23    2    1    0    0    0  0.14935425687E+02 -0.21292107359E+02  0.75253688111E+01  0.97925067830E+02  0.94107741220E+02 0.  0.
         11    1    3    3    0    0 -0.19750552208E+02 -0.42634518061E+02  0.25441052898E+02  0.53432514592E+02  0.51100000000E-03 0. -1.
         22    1    1    0    0    0 -0.14935425687E+02  0.21292107359E+02 -0.75253688111E+01  0.27074932170E+02  0.00000000000E+00 0. -1.
</event>
<event>
 5    1  0.8863861E-005  0.9118800E+02  0.7818608E-02  0.1130116E+00
         25   -1    0    0    0    0  0.00000000000E+00  0.00000000000E+00  0.99999998245E-14  0.12500000000E+03  0.12500000000E+03 0.  0.
        -11    1    3    3    0    0 -0.26368783293E+00 -0.29533868159E+02  0.41551482283E+02  0.50978864050E+02  0.51100000000E-03 0. -1.
         23    2    1    0    0    0  0.14819864244E+02 -0.18222369300E+02 -0.48075736861E+01  0.10102509888E+03  0.98139058071E+02 0.  0.
         11    1    3    3    0    0  0.15083552077E+02  0.11311498859E+02 -0.46359055969E+02  0.50046234826E+02  0.51100000000E-03 0.  1.
         22    1    1    0    0    0 -0.14819864244E+02  0.18222369300E+02  0.48075736861E+01  0.23974901123E+02  0.00000000000E+00 0. -1.
</event>
<event>
 5    1  0.8863861E-005  0.9118800E+02  0.7818608E-02  0.1130116E+00
         25   -1    0    0    0    0  0.00000000000E+00  0.00000000000E+00  0.99999998245E-14  0.12500000000E+03  0.12500000000E+03 0.  0.
        -11    1    3    3    0    0 -0.24613407984E+02  0.36389656179E+01 -0.27249134533E+02  0.36899556317E+02  0.51100000000E-03 0. -1.
         23    2    1    0    0    0 -0.40246433606E+01 -0.14270717825E+02  0.25050470190E+02  0.95890255959E+02  0.91365004185E+02 0.  0.
         11    1    3    3    0    0  0.20588764623E+02 -0.17909683443E+02  0.52299604723E+02  0.58990699641E+02  0.51100000000E-03 0.  1.
         22    1    1    0    0    0  0.40246433606E+01  0.14270717825E+02 -0.25050470190E+02  0.29109744041E+02  0.00000000000E+00 0.  1.
</event>
<event>
 5    1  0.8863861E-005  0.9118800E+02  0.7818608E-02  0.1130116E+00
         25   -1    0    0    0    0  0.00000000000E+00  0.00000000000E+00  0.99999998245E-14  0.12500000000E+03  0.12500000000E+03 0.  0.
        -11    1    3    3    0    0 -0.15228582466E+02  0.21183920775E+02  0.48181227825E+01  0.26530784586E+02  0.51100000000E-03 0.  1.
         23    2    1    0    0    0 -0.17812299851E+02 -0.36038516990E+02  0.84306631152E+01  0.83925326375E+02  0.73186963278E+02 0.  0.
         11    1    3    3    0    0 -0.25837173853E+01 -0.57222437765E+02  0.36125403326E+01  0.57394541790E+02  0.51100000000E-03 0. -1.
         22    1    1    0    0    0  0.17812299851E+02  0.36038516990E+02 -0.84306631152E+01  0.41074673625E+02  0.00000000000E+00 0. -1.
</event>
<event>
 5    1  0.8863861E-005  0.9118800E+02  0.7818608E-02  0.1130116E+00
         25   -1    0    0    0    0  0.00000000000E+00  0.00000000000E+00  0.99999998245E-14  0.12500000000E+03  0.12500000000E+03 0.  0.
        -11    1    3    3    0    0  0.32208230224E+02  0.10252272743E+02 -0.14316519072E+01  0.33830885563E+02  0.51100000000E-03 0. -1.
         23    2    1    0    0    0 -0.19467502740E+02 -0.64317443913E+01 -0.24692355431E+02  0.92905398966E+02  0.87185719825E+02 0.  0.
         11    1    3    3    0    0 -0.51675732964E+02 -0.16684017134E+02 -0.23260703523E+02  0.59074513402E+02  0.51100000000E-03 0.  1.
         22    1    1    0    0    0  0.19467502740E+02  0.64317443913E+01  0.24692355431E+02  0.32094601034E+02  0.00000000000E+00 0.  1.
</event>
<event>
 5    1  0.8863861E-005  0.9118800E+02  0.7818608E-02  0.1130116E+00
         25   -1    0    0    0    0  0.00000000000E+00  0.00000000000E+00  0.99999998245E-14  0.12500000000E+03  0.12500000000E+03 0.  0.
        -11    1    3    3    0    0  0.51090322466E+02 -0.51198260374E+01 -0.28221640261E+02  0.58590909257E+02  0.51100000000E-03 0. -1.
         23    2    1    0    0    0  0.15288369929E+02 -0.16489176467E+02 -0.12059533147E+02  0.99484131695E+02  0.96156294249E+02 0.  0.
         11    1    3    3    0    0 -0.35801952537E+02 -0.11369350430E+02  0.16162107114E+02  0.40893222437E+02  0.51100000000E-03 0.  1.
         22    1    1    0    0    0 -0.15288369929E+02  0.16489176467E+02  0.12059533147E+02  0.25515868305E+02  0.00000000000E+00 0. -1.
</event>
<event>
 5    1  0.8863861E-005  0.9118800E+02  0.7818608E-02  0.1130116E+00
         25   -1    0    0    0    0  0.00000000000E+00  0.00000000000E+00  0.99999998245E-14  0.12500000000E+03  0.12500000000E+03 0.  0.
        -11    1    3    3    0    0 -0.22656453186E+01  0.23453446453E+02 -0.56423344352E+02  0.61145654689E+02  0.51100000000E-03 0.  1.
         23    2    1    0    0    0  0.75635082113E+01  0.88915287329E+01 -0.29281935152E+02  0.93477029551E+02  0.88001462419E+02 0.  0.
         11    1    3    3    0    0  0.98291535299E+01 -0.14561917721E+02  0.27141409200E+02  0.32331374862E+02  0.51100000000E-03 0. -1.
         22    1    1    0    0    0 -0.75635082113E+01 -0.88915287329E+01  0.29281935152E+02  0.31522970449E+02  0.00000000000E+00 0.  1.
</event>
<event>
 5    1  0.8863861E-005  0.9118800E+02  0.7818608E-02  0.1130116E+00
         25   -1    0    0    0    0  0.00000000000E+00  0.00000000000E+00  0.99999998245E-14  0.12500000000E+03  0.12500000000E+03 0.  0.
        -11    1    3    3    0    0  0.20234734986E+02  0.38954879873E+02 -0.40702863878E+02  0.59863597402E+02  0.51100000000E-03 0.  1.
         23    2    1    0    0    0  0.14405323764E+02  0.81839785068E+01 -0.25283243528E+02  0.94771978889E+02  0.89822016913E+02 0.  0.
         11    1    3    3    0    0 -0.58294112222E+01 -0.30770901366E+02  0.15419620349E+02  0.34908381487E+02  0.51100000000E-03 0. -1.
         22    1    1    0    0    0 -0.14405323764E+02 -0.81839785068E+01  0.25283243528E+02  0.30228021111E+02  0.00000000000E+00 0.  1.
</event>
<event>
 5    1  0.8863861E-005  0.9118800E+02  0.7818608E-02  0.1130116E+00
         25   -1    0    0    0    0  0.00000000000E+00  0.00000000000E+00  0.99999998245E-14  0.12500000000E+03  0.12500000000E+03 0.  0.
        -11    1    3    3    0    0  0.87281246454E+01 -0.27201029576E+02  0.25279273747E+02  0.38146007016E+02  0.51100000000E-03 0. -1.
         23    2    1    0    0    0 -0.53948567638E+01  0.20588835896E+02 -0.12170334991E+02  0.10048221672E+03  0.97445134207E+02 0.  0.
         11    1    3    3    0    0 -0.14122981409E+02  0.47789865472E+02 -0.37449608738E+02  0.62336209707E+02  0.51100000000E-03 0.  1.
         22    1    1    0    0    0  0.53948567638E+01 -0.20588835896E+02  0.12170334991E+02  0.24517783277E+02  0.00000000000E+00 0.  1.
</event>
<event>
 5    1  0.8863861E-005  0.9118800E+02  0.7818608E-02  0.1130116E+00
         25   -1    0    0    0    0  0.00000000000E+00  0.00000000000E+00  0.99999998245E-14  0.12500000000E+03  0.12500000000E+03 0.  0.
        -11    1    3    3    0    0 -0.35105863919E+02 -0.96960964136E+01 -0.38064071594E+01  0.36618638736E+02  0.51100000000E-03 0. -1.
         23    2    1    0    0    0  0.24428117581E+02 -0.14668887618E+02 -0.28039068871E+01  0.96368355158E+02  0.92016785369E+02 0.  0.
         11    1    3    3    0    0  0.59533981499E+02 -0.49727912049E+01  0.10025002723E+01  0.59749716423E+02  0.51100000000E-03 0.  1.
         22    1    1    0    0    0 -0.24428117581E+02  0.14668887618E+02  0.28039068871E+01  0.28631644842E+02  0.00000000000E+00 0.  1.
</event>
<event>
 5    1  0.8863861E-005  0.9118800E+02  0.7818608E-02  0.1130116E+00
         25   -1    0    0    0    0  0.00000000000E+00  0.00000000000E+00  0.99999998245E-14  0.12500000000E+03  0.12500000000E+03 0.  0.
        -11    1    3    3    0    0  0.41743347627E+02  0.19010338442E+02 -0.28232902826E+02  0.53860902713E+02  0.51100000000E-03 0.  1.
         23    2    1    0    0    0  0.28096676178E+02 -0.10241299207E+02 -0.27823997282E+01  0.94965866585E+02  0.90091434922E+02 0.  0.
         11    1    3    3    0    0 -0.13646671449E+02 -0.29251637649E+02  0.25450503098E+02  0.41104963873E+02  0.51100000000E-03 0. -1.
         22    1    1    0    0    0 -0.28096676178E+02  0.10241299207E+02  0.27823997282E+01  0.30034133415E+02  0.00000000000E+00 0.  1.
</event>
<event>
 5    1  0.8863861E-005  0.9118800E+02  0.7818608E-02  0.1130116E+00
         25   -1    0    0    0    0  0.00000000000E+00  0.00000000000E+00  0.99999998245E-14  0.12500000000E+03  0.12500000000E+03 0.  0.
        -11    1    3    3    0    0 -0.88083704002E+01  0.54800764248E+00  0.16856744959E+02  0.19027284419E+02  0.51100000000E-03 0. -1.
         23    2    1    0    0    0  0.40338241859E+02 -0.17175211921E+02 -0.13088698793E+02  0.79245484409E+02  0.64702172315E+02 0.  0.
         11    1    3    3    0    0  0.49146612260E+02 -0.17723219564E+02 -0.29945443752E+02  0.60218199990E+02  0.51100000000E-03 0.  1.
         22    1    1    0    0    0 -0.40338241859E+02  0.17175211921E+02  0.13088698793E+02  0.45754515591E+02  0.00000000000E+00 0.  1.
</event>
<event>
 5    1  0.8863861E-005  0.9118800E+02  0.7818608E-02  0.1130116E+00
         25   -1    0    0    0    0  0.00000000000E+00  0.00000000000E+00  0.99999998245E-14  0.12500000000E+03  0.12500000000E+03 0.  0.
        -11    1    3    3    0    0  0.35851583929E+02 -0.67724211818E+01 -0.27656930350E+02  0.45783267200E+02  0.51100000000E-03 0.  1.
         23    2    1    0    0    0 -0.61140030198E+01 -0.26972585372E+02 -0.10493628687E+02  0.95419302956E+02  0.90718386995E+02 0.  0.
         11    1    3    3    0    0 -0.41965586949E+02 -0.20200164190E+02  0.17163301662E+02  0.49636035755E+02  0.51100000000E-03 0. -1.
         22    1    1    0    0    0  0.61140030198E+01  0.26972585372E+02  0.10493628687E+02  0.29580697044E+02  0.00000000000E+00 0. -1.
</event>
<event>
 5    1  0.8863861E-005  0.9118800E+02  0.7818608E-02  0.1130116E+00
         25   -1    0    0    0    0  0.00000000000E+00  0.00000000000E+00  0.99999998245E-14  0.12500000000E+03  0.12500000000E+03 0.  0.
        -11    1    3    3    0    0 -0.19298318852E+02 -0.51204918481E+01 -0.33739451376E+02  0.39204529416E+02  0.51100000000E-03 0.  1.
         23    2    1    0    0    0  0.19506930290E+02 -0.12343851266E+02  0.11472101740E+02  0.99222100324E+02  0.95815056650E+02 0.  0.
         11    1    3    3    0    0  0.38805249142E+02 -0.72233594181E+01  0.45211553116E+02  0.60017570908E+02  0.51100000000E-03 0. -1.
         22    1    1    0    0    0 -0.19506930290E+02  0.12343851266E+02 -0.11472101740E+02  0.25777899676E+02  0.00000000000E+00 0. -1.
</event>
<event>
 5    1  0.8863861E-005  0.9118800E+02  0.7818608E-02  0.1130116E+00
         25   -1    0    0    0    0  0.00000000000E+00  0.00000000000E+00  0.99999998245E-14  0.12500000000E+03  0.12500000000E+03 0.  0.
        -11    1    3    3    0    0  0.71079003998E+01 -0.37260301945E+02 -0.29927294242E+02  0.48316615051E+02  0.51100000000E-03 0.  1.
         23    2    1    0    0    0  0.12177288585E+02  0.90885364418E+01 -0.25714201599E+02  0.95131822690E+02  0.90321402073E+02 0.  0.
         11    1    3    3    0    0  0.50693881852E+01  0.46348838387E+02  0.42130926426E+01  0.46815207639E+02  0.51100000000E-03 0. -1.
         22    1    1    0    0    0 -0.12177288585E+02 -0.90885364418E+01  0.25714201599E+02  0.29868177310E+02  0.00000000000E+00 0.  1.
</event>
<event>
 5    1  0.8863861E-005  0.9118800E+02  0.7818608E-02  0.1130116E+00
         25   -1    0    0    0    0  0.00000000000E+00  0.00000000000E+00  0.99999998245E-14  0.12500000000E+03  0.12500000000E+03 0.  0.
        -11    1    3    3    0    0 -0.80341477508E+01 -0.26626745935E+02  0.17666812844E+02  0.32949163958E+02  0.51100000000E-03 0.  1.
         23    2    1    0    0    0  0.80709324452E+00  0.29745655747E+02 -0.58623576572E+01  0.94671421520E+02  0.89681967975E+02 0.  0.
         11    1    3    3    0    0  0.88412409953E+01  0.56372401683E+02 -0.23529170501E+02  0.61722257562E+02  0.51100000000E-03 0. -1.
         22    1    1    0    0    0 -0.80709324452E+00 -0.29745655747E+02  0.58623576572E+01  0.30328578480E+02  0.00000000000E+00 0. -1.
</event>
<event>
 5    1  0.8863861E-005  0.9118800E+02  0.7818608E-02  0.1130116E+00
         25   -1    0    0    0    0  0.00000000000E+00  0.00000000000E+00  0.99999998245E-14  0.12500000000E+03  0.12500000000E+03 0.  0.
        -11    1    3    3    0    0  0.41609697080E+02  0.12604735602E+02 -0.56854888533E+01  0.43847132568E+02  0.51100000000E-03 0.  1.
         23    2    1    0    0    0  0.73942839423E+01 -0.59452769518E+01  0.28072170512E+02  0.95367779187E+02  0.90647365084E+02 0.  0.
         11    1    3    3    0    0 -0.34215413137E+02 -0.18550012554E+02  0.33757659365E+02  0.51520646619E+02  0.51100000000E-03 0. -1.
         22    1    1    0    0    0 -0.73942839423E+01  0.59452769518E+01 -0.28072170512E+02  0.29632220813E+02  0.00000000000E+00 0. -1.
</event>
<event>
 5    1  0.8863861E-005  0.9118800E+02  0.7818608E-02  0.1130116E+00
         25   -1    0    0    0    0  0.00000000000E+00  0.00000000000E+00  0.99999998245E-14  0.12500000000E+03  0.12500000000E+03 0.  0.
        -11    1    3    3    0    0  0.24294024104E+02 -0.12366161669E+02 -0.24803402335E+02  0.36855533224E+02  0.51100000000E-03 0.  1.
         23    2    1    0    0    0 -0.12867980341E+02 -0.10690721693E+02  0.22454771525E+02  0.96998335539E+02  0.92868637789E+02 0.  0.
         11    1    3    3    0    0 -0.37162004445E+02  0.16754399760E+01  0.47258173860E+02  0.60142802315E+02  0.51100000000E-03 0. -1.
         22    1    1    0    0    0  0.12867980341E+02  0.10690721693E+02 -0.22454771525E+02  0.28001664461E+02  0.00000000000E+00 0. -1.
</event>
<event>
 5    1  0.8863861E-005  0.9118800E+02  0.7818608E-02  0.1130116E+00
         25   -1    0    0    0    0  0.00000000000E+00  0.00000000000E+00  0.99999998245E-14  0.12500000000E+03  0.12500000000E+03 0.  0.
        -11    1    3    3    0    0 -0.16508263161E+02 -0.25774405957E+02  0.13362720853E+02  0.33397680517E+02  0.51100000000E-03 0. -1.
         23    2    1    0    0    0  0.18461952072E+02  0.23490973264E+02  0.76322115058E+00  0.95112678177E+02  0.90294903202E+02 0.  0.
         11    1    3    3    0    0  0.34970215233E+02  0.49265379221E+02 -0.12599499702E+02  0.61714997661E+02  0.51100000000E-03 0.  1.
         22    1    1    0    0    0 -0.18461952072E+02 -0.23490973264E+02 -0.76322115058E+00  0.29887321823E+02  0.00000000000E+00 0.  1.
</event>
<event>
 5    1  0.8863861E-005  0.9118800E+02  0.7818608E-02  0.1130116E+00
         25   -1    0    0    0    0  0.00000000000E+00  0.00000000000E+00  0.99999998245E-14  0.12500000000E+03  0.12500000000E+03 0.  0.
        -11    1    3    3    0    0 -0.12900675437E+02  0.45628260432E+02  0.11693392253E+02  0.48837495835E+02  0.51100000000E-03 0. -1.
         23    2    1    0    0    0  0.21117932224E+02  0.19689976346E+02 -0.66294103280E+01  0.95375494751E+02  0.90658003992E+02 0.  0.
         11    1    3    3    0    0  0.34018607661E+02 -0.25938284085E+02 -0.18322802581E+02  0.46537998917E+02  0.51100000000E-03 0.  1.
         22    1    1    0    0    0 -0.21117932224E+02 -0.19689976346E+02  0.66294103280E+01  0.29624505249E+02  0.00000000000E+00 0. -1.
</event>
<event>
 5    1  0.8863861E-005  0.9118800E+02  0.7818608E-02  0.1130116E+00
         25   -1    0    0    0    0  0.00000000000E+00  0.00000000000E+00  0.99999998245E-14  0.12500000000E+03  0.12500000000E+03 0.  0.
        -11    1    3    3    0    0 -0.30569882068E+02  0.38753769962E+02  0.11857319512E+02  0.50763849363E+02  0.51100000000E-03 0.  1.
         23    2    1    0    0    0 -0.27959528128E+02  0.52358974521E+00 -0.10501078886E+02  0.95128910011E+02  0.90317370991E+02 0.  0.
         11    1    3    3    0    0  0.26103539403E+01 -0.38230180216E+02 -0.22358398398E+02  0.44365060648E+02  0.51100000000E-03 0. -1.
         22    1    1    0    0    0  0.27959528128E+02 -0.52358974521E+00  0.10501078886E+02  0.29871089989E+02  0.00000000000E+00 0.  1.
</event>
<event>
 5    1  0.8863861E-005  0.9118800E+02  0.7818608E-02  0.1130116E+00
         25   -1    0    0    0    0  0.00000000000E+00  0.00000000000E+00  0.99999998245E-14  0.12500000000E+03  0.12500000000E+03 0.  0.
        -11    1    3    3    0    0 -0.12808416065E+02  0.36623990377E+02 -0.18053099218E+02  0.42793534381E+02  0.51100000000E-03 0.  1.
         23    2    1    0    0    0 -0.11598970897E+01 -0.14557799609E+02 -0.25305539070E+02  0.95782792770E+02  0.91217861148E+02 0.  0.
         11    1    3    3    0    0  0.11648518975E+02 -0.51181789986E+02 -0.72524398527E+01  0.52989258388E+02  0.51100000000E-03 0. -1.
         22    1    1    0    0    0  0.11598970897E+01  0.14557799609E+02  0.25305539070E+02  0.29217207230E+02  0.00000000000E+00 0. -1.
</event>
<event>
 5    1  0.8863861E-005  0.9118800E+02  0.7818608E-02  0.1130116E+00
         25   -1    0    0    0    0  0.00000000000E+00  0.00000000000E+00  0.99999998245E-14  0.12500000000E+03  0.12500000000E+03 0.  0.
        -11    1    3    3    0    0 -0.38096774369E+02 -0.16745127933E+02 -0.39961022123E+02  0.57694426215E+02  0.51100000000E-03 0. -1.
         23    2    1    0    0    0 -0.26236291096E+02 -0.93358722652E+01 -0.32691876906E+01  0.96960936721E+02  0.92818285807E+02 0.  0.
         11    1    3    3    0    0  0.11860483274E+02  0.74092556680E+01  0.36691834433E+02  0.39266510506E+02  0.51100000000E-03 0.  1.
         22    1    1    0    0    0  0.26236291096E+02  0.93358722652E+01  0.32691876906E+01  0.28039063279E+02  0.00000000000E+00 0. -1.
</event>
<event>
 5    1  0.8863861E-005  0.9118800E+02  0.7818608E-02  0.1130116E+00
         25   -1    0    0    0    0  0.00000000000E+00  0.00000000000E+00  0.99999998245E-14  0.12500000000E+03  0.12500000000E+03 0.  0.
        -11    1    3    3    0    0  0.23138112979E+02 -0.39230996780E+02 -0.23932418670E+02  0.51450986815E+02  0.51100000000E-03 0.  1.
         23    2    1    0    0    0  0.18932225722E+02 -0.17698886079E+02  0.14202833964E+02  0.95446654473E+02  0.90756066564E+02 0.  0.
         11    1    3    3    0    0 -0.42058872567E+01  0.21532110701E+02  0.38135252635E+02  0.43995667657E+02  0.51100000000E-03 0. -1.
         22    1    1    0    0    0 -0.18932225722E+02  0.17698886079E+02 -0.14202833964E+02  0.29553345527E+02  0.00000000000E+00 0. -1.
</event>
<event>
 5    1  0.8863861E-005  0.9118800E+02  0.7818608E-02  0.1130116E+00
         25   -1    0    0    0    0  0.00000000000E+00  0.00000000000E+00  0.99999998245E-14  0.12500000000E+03  0.12500000000E+03 0.  0.
        -11    1    3    3    0    0 -0.44377087891E+01  0.16865462987E+02  0.52603757000E+02  0.55419241711E+02  0.51100000000E-03 0.  1.
         23    2    1    0    0    0 -0.22316327968E+02  0.74165615422E+01  0.18453550973E+02  0.95107569142E+02  0.90287830218E+02 0.  0.
         11    1    3    3    0    0 -0.17878619179E+02 -0.94489014452E+01 -0.34150206027E+02  0.39688327430E+02  0.51100000000E-03 0. -1.
         22    1    1    0    0    0  0.22316327968E+02 -0.74165615422E+01 -0.18453550973E+02  0.29892430858E+02  0.00000000000E+00 0.  1.
</event>
<event>
 5    1  0.8863861E-005  0.9118800E+02  0.7818608E-02  0.1130116E+00
         25   -1    0    0    0    0  0.00000000000E+00  0.00000000000E+00  0.99999998245E-14  0.12500000000E+03  0.12500000000E+03 0.  0.
        -11    1    3    3    0    0 -0.94849520392E+01  0.12009275961E+02  0.38019003733E+02  0.40983309645E+02  0.51100000000E-03 0. -1.
         23    2    1    0    0    0  0.29703996217E+02  0.12561642665E+02  0.47327638333E+01  0.92403661076E+02  0.86463375305E+02 0.  0.
         11    1    3    3    0    0  0.39188948257E+02  0.55236670329E+00 -0.33286239900E+02  0.51420351432E+02  0.51100000000E-03 0.  1.
         22    1    1    0    0    0 -0.29703996217E+02 -0.12561642665E+02 -0.47327638333E+01  0.32596338924E+02  0.00000000000E+00 0.  1.
</event>
<event>
 5    1  0.8863861E-005  0.9118800E+02  0.7818608E-02  0.1130116E+00
         25   -1    0    0    0    0  0.00000000000E+00  0.00000000000E+00  0.99999998245E-14  0.12500000000E+03  0.12500000000E+03 0.  0.
        -11    1    3    3    0    0 -0.49912337836E+02  0.28264471711E+02 -0.24084271347E+02  0.62210722194E+02  0.51100000000E-03 0. -1.
         23    2    1    0    0    0 -0.23297883753E+02  0.15763839801E+02 -0.78653231982E+01  0.95791211226E+02  0.91229396614E+02 0.  0.
         11    1    3    3    0    0  0.26614454083E+02 -0.12500631910E+02  0.16218948148E+02  0.33580489032E+02  0.51100000000E-03 0.  1.
         22    1    1    0    0    0  0.23297883753E+02 -0.15763839801E+02  0.78653231982E+01  0.29208788774E+02  0.00000000000E+00 0. -1.
</event>
<event>
 5    1  0.8863861E-005  0.9118800E+02  0.7818608E-02  0.1130116E+00
         25   -1    0    0    0    0  0.00000000000E+00  0.00000000000E+00  0.99999998245E-14  0.12500000000E+03  0.12500000000E+03 0.  0.
        -11    1    3    3    0    0 -0.35698522476E+02 -0.47279856929E+02 -0.10894229587E+02  0.60236646792E+02  0.51100000000E-03 0.  1.
         23    2    1    0    0    0 -0.24208896986E+02 -0.12568909941E+02 -0.45913968395E+01  0.97339032640E+02  0.93326085099E+02 0.  0.
         11    1    3    3    0    0  0.11489625491E+02  0.34710946988E+02  0.63028327478E+01  0.37102385848E+02  0.51100000000E-03 0. -1.
         22    1    1    0    0    0  0.24208896986E+02  0.12568909941E+02  0.45913968395E+01  0.27660967360E+02  0.00000000000E+00 0.  1.
</event>
<event>
 5    1  0.8863861E-005  0.9118800E+02  0.7818608E-02  0.1130116E+00
         25   -1    0    0    0    0  0.00000000000E+00  0.00000000000E+00  0.99999998245E-14  0.12500000000E+03  0.12500000000E+03 0.  0.
        -11    1    3    3    0    0 -0.62892691326E+01 -0.32693256677E+02 -0.14055981576E+02  0.36138269974E+02  0.51100000000E-03 0.  1.
         23    2    1    0    0    0 -0.53219234071E+01  0.25465560919E+02 -0.16214241478E+02  0.94345158810E+02  0.89226059548E+02 0.  0.
         11    1    3    3    0    0  0.96734572546E+00  0.58158817596E+02 -0.21582599021E+01  0.58206888836E+02  0.51100000000E-03 0. -1.
         22    1    1    0    0    0  0.53219234071E+01 -0.25465560919E+02  0.16214241478E+02  0.30654841190E+02  0.00000000000E+00 0. -1.
</event>
<event>
 5    1  0.8863861E-005  0.9118800E+02  0.7818608E-02  0.1130116E+00
         25   -1    0    0    0    0  0.00000000000E+00  0.00000000000E+00  0.99999998245E-14  0.12500000000E+03  0.12500000000E+03 0.  0.
        -11    1    3    3    0    0  0.37202738282E+01 -0.26390792609E+02  0.27279691558E+02  0.38137854471E+02  0.51100000000E-03 0.  1.
         23    2    1    0    0    0 -0.61869434870E+01  0.26944697941E+02  0.14110555888E+02  0.93961269286E+02  0.88686624254E+02 0.  0.
         11    1    3    3    0    0 -0.99072173153E+01  0.53335490550E+02 -0.13169135670E+02  0.55823414816E+02  0.51100000000E-03 0. -1.
         22    1    1    0    0    0  0.61869434870E+01 -0.26944697941E+02 -0.14110555888E+02  0.31038730714E+02  0.00000000000E+00 0. -1.
</event>
<event>
 5    1  0.8863861E-005  0.9118800E+02  0.7818608E-02  0.1130116E+00
         25   -1    0    0    0    0  0.00000000000E+00  0.00000000000E+00  0.99999998245E-14  0.12500000000E+03  0.12500000000E+03 0.  0.
        -11    1    3    3    0    0 -0.12122864147E+02  0.28655882906E+02 -0.17041861456E+02  0.35476027151E+02  0.51100000000E-03 0.  1.
         23    2    1    0    0    0  0.17094832201E+02 -0.15063654716E+02  0.15617299743E+02  0.97376694031E+02  0.93376514755E+02 0.  0.
         11    1    3    3    0    0  0.29217696349E+02 -0.43719537622E+02  0.32659161199E+02  0.61900666881E+02  0.51100000000E-03 0. -1.
         22    1    1    0    0    0 -0.17094832201E+02  0.15063654716E+02 -0.15617299743E+02  0.27623305969E+02  0.00000000000E+00 0. -1.
</event>
<event>
 5    1  0.8863861E-005  0.9118800E+02  0.7818608E-02  0.1130116E+00
         25   -1    0    0    0    0  0.00000000000E+00  0.00000000000E+00  0.99999998245E-14  0.12500000000E+03  0.12500000000E+03 0.  0.
        -11    1    3    3    0    0  0.18154221894E+02  0.20250995580E+02 -0.23364398262E+02  0.35854897866E+02  0.51100000000E-03 0.  1.
         23    2    1    0    0    0  0.58928205888E+01 -0.18871918222E+02  0.20927970681E+02  0.96210165185E+02  0.91801641032E+02 0.  0.
         11    1    3    3    0    0 -0.12261401305E+02 -0.39122913802E+02  0.44292368943E+02  0.60355267319E+02  0.51100000000E-03 0. -1.
         22    1    1    0    0    0 -0.58928205888E+01  0.18871918222E+02 -0.20927970681E+02  0.28789834815E+02  0.00000000000E+00 0. -1.
</event>
<event>
 5    1  0.8863861E-005  0.9118800E+02  0.7818608E-02  0.1130116E+00
         25   -1    0    0    0    0  0.00000000000E+00  0.00000000000E+00  0.99999998245E-14  0.12500000000E+03  0.12500000000E+03 0.  0.
        -11    1    3    3    0    0  0.16246447393E+01 -0.53862194270E+02 -0.29728435928E+01  0.53968632014E+02  0.51100000000E-03 0.  1.
         23    2    1    0    0    0  0.12471801645E+02 -0.16847029201E+02  0.17551367728E+02  0.97661039920E+02  0.93756386342E+02 0.  0.
         11    1    3    3    0    0  0.10847156905E+02  0.37015165069E+02  0.20524211321E+02  0.43692407906E+02  0.51100000000E-03 0. -1.
         22    1    1    0    0    0 -0.12471801645E+02  0.16847029201E+02 -0.17551367728E+02  0.27338960080E+02  0.00000000000E+00 0.  1.
</event>
<event>
 5    1  0.8863861E-005  0.9118800E+02  0.7818608E-02  0.1130116E+00
         25   -1    0    0    0    0  0.00000000000E+00  0.00000000000E+00  0.99999998245E-14  0.12500000000E+03  0.12500000000E+03 0.  0.
        -11    1    3    3    0    0  0.11325960459E+02 -0.45754310233E+02  0.72191038393E+01  0.47684900605E+02  0.51100000000E-03 0. -1.
         23    2    1    0    0    0 -0.16702856155E+02 -0.93761264185E+01  0.21906690126E+02  0.95900167996E+02  0.91378564221E+02 0.  0.
         11    1    3    3    0    0 -0.28028816614E+02  0.36378183814E+02  0.14687586287E+02  0.48215267391E+02  0.51100000000E-03 0.  1.
         22    1    1    0    0    0  0.16702856155E+02  0.93761264185E+01 -0.21906690126E+02  0.29099832004E+02  0.00000000000E+00 0. -1.
</event>
<event>
 5    1  0.8863861E-005  0.9118800E+02  0.7818608E-02  0.1130116E+00
         25   -1    0    0    0    0  0.00000000000E+00  0.00000000000E+00  0.99999998245E-14  0.12500000000E+03  0.12500000000E+03 0.  0.
        -11    1    3    3    0    0 -0.62680408413E+01 -0.35518634256E+02  0.36424420255E+02  0.51260121991E+02  0.51100000000E-03 0.  1.
         23    2    1    0    0    0 -0.52850147156E+01  0.84728495698E+01  0.26933982756E+02  0.96274401878E+02  0.91889066104E+02 0.  0.
         11    1    3    3    0    0  0.98302612576E+00  0.43991483825E+02 -0.94904374997E+01  0.45014279887E+02  0.51100000000E-03 0. -1.
         22    1    1    0    0    0  0.52850147156E+01 -0.84728495698E+01 -0.26933982756E+02  0.28725598122E+02  0.00000000000E+00 0.  1.
</event>
<event>
 5    1  0.8863861E-005  0.9118800E+02  0.7818608E-02  0.1130116E+00
         25   -1    0    0    0    0  0.00000000000E+00  0.00000000000E+00  0.99999998245E-14  0.12500000000E+03  0.12500000000E+03 0.  0.
        -11    1    3    3    0    0  0.12535137238E+02  0.30320264797E+02  0.91852090139E+01  0.34070752675E+02  0.51100000000E-03 0.  1.
         23    2    1    0    0    0 -0.21135764016E+02 -0.13042575147E+02  0.23501491640E+02  0.90807173321E+02  0.84123678772E+02 0.  0.
         11    1    3    3    0    0 -0.33670901255E+02 -0.43362839943E+02  0.14316282626E+02  0.56736420646E+02  0.51100000000E-03 0. -1.
         22    1    1    0    0    0  0.21135764016E+02  0.13042575147E+02 -0.23501491640E+02  0.34192826679E+02  0.00000000000E+00 0. -1.
</event>
<event>
 5    1  0.8863861E-005  0.9118800E+02  0.7818608E-02  0.1130116E+00
         25   -1    0    0    0    0  0.00000000000E+00  0.00000000000E+00  0.99999998245E-14  0.12500000000E+03  0.12500000000E+03 0.  0.
        -11    1    3    3    0    0 -0.40450522975E+02  0.44890137211E+02  0.15549908806E+02  0.62395263378E+02  0.51100000000E-03 0.  1.
         23    2    1    0    0    0 -0.22366643745E+02  0.26090700596E+02  0.11298332367E+02  0.88824818946E+02  0.81124624724E+02 0.  0.
         11    1    3    3    0    0  0.18083879231E+02 -0.18799436615E+02 -0.42515764391E+01  0.26429555569E+02  0.51100000000E-03 0. -1.
         22    1    1    0    0    0  0.22366643745E+02 -0.26090700596E+02 -0.11298332367E+02  0.36175181054E+02  0.00000000000E+00 0.  1.
</event>
<event>
 5    1  0.8863861E-005  0.9118800E+02  0.7818608E-02  0.1130116E+00
         25   -1    0    0    0    0  0.00000000000E+00  0.00000000000E+00  0.99999998245E-14  0.12500000000E+03  0.12500000000E+03 0.  0.
        -11    1    3    3    0    0 -0.37451583858E+02 -0.36597202530E+02 -0.97653311576E+01  0.53266669310E+02  0.51100000000E-03 0.  1.
         23    2    1    0    0    0 -0.13906243519E+02  0.36464568159E+01  0.13415279498E+02  0.10533658269E+03  0.10348500217E+03 0.  0.
         11    1    3    3    0    0  0.23545340340E+02  0.40243659346E+02  0.23180610656E+02  0.52069913385E+02  0.51100000000E-03 0. -1.
         22    1    1    0    0    0  0.13906243519E+02 -0.36464568159E+01 -0.13415279498E+02  0.19663417306E+02  0.00000000000E+00 0. -1.
</event>
<event>
 5    1  0.8863861E-005  0.9118800E+02  0.7818608E-02  0.1130116E+00
         25   -1    0    0    0    0  0.00000000000E+00  0.00000000000E+00  0.99999998245E-14  0.12500000000E+03  0.12500000000E+03 0.  0.
        -11    1    3    3    0    0  0.10589355330E+02 -0.18512044754E+02 -0.56410642268E+02  0.60307468929E+02  0.51100000000E-03 0.  1.
         23    2    1    0    0    0  0.15692787971E+02 -0.48212698389E+01 -0.23312195398E+02  0.96487429238E+02  0.92178399365E+02 0.  0.
         11    1    3    3    0    0  0.51034326411E+01  0.13690774915E+02  0.33098446870E+02  0.36179960309E+02  0.51100000000E-03 0. -1.
         22    1    1    0    0    0 -0.15692787971E+02  0.48212698389E+01  0.23312195398E+02  0.28512570762E+02  0.00000000000E+00 0.  1.
</event>
<event>
 5    1  0.8863861E-005  0.9118800E+02  0.7818608E-02  0.1130116E+00
         25   -1    0    0    0    0  0.00000000000E+00  0.00000000000E+00  0.99999998245E-14  0.12500000000E+03  0.12500000000E+03 0.  0.
        -11    1    3    3    0    0  0.24114495234E+02 -0.67877091281E+01  0.22538139009E+02  0.33697916639E+02  0.51100000000E-03 0.  1.
         23    2    1    0    0    0 -0.27669199177E+02 -0.50940995962E+01 -0.10300387061E+02  0.95039485862E+02  0.90193522304E+02 0.  0.
         11    1    3    3    0    0 -0.51783694410E+02  0.16936095319E+01 -0.32838526070E+02  0.61341569223E+02  0.51100000000E-03 0. -1.
         22    1    1    0    0    0  0.27669199177E+02  0.50940995962E+01  0.10300387061E+02  0.29960514138E+02  0.00000000000E+00 0. -1.
</event>
<event>
 5    1  0.8863861E-005  0.9118800E+02  0.7818608E-02  0.1130116E+00
         25   -1    0    0    0    0  0.00000000000E+00  0.00000000000E+00  0.99999998245E-14  0.12500000000E+03  0.12500000000E+03 0.  0.
        -11    1    3    3    0    0  0.72342285880E+01 -0.68733839011E+01  0.33931163687E+02  0.35368083619E+02  0.51100000000E-03 0.  1.
         23    2    1    0    0    0  0.13640288053E+02 -0.21674289375E+01 -0.25858695323E+02  0.95684008968E+02  0.91082392601E+02 0.  0.
         11    1    3    3    0    0  0.64060594654E+01  0.47059549636E+01 -0.59789859010E+02  0.60315925349E+02  0.51100000000E-03 0. -1.
         22    1    1    0    0    0 -0.13640288053E+02  0.21674289375E+01  0.25858695323E+02  0.29315991032E+02  0.00000000000E+00 0. -1.
</event>
<event>
 5    1  0.8863861E-005  0.9118800E+02  0.7818608E-02  0.1130116E+00
         25   -1    0    0    0    0  0.00000000000E+00  0.00000000000E+00  0.99999998245E-14  0.12500000000E+03  0.12500000000E+03 0.  0.
        -11    1    3    3    0    0 -0.11022653538E+02 -0.56409537802E+02 -0.11456294093E+02  0.58607009143E+02  0.51100000000E-03 0. -1.
         23    2    1    0    0    0 -0.93193735383E+00 -0.32394149811E+02  0.85861314895E+01  0.91474321734E+02  0.85109226489E+02 0.  0.
         11    1    3    3    0    0  0.10090716184E+02  0.24015387991E+02  0.20042425582E+02  0.32867312591E+02  0.51100000000E-03 0.  1.
         22    1    1    0    0    0  0.93193735383E+00  0.32394149811E+02 -0.85861314895E+01  0.33525678266E+02  0.00000000000E+00 0. -1.
</event>
<event>
 5    1  0.8863861E-005  0.9118800E+02  0.7818608E-02  0.1130116E+00
         25   -1    0    0    0    0  0.00000000000E+00  0.00000000000E+00  0.99999998245E-14  0.12500000000E+03  0.12500000000E+03 0.  0.
        -11    1    3    3    0    0 -0.55632764100E+02  0.54437191680E+01 -0.18057477808E+02  0.58742752956E+02  0.51100000000E-03 0. -1.
         23    2    1    0    0    0 -0.27775172324E+02 -0.10633580502E+02 -0.79086068398E+00  0.95248383362E+02  0.90482572027E+02 0.  0.
         11    1    3    3    0    0  0.27857591776E+02 -0.16077299670E+02  0.17266617124E+02  0.36505630407E+02  0.51100000000E-03 0.  1.
         22    1    1    0    0    0  0.27775172324E+02  0.10633580502E+02  0.79086068398E+00  0.29751616638E+02  0.00000000000E+00 0. -1.
</event>
<event>
 5    1  0.8863861E-005  0.9118800E+02  0.7818608E-02  0.1130116E+00
         25   -1    0    0    0    0  0.00000000000E+00  0.00000000000E+00  0.99999998245E-14  0.12500000000E+03  0.12500000000E+03 0.  0.
        -11    1    3    3    0    0 -0.64545768017E+01 -0.43961710416E+02  0.34031564747E+02  0.55968213691E+02  0.51100000000E-03 0.  1.
         23    2    1    0    0    0 -0.14039184741E+02 -0.79980424690E+01  0.27215382672E+02  0.93349653311E+02  0.87820346890E+02 0.  0.
         11    1    3    3    0    0 -0.75846079391E+01  0.35963667947E+02 -0.68161820747E+01  0.37381439621E+02  0.51100000000E-03 0. -1.
         22    1    1    0    0    0  0.14039184741E+02  0.79980424690E+01 -0.27215382672E+02  0.31650346689E+02  0.00000000000E+00 0.  1.
</event>
<event>
 5    1  0.8863861E-005  0.9118800E+02  0.7818608E-02  0.1130116E+00
         25   -1    0    0    0    0  0.00000000000E+00  0.00000000000E+00  0.99999998245E-14  0.12500000000E+03  0.12500000000E+03 0.  0.
        -11    1    3    3    0    0 -0.35855984193E+02  0.54567153511E+01  0.44286199004E+02  0.57242421047E+02  0.51100000000E-03 0.  1.
         23    2    1    0    0    0 -0.27416439506E+02  0.94028785817E+01  0.76798256508E+01  0.95015754089E+02  0.90160626231E+02 0.  0.
         11    1    3    3    0    0  0.84395446866E+01  0.39461632306E+01 -0.36606373353E+02  0.37773333042E+02  0.51100000000E-03 0. -1.
         22    1    1    0    0    0  0.27416439506E+02 -0.94028785817E+01 -0.76798256508E+01  0.29984245911E+02  0.00000000000E+00 0.  1.
</event>
<event>
 5    1  0.8863861E-005  0.9118800E+02  0.7818608E-02  0.1130116E+00
         25   -1    0    0    0    0  0.00000000000E+00  0.00000000000E+00  0.99999998245E-14  0.12500000000E+03  0.12500000000E+03 0.  0.
        -11    1    3    3    0    0  0.48948890013E+02  0.86938414235E+01 -0.15096387576E+02  0.51956497479E+02  0.51100000000E-03 0.  1.
         23    2    1    0    0    0  0.15302912264E+02  0.25474271123E+02  0.54264686017E+01  0.94791322861E+02  0.89848932744E+02 0.  0.
         11    1    3    3    0    0 -0.33645977749E+02  0.16780429699E+02  0.20522856178E+02  0.42834825382E+02  0.51100000000E-03 0. -1.
         22    1    1    0    0    0 -0.15302912264E+02 -0.25474271123E+02 -0.54264686017E+01  0.30208677139E+02  0.00000000000E+00 0.  1.
</event>
<event>
 5    1  0.8863861E-005  0.9118800E+02  0.7818608E-02  0.1130116E+00
         25   -1    0    0    0    0  0.00000000000E+00  0.00000000000E+00  0.99999998245E-14  0.12500000000E+03  0.12500000000E+03 0.  0.
        -11    1    3    3    0    0  0.29110486378E+02  0.27217499178E+02  0.75147103693E+01  0.40554698259E+02  0.51100000000E-03 0. -1.
         23    2    1    0    0    0 -0.13724483487E+02  0.30829234952E+01 -0.22723351642E+02  0.98275169335E+02  0.94571625415E+02 0.  0.
         11    1    3    3    0    0 -0.42834969865E+02 -0.24134575683E+02 -0.30238062011E+02  0.57720471076E+02  0.51100000000E-03 0.  1.
         22    1    1    0    0    0  0.13724483487E+02 -0.30829234952E+01  0.22723351642E+02  0.26724830665E+02  0.00000000000E+00 0.  1.
</event>
<event>
 5    1  0.8863861E-005  0.9118800E+02  0.7818608E-02  0.1130116E+00
         25   -1    0    0    0    0  0.00000000000E+00  0.00000000000E+00  0.99999998245E-14  0.12500000000E+03  0.12500000000E+03 0.  0.
        -11    1    3    3    0    0 -0.14910042213E+02  0.25104845782E+02 -0.48309946968E+02  0.56448326962E+02  0.51100000000E-03 0. -1.
         23    2    1    0    0    0  0.11030691895E+02  0.13934227065E+02 -0.30073534750E+02  0.90067832304E+02  0.83017817822E+02 0.  0.
         11    1    3    3    0    0  0.25940734108E+02 -0.11170618717E+02  0.18236412217E+02  0.33619505342E+02  0.51100000000E-03 0.  1.
         22    1    1    0    0    0 -0.11030691895E+02 -0.13934227065E+02  0.30073534750E+02  0.34932167696E+02  0.00000000000E+00 0. -1.
</event>
<event>
 5    1  0.8863861E-005  0.9118800E+02  0.7818608E-02  0.1130116E+00
         25   -1    0    0    0    0  0.00000000000E+00  0.00000000000E+00  0.99999998245E-14  0.12500000000E+03  0.12500000000E+03 0.  0.
        -11    1    3    3    0    0 -0.40632477551E+02 -0.44574134565E+02 -0.55554740681E+00  0.60317164534E+02  0.51100000000E-03 0. -1.
         23    2    1    0    0    0 -0.14329169245E+02 -0.20781459062E+02 -0.11252528532E+02  0.97362823400E+02  0.93357944762E+02 0.  0.
         11    1    3    3    0    0  0.26303308306E+02  0.23792675503E+02 -0.10696981125E+02  0.37045658867E+02  0.51100000000E-03 0.  1.
         22    1    1    0    0    0  0.14329169245E+02  0.20781459062E+02  0.11252528532E+02  0.27637176600E+02  0.00000000000E+00 0. -1.
</event>
<event>
 5    1  0.8863861E-005  0.9118800E+02  0.7818608E-02  0.1130116E+00
         25   -1    0    0    0    0  0.00000000000E+00  0.00000000000E+00  0.99999998245E-14  0.12500000000E+03  0.12500000000E+03 0.  0.
        -11    1    3    3    0    0 -0.25754970022E+02  0.14062809906E+02 -0.10580896524E+02  0.31193532580E+02  0.51100000000E-03 0.  1.
         23    2    1    0    0    0  0.28741926071E+02 -0.49587776431E+01  0.12381228443E+02  0.93314315414E+02  0.87770033915E+02 0.  0.
         11    1    3    3    0    0  0.54496896093E+02 -0.19021587549E+02  0.22962124967E+02  0.62120782834E+02  0.51100000000E-03 0. -1.
         22    1    1    0    0    0 -0.28741926071E+02  0.49587776431E+01 -0.12381228443E+02  0.31685684586E+02  0.00000000000E+00 0. -1.
</event>
<event>
 5    1  0.8863861E-005  0.9118800E+02  0.7818608E-02  0.1130116E+00
         25   -1    0    0    0    0  0.00000000000E+00  0.00000000000E+00  0.99999998245E-14  0.12500000000E+03  0.12500000000E+03 0.  0.
        -11    1    3    3    0    0  0.35873450064E+02  0.40924834422E+01  0.28949922974E+02  0.46279054449E+02  0.51100000000E-03 0.  1.
         23    2    1    0    0    0 -0.28890007919E+01  0.27666287930E+02  0.11893132537E+02  0.94747456059E+02  0.89787883452E+02 0.  0.
         11    1    3    3    0    0 -0.38762450856E+02  0.23573804487E+02 -0.17056790437E+02  0.48468401610E+02  0.51100000000E-03 0. -1.
         22    1    1    0    0    0  0.28890007919E+01 -0.27666287930E+02 -0.11893132537E+02  0.30252543941E+02  0.00000000000E+00 0.  1.
</event>
<event>
 5    1  0.8863861E-005  0.9118800E+02  0.7818608E-02  0.1130116E+00
         25   -1    0    0    0    0  0.00000000000E+00  0.00000000000E+00  0.99999998245E-14  0.12500000000E+03  0.12500000000E+03 0.  0.
        -11    1    3    3    0    0  0.21636680477E+02 -0.45992055166E+02 -0.27987341941E+02  0.58023326255E+02  0.51100000000E-03 0.  1.
         23    2    1    0    0    0 -0.12860376673E+01 -0.15474257080E+02 -0.24021748190E+02  0.96396662587E+02  0.92055231501E+02 0.  0.
         11    1    3    3    0    0 -0.22922718145E+02  0.30517798086E+02  0.39655937504E+01  0.38373336332E+02  0.51100000000E-03 0. -1.
         22    1    1    0    0    0  0.12860376673E+01  0.15474257080E+02  0.24021748190E+02  0.28603337413E+02  0.00000000000E+00 0.  1.
</event>
<event>
 5    1  0.8863861E-005  0.9118800E+02  0.7818608E-02  0.1130116E+00
         25   -1    0    0    0    0  0.00000000000E+00  0.00000000000E+00  0.99999998245E-14  0.12500000000E+03  0.12500000000E+03 0.  0.
        -11    1    3    3    0    0  0.19584926522E+02  0.11495135575E+02 -0.37110838167E+02  0.43507721136E+02  0.51100000000E-03 0. -1.
         23    2    1    0    0    0 -0.21816293726E+02 -0.12007919701E+02 -0.14068124672E+02  0.96398375233E+02  0.92057557041E+02 0.  0.
         11    1    3    3    0    0 -0.41401220248E+02 -0.23503055276E+02  0.23042713495E+02  0.52890654097E+02  0.51100000000E-03 0.  1.
         22    1    1    0    0    0  0.21816293726E+02  0.12007919701E+02  0.14068124672E+02  0.28601624767E+02  0.00000000000E+00 0.  1.
</event>
<event>
 5    1  0.8863861E-005  0.9118800E+02  0.7818608E-02  0.1130116E+00
         25   -1    0    0    0    0  0.00000000000E+00  0.00000000000E+00  0.99999998245E-14  0.12500000000E+03  0.12500000000E+03 0.  0.
        -11    1    3    3    0    0 -0.40874987246E+02 -0.10505930818E+02 -0.20231891247E+02  0.46802442120E+02  0.51100000000E-03 0. -1.
         23    2    1    0    0    0 -0.17150746606E+02  0.26450982987E+02 -0.65360830112E+01  0.92804922872E+02  0.87041545931E+02 0.  0.
         11    1    3    3    0    0  0.23724240640E+02  0.36956913805E+02  0.13695808235E+02  0.46002480752E+02  0.51100000000E-03 0.  1.
         22    1    1    0    0    0  0.17150746606E+02 -0.26450982987E+02  0.65360830112E+01  0.32195077128E+02  0.00000000000E+00 0. -1.
</event>
<event>
 5    1  0.8863861E-005  0.9118800E+02  0.7818608E-02  0.1130116E+00
         25   -1    0    0    0    0  0.00000000000E+00  0.00000000000E+00  0.99999998245E-14  0.12500000000E+03  0.12500000000E+03 0.  0.
        -11    1    3    3    0    0 -0.19974732142E+02  0.30846239998E+02 -0.49945558195E+02  0.62008380320E+02  0.51100000000E-03 0. -1.
         23    2    1    0    0    0 -0.44307500111E+01  0.16994178671E+02 -0.22542441082E+02  0.96423868277E+02  0.92092166166E+02 0.  0.
         11    1    3    3    0    0  0.15543982131E+02 -0.13852061328E+02  0.27403117114E+02  0.34415487957E+02  0.51100000000E-03 0.  1.
         22    1    1    0    0    0  0.44307500111E+01 -0.16994178671E+02  0.22542441082E+02  0.28576131723E+02  0.00000000000E+00 0. -1.
</event>
<event>
 5    1  0.8863861E-005  0.9118800E+02  0.7818608E-02  0.1130116E+00
         25   -1    0    0    0    0  0.00000000000E+00  0.00000000000E+00  0.99999998245E-14  0.12500000000E+03  0.12500000000E+03 0.  0.
        -11    1    3    3    0    0  0.25779743101E+02  0.27131392281E+02 -0.36279874061E+01  0.37601461333E+02  0.51100000000E-03 0. -1.
         23    2    1    0    0    0 -0.10334106107E+02 -0.21278410766E+02 -0.11829118932E+02  0.98552078182E+02  0.94936924037E+02 0.  0.
         11    1    3    3    0    0 -0.36113849209E+02 -0.48409803047E+02 -0.82011315260E+01  0.60950616849E+02  0.51100000000E-03 0.  1.
         22    1    1    0    0    0  0.10334106107E+02  0.21278410766E+02  0.11829118932E+02  0.26447921818E+02  0.00000000000E+00 0.  1.
</event>
<event>
 5    1  0.8863861E-005  0.9118800E+02  0.7818608E-02  0.1130116E+00
         25   -1    0    0    0    0  0.00000000000E+00  0.00000000000E+00  0.99999998245E-14  0.12500000000E+03  0.12500000000E+03 0.  0.
        -11    1    3    3    0    0 -0.74183257900E+01 -0.33443661562E+02 -0.12738952230E+02  0.36548474118E+02  0.51100000000E-03 0.  1.
         23    2    1    0    0    0 -0.67228495071E+00  0.92144823553E+01  0.27752716727E+02  0.95749838669E+02  0.91172691456E+02 0.  0.
         11    1    3    3    0    0  0.67460408393E+01  0.42658143917E+02  0.40491668957E+02  0.59201364551E+02  0.51100000000E-03 0. -1.
         22    1    1    0    0    0  0.67228495071E+00 -0.92144823553E+01 -0.27752716727E+02  0.29250161331E+02  0.00000000000E+00 0. -1.
</event>
<event>
 5    1  0.8863861E-005  0.9118800E+02  0.7818608E-02  0.1130116E+00
         25   -1    0    0    0    0  0.00000000000E+00  0.00000000000E+00  0.99999998245E-14  0.12500000000E+03  0.12500000000E+03 0.  0.
        -11    1    3    3    0    0  0.15839988303E+02  0.20791852868E+02 -0.27052503304E+02  0.37617074719E+02  0.51100000000E-03 0. -1.
         23    2    1    0    0    0  0.10185034902E+02  0.36246425698E+01  0.27694325399E+02  0.95270408193E+02  0.90512993809E+02 0.  0.
         11    1    3    3    0    0 -0.56549534014E+01 -0.17167210298E+02  0.54746828703E+02  0.57653333474E+02  0.51100000000E-03 0.  1.
         22    1    1    0    0    0 -0.10185034902E+02 -0.36246425698E+01 -0.27694325399E+02  0.29729591807E+02  0.00000000000E+00 0.  1.
</event>
<event>
 5    1  0.8863861E-005  0.9118800E+02  0.7818608E-02  0.1130116E+00
         25   -1    0    0    0    0  0.00000000000E+00  0.00000000000E+00  0.99999998245E-14  0.12500000000E+03  0.12500000000E+03 0.  0.
        -11    1    3    3    0    0 -0.94647525577E+01  0.14122856174E+02  0.40181645853E+02  0.43630279293E+02  0.51100000000E-03 0. -1.
         23    2    1    0    0    0  0.18717219175E+02  0.18722469070E+02 -0.59325630156E+01  0.97869566063E+02  0.94033991278E+02 0.  0.
         11    1    3    3    0    0  0.28181971732E+02  0.45996128954E+01 -0.46114208868E+02  0.54239286770E+02  0.51100000000E-03 0.  1.
         22    1    1    0    0    0 -0.18717219175E+02 -0.18722469070E+02  0.59325630156E+01  0.27130433937E+02  0.00000000000E+00 0.  1.
</event>
<event>
 5    1  0.8863861E-005  0.9118800E+02  0.7818608E-02  0.1130116E+00
         25   -1    0    0    0    0  0.00000000000E+00  0.00000000000E+00  0.99999998245E-14  0.12500000000E+03  0.12500000000E+03 0.  0.
        -11    1    3    3    0    0  0.35689412352E+02  0.18324497535E+01  0.19504253489E+02  0.40712503368E+02  0.51100000000E-03 0.  1.
         23    2    1    0    0    0 -0.19269256033E+02  0.48866635106E+00  0.22007665094E+02  0.95744567244E+02  0.91165463916E+02 0.  0.
         11    1    3    3    0    0 -0.54958668385E+02 -0.13437834025E+01  0.25034116051E+01  0.55032063876E+02  0.51100000000E-03 0. -1.
         22    1    1    0    0    0  0.19269256033E+02 -0.48866635106E+00 -0.22007665094E+02  0.29255432756E+02  0.00000000000E+00 0. -1.
</event>
<event>
 5    1  0.8863861E-005  0.9118800E+02  0.7818608E-02  0.1130116E+00
         25   -1    0    0    0    0  0.00000000000E+00  0.00000000000E+00  0.99999998245E-14  0.12500000000E+03  0.12500000000E+03 0.  0.
        -11    1    3    3    0    0  0.46440598646E+01 -0.36906976786E+02 -0.34606069664E+02  0.50806222900E+02  0.51100000000E-03 0.  1.
         23    2    1    0    0    0  0.12165186016E+02 -0.26715598174E+02  0.74384913156E+01  0.94717231143E+02  0.89745795365E+02 0.  0.
         11    1    3    3    0    0  0.75211261513E+01  0.10191378612E+02  0.42044560980E+02  0.43911008242E+02  0.51100000000E-03 0. -1.
         22    1    1    0    0    0 -0.12165186016E+02  0.26715598174E+02 -0.74384913156E+01  0.30282768857E+02  0.00000000000E+00 0.  1.
</event>
<event>
 5    1  0.8863861E-005  0.9118800E+02  0.7818608E-02  0.1130116E+00
         25   -1    0    0    0    0  0.00000000000E+00  0.00000000000E+00  0.99999998245E-14  0.12500000000E+03  0.12500000000E+03 0.  0.
        -11    1    3    3    0    0  0.30038071612E+02 -0.43815972056E+02 -0.57250935136E+01  0.53431281562E+02  0.51100000000E-03 0. -1.
         23    2    1    0    0    0  0.25164810572E+02 -0.10642221480E+01  0.79618179988E+01  0.98584269729E+02  0.94979300019E+02 0.  0.
         11    1    3    3    0    0 -0.48732610392E+01  0.42751749908E+02  0.13686911512E+02  0.45152988167E+02  0.51100000000E-03 0.  1.
         22    1    1    0    0    0 -0.25164810572E+02  0.10642221480E+01 -0.79618179988E+01  0.26415730271E+02  0.00000000000E+00 0. -1.
</event>
<event>
 5    1  0.8863861E-005  0.9118800E+02  0.7818608E-02  0.1130116E+00
         25   -1    0    0    0    0  0.00000000000E+00  0.00000000000E+00  0.99999998245E-14  0.12500000000E+03  0.12500000000E+03 0.  0.
        -11    1    3    3    0    0  0.62069966432E+01 -0.27010919357E+01  0.53817654073E+02  0.54241705312E+02  0.51100000000E-03 0. -1.
         23    2    1    0    0    0  0.10364438876E+02  0.19583245424E+02  0.18874778922E+02  0.95893602526E+02  0.91369582638E+02 0.  0.
         11    1    3    3    0    0  0.41574422329E+01  0.22284337359E+02 -0.34942875151E+02  0.41651897214E+02  0.51100000000E-03 0.  1.
         22    1    1    0    0    0 -0.10364438876E+02 -0.19583245424E+02 -0.18874778922E+02  0.29106397474E+02  0.00000000000E+00 0. -1.
</event>
<event>
 5    1  0.8863861E-005  0.9118800E+02  0.7818608E-02  0.1130116E+00
         25   -1    0    0    0    0  0.00000000000E+00  0.00000000000E+00  0.99999998245E-14  0.12500000000E+03  0.12500000000E+03 0.  0.
        -11    1    3    3    0    0  0.58127283255E+02  0.12667112363E+02 -0.18592959085E+01  0.59520532388E+02  0.51100000000E-03 0.  1.
         23    2    1    0    0    0  0.24649022282E+02  0.65130309840E+01 -0.14307841264E+02  0.95764607174E+02  0.91192937191E+02 0.  0.
         11    1    3    3    0    0 -0.33478260973E+02 -0.61540813789E+01 -0.12448545355E+02  0.36244074786E+02  0.51100000000E-03 0. -1.
         22    1    1    0    0    0 -0.24649022282E+02 -0.65130309840E+01  0.14307841264E+02  0.29235392826E+02  0.00000000000E+00 0.  1.
</event>
<event>
 5    1  0.8863861E-005  0.9118800E+02  0.7818608E-02  0.1130116E+00
         25   -1    0    0    0    0  0.00000000000E+00  0.00000000000E+00  0.99999998245E-14  0.12500000000E+03  0.12500000000E+03 0.  0.
        -11    1    3    3    0    0 -0.45387030754E+02 -0.27951510588E+02 -0.25493230227E+02  0.59086159907E+02  0.51100000000E-03 0.  1.
         23    2    1    0    0    0 -0.20482820229E+02 -0.26880557531E+01 -0.22139535735E+02  0.94719137878E+02  0.89748451070E+02 0.  0.
         11    1    3    3    0    0  0.24904210525E+02  0.25263454835E+02  0.33536944919E+01  0.35632977971E+02  0.51100000000E-03 0. -1.
         22    1    1    0    0    0  0.20482820229E+02  0.26880557531E+01  0.22139535735E+02  0.30280862122E+02  0.00000000000E+00 0.  1.
</event>
<event>
 5    1  0.8863861E-005  0.9118800E+02  0.7818608E-02  0.1130116E+00
         25   -1    0    0    0    0  0.00000000000E+00  0.00000000000E+00  0.99999998245E-14  0.12500000000E+03  0.12500000000E+03 0.  0.
        -11    1    3    3    0    0  0.28129453340E+02 -0.37243320459E+02  0.10539676324E+02  0.47847840508E+02  0.51100000000E-03 0.  1.
         23    2    1    0    0    0 -0.11213261719E+02 -0.26392757834E+02 -0.11350340190E+02  0.94159359169E+02  0.88965385359E+02 0.  0.
         11    1    3    3    0    0 -0.39342715058E+02  0.10850562624E+02 -0.21890016514E+02  0.46311518661E+02  0.51100000000E-03 0. -1.
         22    1    1    0    0    0  0.11213261719E+02  0.26392757834E+02  0.11350340190E+02  0.30840640831E+02  0.00000000000E+00 0.  1.
</event>
<event>
 5    1  0.8863861E-005  0.9118800E+02  0.7818608E-02  0.1130116E+00
         25   -1    0    0    0    0  0.00000000000E+00  0.00000000000E+00  0.99999998245E-14  0.12500000000E+03  0.12500000000E+03 0.  0.
        -11    1    3    3    0    0 -0.30015624489E+02 -0.36050911760E+02 -0.11146520087E+02  0.48216707297E+02  0.51100000000E-03 0.  1.
         23    2    1    0    0    0 -0.25792311372E+02  0.64565354612E+01  0.10872703468E+02  0.96274647839E+02  0.91889400694E+02 0.  0.
         11    1    3    3    0    0  0.42233131175E+01  0.42507447222E+02  0.22019223555E+02  0.48057940543E+02  0.51100000000E-03 0. -1.
         22    1    1    0    0    0  0.25792311372E+02 -0.64565354612E+01 -0.10872703468E+02  0.28725352161E+02  0.00000000000E+00 0. -1.
</event>
<event>
 5    1  0.8863861E-005  0.9118800E+02  0.7818608E-02  0.1130116E+00
         25   -1    0    0    0    0  0.00000000000E+00  0.00000000000E+00  0.99999998245E-14  0.12500000000E+03  0.12500000000E+03 0.  0.
        -11    1    3    3    0    0  0.36939559194E+02  0.21928195408E+02  0.18437473998E+02  0.46747376771E+02  0.51100000000E-03 0.  1.
         23    2    1    0    0    0  0.13024799488E+02  0.99992933458E+01 -0.23412905839E+02  0.96402877261E+02  0.92063669899E+02 0.  0.
         11    1    3    3    0    0 -0.23914759706E+02 -0.11928902062E+02 -0.41850379837E+02  0.49655500490E+02  0.51100000000E-03 0. -1.
         22    1    1    0    0    0 -0.13024799488E+02 -0.99992933458E+01  0.23412905839E+02  0.28597122739E+02  0.00000000000E+00 0.  1.
</event>
<event>
 5    1  0.8863861E-005  0.9118800E+02  0.7818608E-02  0.1130116E+00
         25   -1    0    0    0    0  0.00000000000E+00  0.00000000000E+00  0.99999998245E-14  0.12500000000E+03  0.12500000000E+03 0.  0.
        -11    1    3    3    0    0  0.36077760355E+02 -0.57315877357E+01  0.28180729262E+01  0.36638742139E+02  0.51100000000E-03 0. -1.
         23    2    1    0    0    0 -0.12214207631E+02  0.10105097301E+02 -0.25616773865E+02  0.94874944601E+02  0.89965194105E+02 0.  0.
         11    1    3    3    0    0 -0.48291967986E+02  0.15836685036E+02 -0.28434846791E+02  0.58236202463E+02  0.51100000000E-03 0.  1.
         22    1    1    0    0    0  0.12214207631E+02 -0.10105097301E+02  0.25616773865E+02  0.30125055399E+02  0.00000000000E+00 0.  1.
</event>
<event>
 5    1  0.8863861E-005  0.9118800E+02  0.7818608E-02  0.1130116E+00
         25   -1    0    0    0    0  0.00000000000E+00  0.00000000000E+00  0.99999998245E-14  0.12500000000E+03  0.12500000000E+03 0.  0.
        -11    1    3    3    0    0  0.68610440406E+01  0.37763321440E+02 -0.21579356451E+02  0.44031931557E+02  0.51100000000E-03 0. -1.
         23    2    1    0    0    0 -0.88153004642E+01  0.34822261244E+01  0.21636925819E+02  0.10137814614E+03  0.98587709853E+02 0.  0.
         11    1    3    3    0    0 -0.15676344505E+02 -0.34281095316E+02  0.43216282270E+02  0.57346214580E+02  0.51100000000E-03 0.  1.
         22    1    1    0    0    0  0.88153004642E+01 -0.34822261244E+01 -0.21636925819E+02  0.23621853864E+02  0.00000000000E+00 0.  1.
</event>
<event>
 5    1  0.8863861E-005  0.9118800E+02  0.7818608E-02  0.1130116E+00
         25   -1    0    0    0    0  0.00000000000E+00  0.00000000000E+00  0.99999998245E-14  0.12500000000E+03  0.12500000000E+03 0.  0.
        -11    1    3    3    0    0 -0.15455041023E+02 -0.14166139155E+02 -0.52661643028E+02  0.56681447037E+02  0.51100000000E-03 0.  1.
         23    2    1    0    0    0 -0.92334897739E+01 -0.23116046313E+02 -0.14889776392E+02  0.95994580307E+02  0.91507623053E+02 0.  0.
         11    1    3    3    0    0  0.62215512494E+01 -0.89499071580E+01  0.37771866636E+02  0.39313133270E+02  0.51100000000E-03 0. -1.
         22    1    1    0    0    0  0.92334897739E+01  0.23116046313E+02  0.14889776392E+02  0.29005419693E+02  0.00000000000E+00 0.  1.
</event>
<event>
 5    1  0.8863861E-005  0.9118800E+02  0.7818608E-02  0.1130116E+00
         25   -1    0    0    0    0  0.00000000000E+00  0.00000000000E+00  0.99999998245E-14  0.12500000000E+03  0.12500000000E+03 0.  0.
        -11    1    3    3    0    0 -0.36272973715E+02  0.55236621595E+01  0.72282218039E+01  0.37396345496E+02  0.51100000000E-03 0. -1.
         23    2    1    0    0    0  0.18606662937E+02 -0.11767612908E+02  0.18755035321E+02  0.96078797240E+02  0.91622591701E+02 0.  0.
         11    1    3    3    0    0  0.54879636652E+02 -0.17291275067E+02  0.11526813517E+02  0.58682451744E+02  0.51100000000E-03 0.  1.
         22    1    1    0    0    0 -0.18606662937E+02  0.11767612908E+02 -0.18755035321E+02  0.28921202760E+02  0.00000000000E+00 0.  1.
</event>
<event>
 5    1  0.8863861E-005  0.9118800E+02  0.7818608E-02  0.1130116E+00
         25   -1    0    0    0    0  0.00000000000E+00  0.00000000000E+00  0.99999998245E-14  0.12500000000E+03  0.12500000000E+03 0.  0.
        -11    1    3    3    0    0 -0.38939933234E+02 -0.18220808211E+02  0.46815453280E+01  0.43246191960E+02  0.51100000000E-03 0.  1.
         23    2    1    0    0    0 -0.56356990538E+00  0.15041208724E+02  0.23236355645E+02  0.97314556269E+02  0.93293295940E+02 0.  0.
         11    1    3    3    0    0  0.38376363328E+02  0.33262016935E+02  0.18554810317E+02  0.54068364309E+02  0.51100000000E-03 0. -1.
         22    1    1    0    0    0  0.56356990538E+00 -0.15041208724E+02 -0.23236355645E+02  0.27685443731E+02  0.00000000000E+00 0. -1.
</event>
<event>
 5    1  0.8863861E-005  0.9118800E+02  0.7818608E-02  0.1130116E+00
         25   -1    0    0    0    0  0.00000000000E+00  0.00000000000E+00  0.99999998245E-14  0.12500000000E+03  0.12500000000E+03 0.  0.
        -11    1    3    3    0    0 -0.49203933953E+01  0.36038487047E+02 -0.11358647127E+02  0.38105139872E+02  0.51100000000E-03 0.  1.
         23    2    1    0    0    0  0.60535482776E+01  0.34347173721E+01  0.31316500099E+02  0.92919384223E+02  0.87205768478E+02 0.  0.
         11    1    3    3    0    0  0.10973941673E+02 -0.32603769675E+02  0.42675147226E+02  0.54814244352E+02  0.51100000000E-03 0. -1.
         22    1    1    0    0    0 -0.60535482776E+01 -0.34347173721E+01 -0.31316500099E+02  0.32080615777E+02  0.00000000000E+00 0. -1.
</event>
<event>
 5    1  0.8863861E-005  0.9118800E+02  0.7818608E-02  0.1130116E+00
         25   -1    0    0    0    0  0.00000000000E+00  0.00000000000E+00  0.99999998245E-14  0.12500000000E+03  0.12500000000E+03 0.  0.
        -11    1    3    3    0    0  0.26855890729E+02 -0.27221001402E+02  0.41205148492E+02  0.56214642635E+02  0.51100000000E-03 0. -1.
         23    2    1    0    0    0  0.23741057701E+01 -0.27445424995E+02  0.10422343502E+02  0.95546426780E+02  0.90893380920E+02 0.  0.
         11    1    3    3    0    0 -0.24481784958E+02 -0.22442359269E+00 -0.30782804990E+02  0.39331784145E+02  0.51100000000E-03 0.  1.
         22    1    1    0    0    0 -0.23741057701E+01  0.27445424995E+02 -0.10422343502E+02  0.29453573220E+02  0.00000000000E+00 0.  1.
</event>
<event>
 5    1  0.8863861E-005  0.9118800E+02  0.7818608E-02  0.1130116E+00
         25   -1    0    0    0    0  0.00000000000E+00  0.00000000000E+00  0.99999998245E-14  0.12500000000E+03  0.12500000000E+03 0.  0.
        -11    1    3    3    0    0  0.44398882993E+01 -0.50713919577E+02 -0.15924197665E+02  0.53340362939E+02  0.51100000000E-03 0. -1.
         23    2    1    0    0    0  0.24079986869E+02 -0.13397494135E+02 -0.85368926343E+01  0.96151825837E+02  0.91722169944E+02 0.  0.
         11    1    3    3    0    0  0.19640098569E+02  0.37316425442E+02  0.73873050304E+01  0.42811462898E+02  0.51100000000E-03 0.  1.
         22    1    1    0    0    0 -0.24079986869E+02  0.13397494135E+02  0.85368926343E+01  0.28848174163E+02  0.00000000000E+00 0. -1.
</event>
<event>
 5    1  0.8863861E-005  0.9118800E+02  0.7818608E-02  0.1130116E+00
         25   -1    0    0    0    0  0.00000000000E+00  0.00000000000E+00  0.99999998245E-14  0.12500000000E+03  0.12500000000E+03 0.  0.
        -11    1    3    3    0    0  0.36596688734E+02  0.10729137576E+01 -0.88402596612E+01  0.37664558425E+02  0.51100000000E-03 0.  1.
         23    2    1    0    0    0 -0.21754972128E+02  0.10983472055E+02 -0.13685593309E+02  0.97049849108E+02  0.92937948531E+02 0.  0.
         11    1    3    3    0    0 -0.58351660862E+02  0.99105582969E+01 -0.48453336476E+01  0.59385290683E+02  0.51100000000E-03 0. -1.
         22    1    1    0    0    0  0.21754972128E+02 -0.10983472055E+02  0.13685593309E+02  0.27950150892E+02  0.00000000000E+00 0. -1.
</event>
<event>
 5    1  0.8863861E-005  0.9118800E+02  0.7818608E-02  0.1130116E+00
         25   -1    0    0    0    0  0.00000000000E+00  0.00000000000E+00  0.99999998245E-14  0.12500000000E+03  0.12500000000E+03 0.  0.
        -11    1    3    3    0    0 -0.39800096575E+01  0.37122158966E+02 -0.12974422227E+02  0.39525065409E+02  0.51100000000E-03 0.  1.
         23    2    1    0    0    0  0.23680157138E+02 -0.15722070177E+01  0.17054694188E+02  0.95775279799E+02  0.91207565200E+02 0.  0.
         11    1    3    3    0    0  0.27660166795E+02 -0.38694365984E+02  0.30029116415E+02  0.56250214390E+02  0.51100000000E-03 0. -1.
         22    1    1    0    0    0 -0.23680157138E+02  0.15722070177E+01 -0.17054694188E+02  0.29224720201E+02  0.00000000000E+00 0. -1.
</event>
<event>
 5    1  0.8863861E-005  0.9118800E+02  0.7818608E-02  0.1130116E+00
         25   -1    0    0    0    0  0.00000000000E+00  0.00000000000E+00  0.99999998245E-14  0.12500000000E+03  0.12500000000E+03 0.  0.
        -11    1    3    3    0    0 -0.11999162744E+02 -0.50752331543E+02 -0.29946670721E+02  0.60138025833E+02  0.51100000000E-03 0. -1.
         23    2    1    0    0    0 -0.16352588318E+02 -0.29501361091E+02 -0.94770005443E+01  0.89963576235E+02  0.82860690673E+02 0.  0.
         11    1    3    3    0    0 -0.43534255747E+01  0.21250970452E+02  0.20469670176E+02  0.29825550402E+02  0.51100000000E-03 0.  1.
         22    1    1    0    0    0  0.16352588318E+02  0.29501361091E+02  0.94770005443E+01  0.35036423765E+02  0.00000000000E+00 0. -1.
</event>
<event>
 5    1  0.8863861E-005  0.9118800E+02  0.7818608E-02  0.1130116E+00
         25   -1    0    0    0    0  0.00000000000E+00  0.00000000000E+00  0.99999998245E-14  0.12500000000E+03  0.12500000000E+03 0.  0.
        -11    1    3    3    0    0 -0.37297361810E+02 -0.16718214145E+02  0.36627855641E+02  0.54883437313E+02  0.51100000000E-03 0. -1.
         23    2    1    0    0    0 -0.33786432441E+01 -0.24284807622E+02  0.19742899710E+02  0.93520654385E+02  0.88063406681E+02 0.  0.
         11    1    3    3    0    0  0.33918718566E+02 -0.75665934764E+01 -0.16884955931E+02  0.38637217072E+02  0.51100000000E-03 0.  1.
         22    1    1    0    0    0  0.33786432441E+01  0.24284807622E+02 -0.19742899710E+02  0.31479345615E+02  0.00000000000E+00 0. -1.
</event>
<event>
 5    1  0.8863861E-005  0.9118800E+02  0.7818608E-02  0.1130116E+00
         25   -1    0    0    0    0  0.00000000000E+00  0.00000000000E+00  0.99999998245E-14  0.12500000000E+03  0.12500000000E+03 0.  0.
        -11    1    3    3    0    0  0.32007807748E+02  0.12156578081E+02  0.10613178400E+02  0.35845804545E+02  0.51100000000E-03 0.  1.
         23    2    1    0    0    0 -0.11485895966E+02 -0.19658799063E+02 -0.17178385777E+02  0.96478234195E+02  0.92165929435E+02 0.  0.
         11    1    3    3    0    0 -0.43493703713E+02 -0.31815377145E+02 -0.27791564177E+02  0.60632429650E+02  0.51100000000E-03 0. -1.
         22    1    1    0    0    0  0.11485895966E+02  0.19658799063E+02  0.17178385777E+02  0.28521765805E+02  0.00000000000E+00 0. -1.
</event>
<event>
 5    1  0.8863861E-005  0.9118800E+02  0.7818608E-02  0.1130116E+00
         25   -1    0    0    0    0  0.00000000000E+00  0.00000000000E+00  0.99999998245E-14  0.12500000000E+03  0.12500000000E+03 0.  0.
        -11    1    3    3    0    0 -0.23598465147E+02 -0.60787725704E+01 -0.32271883642E+02  0.40439009722E+02  0.51100000000E-03 0. -1.
         23    2    1    0    0    0  0.14115468943E+02 -0.22189420496E+02  0.75874876807E+01  0.97628722815E+02  0.93713289899E+02 0.  0.
         11    1    3    3    0    0  0.37713934090E+02 -0.16110647926E+02  0.39859371323E+02  0.57189713093E+02  0.51100000000E-03 0.  1.
         22    1    1    0    0    0 -0.14115468943E+02  0.22189420496E+02 -0.75874876807E+01  0.27371277185E+02  0.00000000000E+00 0.  1.
</event>
<event>
 5    1  0.8863861E-005  0.9118800E+02  0.7818608E-02  0.1130116E+00
         25   -1    0    0    0    0  0.00000000000E+00  0.00000000000E+00  0.99999998245E-14  0.12500000000E+03  0.12500000000E+03 0.  0.
        -11    1    3    3    0    0  0.16754035307E+02  0.18432329992E+02  0.25811423172E+02  0.35870294875E+02  0.51100000000E-03 0.  1.
         23    2    1    0    0    0  0.27305287557E+01 -0.28390761817E+02 -0.80883624574E+01  0.95353537292E+02  0.90627723810E+02 0.  0.
         11    1    3    3    0    0 -0.14023506551E+02 -0.46823091809E+02 -0.33899785629E+02  0.59483242417E+02  0.51100000000E-03 0. -1.
         22    1    1    0    0    0 -0.27305287557E+01  0.28390761817E+02  0.80883624574E+01  0.29646462708E+02  0.00000000000E+00 0. -1.
</event>
<event>
 5    1  0.8863861E-005  0.9118800E+02  0.7818608E-02  0.1130116E+00
         25   -1    0    0    0    0  0.00000000000E+00  0.00000000000E+00  0.99999998245E-14  0.12500000000E+03  0.12500000000E+03 0.  0.
        -11    1    3    3    0    0 -0.30335574028E+02  0.40974577639E+01  0.14147500864E+02  0.33722218087E+02  0.51100000000E-03 0.  1.
         23    2    1    0    0    0  0.29109767436E+02  0.59189548796E+01 -0.16210501091E+01  0.95250371591E+02  0.90485318686E+02 0.  0.
         11    1    3    3    0    0  0.59445341464E+02  0.18214971157E+01 -0.15768550973E+02  0.61528153504E+02  0.51100000000E-03 0. -1.
         22    1    1    0    0    0 -0.29109767436E+02 -0.59189548796E+01  0.16210501091E+01  0.29749628409E+02  0.00000000000E+00 0. -1.
</event>
<event>
 5    1  0.8863861E-005  0.9118800E+02  0.7818608E-02  0.1130116E+00
         25   -1    0    0    0    0  0.00000000000E+00  0.00000000000E+00  0.99999998245E-14  0.12500000000E+03  0.12500000000E+03 0.  0.
        -11    1    3    3    0    0 -0.95369429082E+01 -0.59714115332E+01  0.36952183932E+02  0.38627385795E+02  0.51100000000E-03 0.  1.
         23    2    1    0    0    0  0.13421534490E+02  0.26382167318E+02 -0.33885740077E+01  0.95206732736E+02  0.90425014150E+02 0.  0.
         11    1    3    3    0    0  0.22958477398E+02  0.32353578851E+02 -0.40340757940E+02  0.56579346941E+02  0.51100000000E-03 0. -1.
         22    1    1    0    0    0 -0.13421534490E+02 -0.26382167318E+02  0.33885740077E+01  0.29793267264E+02  0.00000000000E+00 0. -1.
</event>
<event>
 5    1  0.8863861E-005  0.9118800E+02  0.7818608E-02  0.1130116E+00
         25   -1    0    0    0    0  0.00000000000E+00  0.00000000000E+00  0.99999998245E-14  0.12500000000E+03  0.12500000000E+03 0.  0.
        -11    1    3    3    0    0 -0.13690421164E+02  0.26401607882E+02 -0.15529025295E+02  0.33550307856E+02  0.51100000000E-03 0. -1.
         23    2    1    0    0    0 -0.50751878386E+01 -0.30222660026E+02  0.40665206188E+01  0.94085548677E+02  0.88861618089E+02 0.  0.
         11    1    3    3    0    0  0.86152333250E+01 -0.56624267908E+02  0.19595545914E+02  0.60535240821E+02  0.51100000000E-03 0.  1.
         22    1    1    0    0    0  0.50751878386E+01  0.30222660026E+02 -0.40665206188E+01  0.30914451323E+02  0.00000000000E+00 0.  1.
</event>
<event>
 5    1  0.8863861E-005  0.9118800E+02  0.7818608E-02  0.1130116E+00
         25   -1    0    0    0    0  0.00000000000E+00  0.00000000000E+00  0.99999998245E-14  0.12500000000E+03  0.12500000000E+03 0.  0.
        -11    1    3    3    0    0  0.11497638880E+02  0.42950239325E+02 -0.19537356708E+02  0.48565698443E+02  0.51100000000E-03 0. -1.
         23    2    1    0    0    0 -0.24266548093E+02  0.16384554273E+02 -0.61968111591E+01  0.95071427638E+02  0.90237779835E+02 0.  0.
         11    1    3    3    0    0 -0.35764186973E+02 -0.26565685052E+02  0.13340545549E+02  0.46505729195E+02  0.51100000000E-03 0.  1.
         22    1    1    0    0    0  0.24266548093E+02 -0.16384554273E+02  0.61968111591E+01  0.29928572362E+02  0.00000000000E+00 0.  1.
</event>
<event>
 5    1  0.8863861E-005  0.9118800E+02  0.7818608E-02  0.1130116E+00
         25   -1    0    0    0    0  0.00000000000E+00  0.00000000000E+00  0.99999998245E-14  0.12500000000E+03  0.12500000000E+03 0.  0.
        -11    1    3    3    0    0 -0.60776676976E+01  0.44208910406E+02  0.19245173511E+02  0.48597762372E+02  0.51100000000E-03 0. -1.
         23    2    1    0    0    0  0.12004300795E+02  0.33271882711E+00  0.25836106892E+02  0.96509328566E+02  0.92208091519E+02 0.  0.
         11    1    3    3    0    0  0.18081968493E+02 -0.43876191578E+02  0.65909333817E+01  0.47911566194E+02  0.51100000000E-03 0.  1.
         22    1    1    0    0    0 -0.12004300795E+02 -0.33271882711E+00 -0.25836106892E+02  0.28490671434E+02  0.00000000000E+00 0. -1.
</event>
<event>
 5    1  0.8863861E-005  0.9118800E+02  0.7818608E-02  0.1130116E+00
         25   -1    0    0    0    0  0.00000000000E+00  0.00000000000E+00  0.99999998245E-14  0.12500000000E+03  0.12500000000E+03 0.  0.
        -11    1    3    3    0    0 -0.26121304512E+02  0.16974933489E+02  0.15018125850E+02  0.34583450098E+02  0.51100000000E-03 0. -1.
         23    2    1    0    0    0  0.20349043593E+02 -0.20357581956E+02 -0.61987482573E+00  0.96209394535E+02  0.91800591685E+02 0.  0.
         11    1    3    3    0    0  0.46470348105E+02 -0.37332515445E+02 -0.15638000675E+02  0.61625944437E+02  0.51100000000E-03 0.  1.
         22    1    1    0    0    0 -0.20349043593E+02  0.20357581956E+02  0.61987482573E+00  0.28790605465E+02  0.00000000000E+00 0.  1.
</event>
<event>
 5    1  0.8863861E-005  0.9118800E+02  0.7818608E-02  0.1130116E+00
         25   -1    0    0    0    0  0.00000000000E+00  0.00000000000E+00  0.99999998245E-14  0.12500000000E+03  0.12500000000E+03 0.  0.
        -11    1    3    3    0    0 -0.31055688518E+01  0.35402302534E+02  0.24626914758E+02  0.43237165880E+02  0.51100000000E-03 0. -1.
         23    2    1    0    0    0  0.56634024674E+01 -0.14149347389E+02  0.27412344762E+02  0.93635771899E+02  0.88226656826E+02 0.  0.
         11    1    3    3    0    0  0.87689713192E+01 -0.49551649923E+02  0.27854300042E+01  0.50398606019E+02  0.51100000000E-03 0.  1.
         22    1    1    0    0    0 -0.56634024674E+01  0.14149347389E+02 -0.27412344762E+02  0.31364228101E+02  0.00000000000E+00 0.  1.
</event>
<event>
 5    1  0.8863861E-005  0.9118800E+02  0.7818608E-02  0.1130116E+00
         25   -1    0    0    0    0  0.00000000000E+00  0.00000000000E+00  0.99999998245E-14  0.12500000000E+03  0.12500000000E+03 0.  0.
        -11    1    3    3    0    0  0.87861452709E+01  0.60896738922E+02  0.20943421985E+01  0.61562938766E+02  0.51100000000E-03 0. -1.
         23    2    1    0    0    0 -0.31253108687E+01  0.30749590475E+02  0.26093205189E+01  0.93982046554E+02  0.88715904090E+02 0.  0.
         11    1    3    3    0    0 -0.11911456140E+02 -0.30147148447E+02  0.51497832039E+00  0.32419107788E+02  0.51100000000E-03 0.  1.
         22    1    1    0    0    0  0.31253108687E+01 -0.30749590475E+02 -0.26093205189E+01  0.31017953446E+02  0.00000000000E+00 0. -1.
</event>
<event>
 5    1  0.8863861E-005  0.9118800E+02  0.7818608E-02  0.1130116E+00
         25   -1    0    0    0    0  0.00000000000E+00  0.00000000000E+00  0.99999998245E-14  0.12500000000E+03  0.12500000000E+03 0.  0.
        -11    1    3    3    0    0  0.29547212049E+02 -0.97428554567E+01 -0.35131490926E+02  0.46927418715E+02  0.51100000000E-03 0. -1.
         23    2    1    0    0    0 -0.16139622509E+02 -0.13304198735E+02 -0.22103710132E+02  0.94568714777E+02  0.89538699422E+02 0.  0.
         11    1    3    3    0    0 -0.45686834558E+02 -0.35613432779E+01  0.13027780793E+02  0.47641296062E+02  0.51100000000E-03 0.  1.
         22    1    1    0    0    0  0.16139622509E+02  0.13304198735E+02  0.22103710132E+02  0.30431285223E+02  0.00000000000E+00 0. -1.
</event>
<event>
 5    1  0.8863861E-005  0.9118800E+02  0.7818608E-02  0.1130116E+00
         25   -1    0    0    0    0  0.00000000000E+00  0.00000000000E+00  0.99999998245E-14  0.12500000000E+03  0.12500000000E+03 0.  0.
        -11    1    3    3    0    0 -0.13033914711E+02 -0.19138731252E+02  0.52914246941E+02  0.57758908371E+02  0.51100000000E-03 0.  1.
         23    2    1    0    0    0  0.10521207559E+02 -0.52856632971E+01  0.27535417061E+02  0.95052825881E+02  0.90212008459E+02 0.  0.
         11    1    3    3    0    0  0.23555122270E+02  0.13853067955E+02 -0.25378829879E+02  0.37293917510E+02  0.51100000000E-03 0. -1.
         22    1    1    0    0    0 -0.10521207559E+02  0.52856632971E+01 -0.27535417061E+02  0.29947174119E+02  0.00000000000E+00 0.  1.
</event>
<event>
 5    1  0.8863861E-005  0.9118800E+02  0.7818608E-02  0.1130116E+00
         25   -1    0    0    0    0  0.00000000000E+00  0.00000000000E+00  0.99999998245E-14  0.12500000000E+03  0.12500000000E+03 0.  0.
        -11    1    3    3    0    0  0.21460691113E+02  0.11699986944E+02 -0.28968858389E+02  0.37903109558E+02  0.51100000000E-03 0.  1.
         23    2    1    0    0    0 -0.15710234265E+02 -0.23920933040E+02 -0.12966017098E+01  0.96352073825E+02  0.91994665368E+02 0.  0.
         11    1    3    3    0    0 -0.37170925378E+02 -0.35620919984E+02  0.27672256679E+02  0.58448964267E+02  0.51100000000E-03 0. -1.
         22    1    1    0    0    0  0.15710234265E+02  0.23920933040E+02  0.12966017098E+01  0.28647926175E+02  0.00000000000E+00 0. -1.
</event>
<event>
 5    1  0.8863861E-005  0.9118800E+02  0.7818608E-02  0.1130116E+00
         25   -1    0    0    0    0  0.00000000000E+00  0.00000000000E+00  0.99999998245E-14  0.12500000000E+03  0.12500000000E+03 0.  0.
        -11    1    3    3    0    0 -0.61997535392E+01  0.32252669618E+02  0.15550649259E+02  0.36338606661E+02  0.51100000000E-03 0.  1.
         23    2    1    0    0    0  0.24132817182E+02 -0.41841672328E+01 -0.18157865291E+02  0.94510523250E+02  0.89457424580E+02 0.  0.
         11    1    3    3    0    0  0.30332570721E+02 -0.36436836851E+02 -0.33708514550E+02  0.58171916589E+02  0.51100000000E-03 0. -1.
         22    1    1    0    0    0 -0.24132817182E+02  0.41841672328E+01  0.18157865291E+02  0.30489476750E+02  0.00000000000E+00 0. -1.
</event>
<event>
 5    1  0.8863861E-005  0.9118800E+02  0.7818608E-02  0.1130116E+00
         25   -1    0    0    0    0  0.00000000000E+00  0.00000000000E+00  0.99999998245E-14  0.12500000000E+03  0.12500000000E+03 0.  0.
        -11    1    3    3    0    0  0.23132984861E+02  0.27463717215E+01  0.50633930791E+02  0.55735738030E+02  0.51100000000E-03 0. -1.
         23    2    1    0    0    0 -0.64246485280E+01 -0.94478848574E+01  0.27558242364E+02  0.95167210000E+02  0.90370362951E+02 0.  0.
         11    1    3    3    0    0 -0.29557633389E+02 -0.12194256579E+02 -0.23075688426E+02  0.39431471969E+02  0.51100000000E-03 0.  1.
         22    1    1    0    0    0  0.64246485280E+01  0.94478848574E+01 -0.27558242364E+02  0.29832790000E+02  0.00000000000E+00 0.  1.
</event>
<event>
 5    1  0.8863861E-005  0.9118800E+02  0.7818608E-02  0.1130116E+00
         25   -1    0    0    0    0  0.00000000000E+00  0.00000000000E+00  0.99999998245E-14  0.12500000000E+03  0.12500000000E+03 0.  0.
        -11    1    3    3    0    0  0.29941932892E+02 -0.69217678192E+01 -0.40016992596E+02  0.50455821386E+02  0.51100000000E-03 0. -1.
         23    2    1    0    0    0 -0.21264818584E+01 -0.25457985539E+02 -0.12760832586E+02  0.96443568131E+02  0.92118901604E+02 0.  0.
         11    1    3    3    0    0 -0.32068414750E+02 -0.18536217720E+02  0.27256160010E+02  0.45987746745E+02  0.51100000000E-03 0.  1.
         22    1    1    0    0    0  0.21264818584E+01  0.25457985539E+02  0.12760832586E+02  0.28556431869E+02  0.00000000000E+00 0. -1.
</event>
<event>
 5    1  0.8863861E-005  0.9118800E+02  0.7818608E-02  0.1130116E+00
         25   -1    0    0    0    0  0.00000000000E+00  0.00000000000E+00  0.99999998245E-14  0.12500000000E+03  0.12500000000E+03 0.  0.
        -11    1    3    3    0    0 -0.60145977255E+02 -0.11151744104E+02  0.11247637964E+02  0.62196537979E+02  0.51100000000E-03 0. -1.
         23    2    1    0    0    0 -0.25326483976E+02 -0.68088816509E+01  0.86612331942E+01  0.97381009788E+02  0.93382291934E+02 0.  0.
         11    1    3    3    0    0  0.34819493280E+02  0.43428624529E+01 -0.25864047702E+01  0.35184471808E+02  0.51100000000E-03 0.  1.
         22    1    1    0    0    0  0.25326483976E+02  0.68088816509E+01 -0.86612331942E+01  0.27618990212E+02  0.00000000000E+00 0. -1.
</event>
<event>
 5    1  0.8863861E-005  0.9118800E+02  0.7818608E-02  0.1130116E+00
         25   -1    0    0    0    0  0.00000000000E+00  0.00000000000E+00  0.99999998245E-14  0.12500000000E+03  0.12500000000E+03 0.  0.
        -11    1    3    3    0    0  0.16632208396E+01 -0.63100015173E+01 -0.57676097774E+02  0.58044075300E+02  0.51100000000E-03 0.  1.
         23    2    1    0    0    0  0.16756000585E+02  0.64844172653E+00 -0.22598081906E+02  0.96860040190E+02  0.92682307090E+02 0.  0.
         11    1    3    3    0    0  0.15092779746E+02  0.69584432438E+01  0.35078015868E+02  0.38815964890E+02  0.51100000000E-03 0. -1.
         22    1    1    0    0    0 -0.16756000585E+02 -0.64844172653E+00  0.22598081906E+02  0.28139959810E+02  0.00000000000E+00 0.  1.
</event>
<event>
 5    1  0.8863861E-005  0.9118800E+02  0.7818608E-02  0.1130116E+00
         25   -1    0    0    0    0  0.00000000000E+00  0.00000000000E+00  0.99999998245E-14  0.12500000000E+03  0.12500000000E+03 0.  0.
        -11    1    3    3    0    0 -0.40419410845E+01 -0.31855140090E+02  0.52485558361E+02  0.61529026277E+02  0.51100000000E-03 0.  1.
         23    2    1    0    0    0  0.24564928040E+01 -0.84760972185E+01  0.26438313917E+02  0.97127737377E+02  0.93042647986E+02 0.  0.
         11    1    3    3    0    0  0.64984338885E+01  0.23379042872E+02 -0.26047244444E+02  0.35598711100E+02  0.51100000000E-03 0. -1.
         22    1    1    0    0    0 -0.24564928040E+01  0.84760972185E+01 -0.26438313917E+02  0.27872262623E+02  0.00000000000E+00 0.  1.
</event>
<event>
 5    1  0.8863861E-005  0.9118800E+02  0.7818608E-02  0.1130116E+00
         25   -1    0    0    0    0  0.00000000000E+00  0.00000000000E+00  0.99999998245E-14  0.12500000000E+03  0.12500000000E+03 0.  0.
        -11    1    3    3    0    0  0.17520555575E+01 -0.15004024221E+02 -0.45347653983E+02  0.47797491184E+02  0.51100000000E-03 0.  1.
         23    2    1    0    0    0  0.19725826521E+02  0.15914455594E+02 -0.11043508715E+02  0.97353350773E+02  0.93345260689E+02 0.  0.
         11    1    3    3    0    0  0.17973770963E+02  0.30918479815E+02  0.34304145268E+02  0.49555859588E+02  0.51100000000E-03 0. -1.
         22    1    1    0    0    0 -0.19725826521E+02 -0.15914455594E+02  0.11043508715E+02  0.27646649227E+02  0.00000000000E+00 0.  1.
</event>
<event>
 5    1  0.8863861E-005  0.9118800E+02  0.7818608E-02  0.1130116E+00
         25   -1    0    0    0    0  0.00000000000E+00  0.00000000000E+00  0.99999998245E-14  0.12500000000E+03  0.12500000000E+03 0.  0.
        -11    1    3    3    0    0  0.17530720847E+02  0.35280816706E+02 -0.24678787879E+02  0.46487684092E+02  0.51100000000E-03 0.  1.
         23    2    1    0    0    0 -0.23303225900E+02  0.16475940793E+02 -0.32924449811E+01  0.96271318229E+02  0.91884871209E+02 0.  0.
         11    1    3    3    0    0 -0.40833946747E+02 -0.18804875912E+02  0.21386342898E+02  0.49783634136E+02  0.51100000000E-03 0. -1.
         22    1    1    0    0    0  0.23303225900E+02 -0.16475940793E+02  0.32924449811E+01  0.28728681771E+02  0.00000000000E+00 0. -1.
</event>
<event>
 5    1  0.8863861E-005  0.9118800E+02  0.7818608E-02  0.1130116E+00
         25   -1    0    0    0    0  0.00000000000E+00  0.00000000000E+00  0.99999998245E-14  0.12500000000E+03  0.12500000000E+03 0.  0.
        -11    1    3    3    0    0 -0.20898780786E+02  0.39217414905E+02  0.41842618112E+02  0.61037442287E+02  0.51100000000E-03 0.  1.
         23    2    1    0    0    0 -0.13358362250E+02  0.22733264066E+02  0.11828164064E+02  0.96100993059E+02  0.91652868284E+02 0.  0.
         11    1    3    3    0    0  0.75404185368E+01 -0.16484150839E+02 -0.30014454048E+02  0.35063550771E+02  0.51100000000E-03 0. -1.
         22    1    1    0    0    0  0.13358362250E+02 -0.22733264066E+02 -0.11828164064E+02  0.28899006941E+02  0.00000000000E+00 0.  1.
</event>
<event>
 5    1  0.8863861E-005  0.9118800E+02  0.7818608E-02  0.1130116E+00
         25   -1    0    0    0    0  0.00000000000E+00  0.00000000000E+00  0.99999998245E-14  0.12500000000E+03  0.12500000000E+03 0.  0.
        -11    1    3    3    0    0 -0.35925133473E+02  0.19946540632E+02 -0.36186526211E+02  0.54753487357E+02  0.51100000000E-03 0.  1.
         23    2    1    0    0    0 -0.32879064382E+02  0.67256533151E+00 -0.47230886091E+01  0.91776622918E+02  0.85552064437E+02 0.  0.
         11    1    3    3    0    0  0.30460690910E+01 -0.19273975301E+02  0.31463437602E+02  0.37023135561E+02  0.51100000000E-03 0. -1.
         22    1    1    0    0    0  0.32879064382E+02 -0.67256533151E+00  0.47230886091E+01  0.33223377082E+02  0.00000000000E+00 0.  1.
</event>
<event>
 5    1  0.8863861E-005  0.9118800E+02  0.7818608E-02  0.1130116E+00
         25   -1    0    0    0    0  0.00000000000E+00  0.00000000000E+00  0.99999998245E-14  0.12500000000E+03  0.12500000000E+03 0.  0.
        -11    1    3    3    0    0  0.89691477895E+01  0.24205140813E+02  0.20405760109E+02  0.32904855261E+02  0.51100000000E-03 0. -1.
         23    2    1    0    0    0 -0.16401070492E+02 -0.93826233249E+01 -0.24240565630E+02  0.94265105242E+02  0.89113839051E+02 0.  0.
         11    1    3    3    0    0 -0.25370218282E+02 -0.33587764138E+02 -0.44646325739E+02  0.61360249981E+02  0.51100000000E-03 0.  1.
         22    1    1    0    0    0  0.16401070492E+02  0.93826233249E+01  0.24240565630E+02  0.30734894758E+02  0.00000000000E+00 0.  1.
</event>
<event>
 5    1  0.8863861E-005  0.9118800E+02  0.7818608E-02  0.1130116E+00
         25   -1    0    0    0    0  0.00000000000E+00  0.00000000000E+00  0.99999998245E-14  0.12500000000E+03  0.12500000000E+03 0.  0.
        -11    1    3    3    0    0  0.26172068882E+01 -0.35421927061E+02  0.23102490939E+01  0.35593537894E+02  0.51100000000E-03 0. -1.
         23    2    1    0    0    0  0.21409836751E+02  0.20667245206E+02 -0.35249491849E+01  0.95034329628E+02  0.90186375950E+02 0.  0.
         11    1    3    3    0    0  0.18792629863E+02  0.56089172267E+02 -0.58351982788E+01  0.59440791734E+02  0.51100000000E-03 0.  1.
         22    1    1    0    0    0 -0.21409836751E+02 -0.20667245206E+02  0.35249491849E+01  0.29965670372E+02  0.00000000000E+00 0.  1.
</event>
<event>
 5    1  0.8863861E-005  0.9118800E+02  0.7818608E-02  0.1130116E+00
         25   -1    0    0    0    0  0.00000000000E+00  0.00000000000E+00  0.99999998245E-14  0.12500000000E+03  0.12500000000E+03 0.  0.
        -11    1    3    3    0    0 -0.46777990601E+02  0.11327071583E+02 -0.29373098959E+02  0.56384943895E+02  0.51100000000E-03 0.  1.
         23    2    1    0    0    0 -0.25313226348E+02 -0.13760530800E+02 -0.11077437903E+02  0.94132196928E+02  0.88927213113E+02 0.  0.
         11    1    3    3    0    0  0.21464764254E+02 -0.25087602383E+02  0.18295661056E+02  0.37747253033E+02  0.51100000000E-03 0. -1.
         22    1    1    0    0    0  0.25313226348E+02  0.13760530800E+02  0.11077437903E+02  0.30867803072E+02  0.00000000000E+00 0.  1.
</event>
<event>
 5    1  0.8863861E-005  0.9118800E+02  0.7818608E-02  0.1130116E+00
         25   -1    0    0    0    0  0.00000000000E+00  0.00000000000E+00  0.99999998245E-14  0.12500000000E+03  0.12500000000E+03 0.  0.
        -11    1    3    3    0    0 -0.39039824069E+02 -0.13781634448E+02 -0.10926137009E+02  0.42818474770E+02  0.51100000000E-03 0. -1.
         23    2    1    0    0    0 -0.97524063920E+01  0.28063922479E+02  0.10161668705E+01  0.95272474532E+02  0.90515847413E+02 0.  0.
         11    1    3    3    0    0  0.29287417677E+02  0.41845556928E+02  0.11942303880E+02  0.52453999762E+02  0.51100000000E-03 0.  1.
         22    1    1    0    0    0  0.97524063920E+01 -0.28063922479E+02 -0.10161668705E+01  0.29727525468E+02  0.00000000000E+00 0.  1.
</event>
<event>
 5    1  0.8863861E-005  0.9118800E+02  0.7818608E-02  0.1130116E+00
         25   -1    0    0    0    0  0.00000000000E+00  0.00000000000E+00  0.99999998245E-14  0.12500000000E+03  0.12500000000E+03 0.  0.
        -11    1    3    3    0    0 -0.35978543764E+02 -0.32930539183E+02 -0.24964936086E+02  0.54791642213E+02  0.51100000000E-03 0.  1.
         23    2    1    0    0    0 -0.17938225003E+02  0.30302527527E+01 -0.23803395544E+02  0.95040627719E+02  0.90195104800E+02 0.  0.
         11    1    3    3    0    0  0.18040318761E+02  0.35960791936E+02  0.11615405423E+01  0.40248985507E+02  0.51100000000E-03 0. -1.
         22    1    1    0    0    0  0.17938225003E+02 -0.30302527527E+01  0.23803395544E+02  0.29959372281E+02  0.00000000000E+00 0.  1.
</event>
<event>
 5    1  0.8863861E-005  0.9118800E+02  0.7818608E-02  0.1130116E+00
         25   -1    0    0    0    0  0.00000000000E+00  0.00000000000E+00  0.99999998245E-14  0.12500000000E+03  0.12500000000E+03 0.  0.
        -11    1    3    3    0    0  0.35560565317E+02 -0.42578423049E+02  0.16103940925E+01  0.55498371908E+02  0.51100000000E-03 0. -1.
         23    2    1    0    0    0  0.15497984702E+02 -0.14195925900E+02  0.20992700659E+02  0.95294692007E+02  0.90546523963E+02 0.  0.
         11    1    3    3    0    0 -0.20062580615E+02  0.28382497149E+02  0.19382306567E+02  0.39796320099E+02  0.51100000000E-03 0.  1.
         22    1    1    0    0    0 -0.15497984702E+02  0.14195925900E+02 -0.20992700659E+02  0.29705307993E+02  0.00000000000E+00 0. -1.
</event>
<event>
 5    1  0.8863861E-005  0.9118800E+02  0.7818608E-02  0.1130116E+00
         25   -1    0    0    0    0  0.00000000000E+00  0.00000000000E+00  0.99999998245E-14  0.12500000000E+03  0.12500000000E+03 0.  0.
        -11    1    3    3    0    0  0.23613874335E+02  0.34048068188E+02  0.24220192874E+01  0.41506049994E+02  0.51100000000E-03 0.  1.
         23    2    1    0    0    0 -0.12819682011E+02  0.52738849257E+01  0.27449989725E+02  0.94248413943E+02  0.89090423087E+02 0.  0.
         11    1    3    3    0    0 -0.36433556346E+02 -0.28774183262E+02  0.25027970438E+02  0.52742363949E+02  0.51100000000E-03 0. -1.
         22    1    1    0    0    0  0.12819682011E+02 -0.52738849257E+01 -0.27449989725E+02  0.30751586057E+02  0.00000000000E+00 0. -1.
</event>
<event>
 5    1  0.8863861E-005  0.9118800E+02  0.7818608E-02  0.1130116E+00
         25   -1    0    0    0    0  0.00000000000E+00  0.00000000000E+00  0.99999998245E-14  0.12500000000E+03  0.12500000000E+03 0.  0.
        -11    1    3    3    0    0  0.11921037950E+02  0.27158671580E+02 -0.24901230713E+02  0.38726939965E+02  0.51100000000E-03 0.  1.
         23    2    1    0    0    0 -0.14100745484E+02 -0.22490429393E+02 -0.81994362053E+01  0.97217250108E+02  0.93162828032E+02 0.  0.
         11    1    3    3    0    0 -0.26021783434E+02 -0.49649100973E+02  0.16701794508E+02  0.58490310142E+02  0.51100000000E-03 0. -1.
         22    1    1    0    0    0  0.14100745484E+02  0.22490429393E+02  0.81994362053E+01  0.27782749892E+02  0.00000000000E+00 0. -1.
</event>
<event>
 5    1  0.8863861E-005  0.9118800E+02  0.7818608E-02  0.1130116E+00
         25   -1    0    0    0    0  0.00000000000E+00  0.00000000000E+00  0.99999998245E-14  0.12500000000E+03  0.12500000000E+03 0.  0.
        -11    1    3    3    0    0 -0.32949326201E+02  0.19578559018E+02  0.41791972949E+02  0.56705794003E+02  0.51100000000E-03 0. -1.
         23    2    1    0    0    0 -0.19941956810E+02 -0.95397181336E+01  0.16283962346E+02  0.97543574647E+02  0.93599645628E+02 0.  0.
         11    1    3    3    0    0  0.13007369391E+02 -0.29118277152E+02 -0.25508010602E+02  0.40837780644E+02  0.51100000000E-03 0.  1.
         22    1    1    0    0    0  0.19941956810E+02  0.95397181336E+01 -0.16283962346E+02  0.27456425353E+02  0.00000000000E+00 0. -1.
</event>
<event>
 5    1  0.8863861E-005  0.9118800E+02  0.7818608E-02  0.1130116E+00
         25   -1    0    0    0    0  0.00000000000E+00  0.00000000000E+00  0.99999998245E-14  0.12500000000E+03  0.12500000000E+03 0.  0.
        -11    1    3    3    0    0  0.13414208041E+02 -0.39858868784E+02  0.42430979215E+02  0.59741596861E+02  0.51100000000E-03 0. -1.
         23    2    1    0    0    0  0.91482286770E+01 -0.26766394673E+02  0.99608454603E+01  0.95010861733E+02  0.90153843141E+02 0.  0.
         11    1    3    3    0    0 -0.42659793645E+01  0.13092474110E+02 -0.32470133755E+02  0.35269264872E+02  0.51100000000E-03 0.  1.
         22    1    1    0    0    0 -0.91482286770E+01  0.26766394673E+02 -0.99608454603E+01  0.29989138267E+02  0.00000000000E+00 0. -1.
</event>
<event>
 5    1  0.8863861E-005  0.9118800E+02  0.7818608E-02  0.1130116E+00
         25   -1    0    0    0    0  0.00000000000E+00  0.00000000000E+00  0.99999998245E-14  0.12500000000E+03  0.12500000000E+03 0.  0.
        -11    1    3    3    0    0  0.18710309335E+02 -0.18306654257E+01 -0.30395159639E+02  0.35739232519E+02  0.51100000000E-03 0.  1.
         23    2    1    0    0    0 -0.14508286853E+02 -0.21430047247E+02  0.14826083404E+02  0.95174674159E+02  0.90380686764E+02 0.  0.
         11    1    3    3    0    0 -0.33218596188E+02 -0.19599381821E+02  0.45221243042E+02  0.59435441641E+02  0.51100000000E-03 0. -1.
         22    1    1    0    0    0  0.14508286853E+02  0.21430047247E+02 -0.14826083404E+02  0.29825325841E+02  0.00000000000E+00 0. -1.
</event>
<event>
 4    1  0.8863861E-005  0.9118800E+02  0.7818608E-02  0.1130116E+00
         25   -1    0    0    0    0  0.00000000000E+00  0.00000000000E+00  0.99999998245E-14  0.12500000000E+03  0.12500000000E+03 0.  0.
        -11    1    1    0    0    0 -0.31324104818E+02 -0.20406856983E+02  0.22259947029E+02  0.43510281504E+02  0.51100000000E-03 0.  1.
         11    1    1    0    0    0  0.43997702145E+01 -0.25097979049E+02 -0.84034331203E+01  0.26830658187E+02  0.51100000000E-03 0. -1.
         22    1    1    0    0    0  0.26924334603E+02  0.45504836032E+02 -0.13856513909E+02  0.54659060309E+02  0.00000000000E+00 0. -1.
</event>
<event>
 5    1  0.8863861E-005  0.9118800E+02  0.7818608E-02  0.1130116E+00
         25   -1    0    0    0    0  0.00000000000E+00  0.00000000000E+00  0.99999998245E-14  0.12500000000E+03  0.12500000000E+03 0.  0.
        -11    1    3    3    0    0 -0.22208378206E+02 -0.39221639165E+02  0.38427835673E+02  0.59230461725E+02  0.51100000000E-03 0.  1.
         23    2    1    0    0    0  0.25082977033E+01 -0.23786549354E+02  0.20905081017E+02  0.93233446836E+02  0.87654787143E+02 0.  0.
         11    1    3    3    0    0  0.24716675909E+02  0.15435089811E+02 -0.17522754656E+02  0.34002985111E+02  0.51100000000E-03 0. -1.
         22    1    1    0    0    0 -0.25082977033E+01  0.23786549354E+02 -0.20905081017E+02  0.31766553164E+02  0.00000000000E+00 0.  1.
</event>
<event>
 5    1  0.8863861E-005  0.9118800E+02  0.7818608E-02  0.1130116E+00
         25   -1    0    0    0    0  0.00000000000E+00  0.00000000000E+00  0.99999998245E-14  0.12500000000E+03  0.12500000000E+03 0.  0.
        -11    1    3    3    0    0  0.14158855518E+02  0.30589263405E+02  0.22362084109E+02  0.40450451558E+02  0.51100000000E-03 0.  1.
         23    2    1    0    0    0 -0.42950367609E+01 -0.22367876721E+02  0.16579680707E+02  0.96828115751E+02  0.92639240810E+02 0.  0.
         11    1    3    3    0    0 -0.18453892279E+02 -0.52957140126E+02 -0.57824034023E+01  0.56377664194E+02  0.51100000000E-03 0. -1.
         22    1    1    0    0    0  0.42950367609E+01  0.22367876721E+02 -0.16579680707E+02  0.28171884249E+02  0.00000000000E+00 0. -1.
</event>
<event>
 5    1  0.8863861E-005  0.9118800E+02  0.7818608E-02  0.1130116E+00
         25   -1    0    0    0    0  0.00000000000E+00  0.00000000000E+00  0.99999998245E-14  0.12500000000E+03  0.12500000000E+03 0.  0.
        -11    1    3    3    0    0 -0.45062214335E+02 -0.21261283083E+02 -0.28362410267E+02  0.57332989068E+02  0.51100000000E-03 0. -1.
         23    2    1    0    0    0 -0.40897424726E+02 -0.23859166951E+02 -0.96501925024E+01  0.76678313232E+02  0.59536361226E+02 0.  0.
         11    1    3    3    0    0  0.41647896090E+01 -0.25978838672E+01  0.18712217765E+02  0.19345324164E+02  0.51100000000E-03 0.  1.
         22    1    1    0    0    0  0.40897424726E+02  0.23859166951E+02  0.96501925024E+01  0.48321686768E+02  0.00000000000E+00 0. -1.
</event>
<event>
 5    1  0.8863861E-005  0.9118800E+02  0.7818608E-02  0.1130116E+00
         25   -1    0    0    0    0  0.00000000000E+00  0.00000000000E+00  0.99999998245E-14  0.12500000000E+03  0.12500000000E+03 0.  0.
        -11    1    3    3    0    0  0.44929752321E+02 -0.15552602152E+02 -0.95317805526E+01  0.48491452010E+02  0.51100000000E-03 0. -1.
         23    2    1    0    0    0  0.28894673586E+01 -0.29023046737E+02  0.58736894284E+01  0.95247916190E+02  0.90481926635E+02 0.  0.
         11    1    3    3    0    0 -0.42040284962E+02 -0.13470444585E+02  0.15405469981E+02  0.46756464180E+02  0.51100000000E-03 0.  1.
         22    1    1    0    0    0 -0.28894673586E+01  0.29023046737E+02 -0.58736894284E+01  0.29752083810E+02  0.00000000000E+00 0. -1.
</event>
<event>
 5    1  0.8863861E-005  0.9118800E+02  0.7818608E-02  0.1130116E+00
         25   -1    0    0    0    0  0.00000000000E+00  0.00000000000E+00  0.99999998245E-14  0.12500000000E+03  0.12500000000E+03 0.  0.
        -11    1    3    3    0    0 -0.22566249955E+02 -0.39271946372E+01  0.31153595572E+02  0.38667880884E+02  0.51100000000E-03 0.  1.
         23    2    1    0    0    0  0.26932208532E+02  0.90935773460E+01  0.50271560288E+01  0.96132902759E+02  0.91696377736E+02 0.  0.
         11    1    3    3    0    0  0.49498458487E+02  0.13020771983E+02 -0.26126439543E+02  0.57465021875E+02  0.51100000000E-03 0. -1.
         22    1    1    0    0    0 -0.26932208532E+02 -0.90935773460E+01 -0.50271560288E+01  0.28867097241E+02  0.00000000000E+00 0. -1.
</event>
<event>
 5    1  0.8863861E-005  0.9118800E+02  0.7818608E-02  0.1130116E+00
         25   -1    0    0    0    0  0.00000000000E+00  0.00000000000E+00  0.99999998245E-14  0.12500000000E+03  0.12500000000E+03 0.  0.
        -11    1    3    3    0    0 -0.50509218481E+02 -0.23584486304E+02  0.17128613729E+02  0.58316366093E+02  0.51100000000E-03 0. -1.
         23    2    1    0    0    0 -0.20366833800E+02 -0.19300241106E+02 -0.56976220674E+01  0.96368371982E+02  0.92016808222E+02 0.  0.
         11    1    3    3    0    0  0.30142384682E+02  0.42842451978E+01 -0.22826235797E+02  0.38052005888E+02  0.51100000000E-03 0.  1.
         22    1    1    0    0    0  0.20366833800E+02  0.19300241106E+02  0.56976220674E+01  0.28631628018E+02  0.00000000000E+00 0. -1.
</event>
<event>
 5    1  0.8863861E-005  0.9118800E+02  0.7818608E-02  0.1130116E+00
         25   -1    0    0    0    0  0.00000000000E+00  0.00000000000E+00  0.99999998245E-14  0.12500000000E+03  0.12500000000E+03 0.  0.
        -11    1    3    3    0    0  0.32044998245E+02 -0.47925346514E+01  0.18253823935E+02  0.37189412329E+02  0.51100000000E-03 0. -1.
         23    2    1    0    0    0 -0.89480983394E+01 -0.43606117677E+01 -0.25787518494E+02  0.97358011849E+02  0.93351502196E+02 0.  0.
         11    1    3    3    0    0 -0.40993096584E+02  0.43192288377E+00 -0.44041342429E+02  0.60168599519E+02  0.51100000000E-03 0.  1.
         22    1    1    0    0    0  0.89480983394E+01  0.43606117677E+01  0.25787518494E+02  0.27641988151E+02  0.00000000000E+00 0.  1.
</event>
<event>
 5    1  0.8863861E-005  0.9118800E+02  0.7818608E-02  0.1130116E+00
         25   -1    0    0    0    0  0.00000000000E+00  0.00000000000E+00  0.99999998245E-14  0.12500000000E+03  0.12500000000E+03 0.  0.
        -11    1    3    3    0    0  0.41472271143E+02  0.21838219964E+01  0.37868981616E+02  0.56203008115E+02  0.51100000000E-03 0. -1.
         23    2    1    0    0    0  0.11725770407E+02  0.19341367565E+02  0.19439901774E+02  0.95175648005E+02  0.90382033620E+02 0.  0.
         11    1    3    3    0    0 -0.29746500736E+02  0.17157545569E+02 -0.18429079842E+02  0.38972639891E+02  0.51100000000E-03 0.  1.
         22    1    1    0    0    0 -0.11725770407E+02 -0.19341367565E+02 -0.19439901774E+02  0.29824351995E+02  0.00000000000E+00 0. -1.
</event>
<event>
 5    1  0.8863861E-005  0.9118800E+02  0.7818608E-02  0.1130116E+00
         25   -1    0    0    0    0  0.00000000000E+00  0.00000000000E+00  0.99999998245E-14  0.12500000000E+03  0.12500000000E+03 0.  0.
        -11    1    3    3    0    0  0.46118070359E+02 -0.19105198470E+02  0.36985181311E+02  0.62127197419E+02  0.51100000000E-03 0. -1.
         23    2    1    0    0    0  0.20791044911E+02 -0.12561250966E+02  0.21721729846E+02  0.92413405796E+02  0.86477462087E+02 0.  0.
         11    1    3    3    0    0 -0.25327025448E+02  0.65439475044E+01 -0.15263451465E+02  0.30286208377E+02  0.51100000000E-03 0.  1.
         22    1    1    0    0    0 -0.20791044911E+02  0.12561250966E+02 -0.21721729846E+02  0.32586594204E+02  0.00000000000E+00 0. -1.
</event>
<event>
 5    1  0.8863861E-005  0.9118800E+02  0.7818608E-02  0.1130116E+00
         25   -1    0    0    0    0  0.00000000000E+00  0.00000000000E+00  0.99999998245E-14  0.12500000000E+03  0.12500000000E+03 0.  0.
        -11    1    3    3    0    0  0.12771895373E+00 -0.29237781916E+02  0.17047128043E+02  0.33844774756E+02  0.51100000000E-03 0.  1.
         23    2    1    0    0    0  0.13826494556E+02  0.27205254348E+02 -0.36648127148E+00  0.94480627065E+02  0.89415640501E+02 0.  0.
         11    1    3    3    0    0  0.13698775602E+02  0.56443036263E+02 -0.17413609315E+02  0.60635852309E+02  0.51100000000E-03 0. -1.
         22    1    1    0    0    0 -0.13826494556E+02 -0.27205254348E+02  0.36648127148E+00  0.30519372935E+02  0.00000000000E+00 0. -1.
</event>
<event>
 5    1  0.8863861E-005  0.9118800E+02  0.7818608E-02  0.1130116E+00
         25   -1    0    0    0    0  0.00000000000E+00  0.00000000000E+00  0.99999998245E-14  0.12500000000E+03  0.12500000000E+03 0.  0.
        -11    1    3    3    0    0  0.32212718497E+02 -0.19649436011E+02  0.93762715703E+01  0.38880252537E+02  0.51100000000E-03 0.  1.
         23    2    1    0    0    0  0.41148233845E+01  0.27397580881E+02 -0.76413291760E+01  0.96260669437E+02  0.91870383472E+02 0.  0.
         11    1    3    3    0    0 -0.28097895113E+02  0.47047016892E+02 -0.17017600746E+02  0.57380416900E+02  0.51100000000E-03 0. -1.
         22    1    1    0    0    0 -0.41148233845E+01 -0.27397580881E+02  0.76413291760E+01  0.28739330563E+02  0.00000000000E+00 0. -1.
</event>
<event>
 5    1  0.8863861E-005  0.9118800E+02  0.7818608E-02  0.1130116E+00
         25   -1    0    0    0    0  0.00000000000E+00  0.00000000000E+00  0.99999998245E-14  0.12500000000E+03  0.12500000000E+03 0.  0.
        -11    1    3    3    0    0 -0.20546703909E+02 -0.25335375519E+02  0.34574903885E+02  0.47533906562E+02  0.51100000000E-03 0.  1.
         23    2    1    0    0    0 -0.17230187346E+02  0.18537110508E+02  0.11816747131E+02  0.97069025532E+02  0.92963736925E+02 0.  0.
         11    1    3    3    0    0  0.33165165627E+01  0.43872486026E+02 -0.22758156754E+02  0.49535118970E+02  0.51100000000E-03 0. -1.
         22    1    1    0    0    0  0.17230187346E+02 -0.18537110508E+02 -0.11816747131E+02  0.27930974468E+02  0.00000000000E+00 0. -1.
</event>
<event>
 5    1  0.8863861E-005  0.9118800E+02  0.7818608E-02  0.1130116E+00
         25   -1    0    0    0    0  0.00000000000E+00  0.00000000000E+00  0.99999998245E-14  0.12500000000E+03  0.12500000000E+03 0.  0.
        -11    1    3    3    0    0  0.21397605946E+02  0.12371559043E+02  0.28211019716E+02  0.37506994641E+02  0.51100000000E-03 0. -1.
         23    2    1    0    0    0  0.13595950216E+02  0.30005523824E+01 -0.27307020113E+02  0.94348303076E+02  0.89230464355E+02 0.  0.
         11    1    3    3    0    0 -0.78016557294E+01 -0.93710066604E+01 -0.55518039828E+02  0.56841308435E+02  0.51100000000E-03 0.  1.
         22    1    1    0    0    0 -0.13595950216E+02 -0.30005523824E+01  0.27307020113E+02  0.30651696924E+02  0.00000000000E+00 0.  1.
</event>
<event>
 5    1  0.8863861E-005  0.9118800E+02  0.7818608E-02  0.1130116E+00
         25   -1    0    0    0    0  0.00000000000E+00  0.00000000000E+00  0.99999998245E-14  0.12500000000E+03  0.12500000000E+03 0.  0.
        -11    1    3    3    0    0 -0.42567945065E+02  0.31416634437E+01 -0.38386323001E+02  0.57405659913E+02  0.51100000000E-03 0. -1.
         23    2    1    0    0    0 -0.17736651910E+02 -0.16304719912E+02 -0.16167360616E+02  0.95985929936E+02  0.91495805827E+02 0.  0.
         11    1    3    3    0    0  0.24831293154E+02 -0.19446383356E+02  0.22218962385E+02  0.38580270023E+02  0.51100000000E-03 0.  1.
         22    1    1    0    0    0  0.17736651910E+02  0.16304719912E+02  0.16167360616E+02  0.29014070064E+02  0.00000000000E+00 0. -1.
</event>
<event>
 5    1  0.8863861E-005  0.9118800E+02  0.7818608E-02  0.1130116E+00
         25   -1    0    0    0    0  0.00000000000E+00  0.00000000000E+00  0.99999998245E-14  0.12500000000E+03  0.12500000000E+03 0.  0.
        -11    1    3    3    0    0 -0.31420324010E+02  0.22723284157E+02 -0.22933930578E+02  0.45050522480E+02  0.51100000000E-03 0.  1.
         23    2    1    0    0    0  0.11209827219E+02 -0.29214572320E+01 -0.27648649412E+02  0.95022625984E+02  0.90170153022E+02 0.  0.
         11    1    3    3    0    0  0.42630151228E+02 -0.25644741389E+02 -0.47147188339E+01  0.49972103504E+02  0.51100000000E-03 0. -1.
         22    1    1    0    0    0 -0.11209827219E+02  0.29214572320E+01  0.27648649412E+02  0.29977374016E+02  0.00000000000E+00 0. -1.
</event>
<event>
 5    1  0.8863861E-005  0.9118800E+02  0.7818608E-02  0.1130116E+00
         25   -1    0    0    0    0  0.00000000000E+00  0.00000000000E+00  0.99999998245E-14  0.12500000000E+03  0.12500000000E+03 0.  0.
        -11    1    3    3    0    0 -0.13173804890E+02  0.33226482063E+02 -0.49987442753E+02  0.61451547407E+02  0.51100000000E-03 0. -1.
         23    2    1    0    0    0 -0.65695625805E+01  0.77934404470E+01 -0.26166321267E+02  0.96918453833E+02  0.92761055720E+02 0.  0.
         11    1    3    3    0    0  0.66042423090E+01 -0.25433041616E+02  0.23821121486E+02  0.35466906426E+02  0.51100000000E-03 0.  1.
         22    1    1    0    0    0  0.65695625805E+01 -0.77934404470E+01  0.26166321267E+02  0.28081546167E+02  0.00000000000E+00 0. -1.
</event>
<event>
 5    1  0.8863861E-005  0.9118800E+02  0.7818608E-02  0.1130116E+00
         25   -1    0    0    0    0  0.00000000000E+00  0.00000000000E+00  0.99999998245E-14  0.12500000000E+03  0.12500000000E+03 0.  0.
        -11    1    3    3    0    0  0.22961721253E+02  0.20162012439E+02  0.21251222257E+02  0.37220449167E+02  0.51100000000E-03 0. -1.
         23    2    1    0    0    0 -0.18130434372E+02 -0.19206007952E+02  0.15397403522E+02  0.94427734346E+02  0.89341667695E+02 0.  0.
         11    1    3    3    0    0 -0.41092155626E+02 -0.39368020392E+02 -0.58538187346E+01  0.57207285179E+02  0.51100000000E-03 0.  1.
         22    1    1    0    0    0  0.18130434372E+02  0.19206007952E+02 -0.15397403522E+02  0.30572265654E+02  0.00000000000E+00 0.  1.
</event>
<event>
 5    1  0.8863861E-005  0.9118800E+02  0.7818608E-02  0.1130116E+00
         25   -1    0    0    0    0  0.00000000000E+00  0.00000000000E+00  0.99999998245E-14  0.12500000000E+03  0.12500000000E+03 0.  0.
        -11    1    3    3    0    0 -0.38949478904E+02  0.37209252517E+02  0.29269460639E+02  0.61304907684E+02  0.51100000000E-03 0. -1.
         23    2    1    0    0    0 -0.23699691033E+02  0.10851539736E+02  0.14894698143E+02  0.94978619245E+02  0.90109127235E+02 0.  0.
         11    1    3    3    0    0  0.15249787871E+02 -0.26357712781E+02 -0.14374762496E+02  0.33673711560E+02  0.51100000000E-03 0.  1.
         22    1    1    0    0    0  0.23699691033E+02 -0.10851539736E+02 -0.14894698143E+02  0.30021380755E+02  0.00000000000E+00 0. -1.
</event>
<event>
 5    1  0.8863861E-005  0.9118800E+02  0.7818608E-02  0.1130116E+00
         25   -1    0    0    0    0  0.00000000000E+00  0.00000000000E+00  0.99999998245E-14  0.12500000000E+03  0.12500000000E+03 0.  0.
        -11    1    3    3    0    0 -0.67020530447E+01  0.37637947117E+02 -0.28885386793E+02  0.47915531393E+02  0.51100000000E-03 0. -1.
         23    2    1    0    0    0  0.19692373346E+02  0.20947614868E+02  0.69222973629E+01  0.95427879051E+02  0.90730203145E+02 0.  0.
         11    1    3    3    0    0  0.26394426391E+02 -0.16690332250E+02  0.35807684156E+02  0.47512347658E+02  0.51100000000E-03 0.  1.
         22    1    1    0    0    0 -0.19692373346E+02 -0.20947614868E+02 -0.69222973629E+01  0.29572120949E+02  0.00000000000E+00 0. -1.
</event>
<event>
 5    1  0.8863861E-005  0.9118800E+02  0.7818608E-02  0.1130116E+00
         25   -1    0    0    0    0  0.00000000000E+00  0.00000000000E+00  0.99999998245E-14  0.12500000000E+03  0.12500000000E+03 0.  0.
        -11    1    3    3    0    0 -0.22022657681E+02 -0.25613077866E+02  0.58028033429E+01  0.34273892922E+02  0.51100000000E-03 0. -1.
         23    2    1    0    0    0  0.25330376940E+02  0.47994567569E+01 -0.16033481910E+02  0.94639905743E+02  0.89638030076E+02 0.  0.
         11    1    3    3    0    0  0.47353034622E+02  0.30412534623E+02 -0.21836285253E+02  0.60366012822E+02  0.51100000000E-03 0.  1.
         22    1    1    0    0    0 -0.25330376940E+02 -0.47994567569E+01  0.16033481910E+02  0.30360094257E+02  0.00000000000E+00 0.  1.
</event>
<event>
 5    1  0.8863861E-005  0.9118800E+02  0.7818608E-02  0.1130116E+00
         25   -1    0    0    0    0  0.00000000000E+00  0.00000000000E+00  0.99999998245E-14  0.12500000000E+03  0.12500000000E+03 0.  0.
        -11    1    3    3    0    0  0.39653827964E+02 -0.94257071428E+01 -0.52945467136E+01  0.41101122278E+02  0.51100000000E-03 0. -1.
         23    2    1    0    0    0  0.12045664153E+02  0.20520542372E+02  0.23946855671E+02  0.91241407307E+02  0.84766454607E+02 0.  0.
         11    1    3    3    0    0 -0.27608163812E+02  0.29946249515E+02  0.29241402384E+02  0.50140285028E+02  0.51100000000E-03 0.  1.
         22    1    1    0    0    0 -0.12045664153E+02 -0.20520542372E+02 -0.23946855671E+02  0.33758592693E+02  0.00000000000E+00 0.  1.
</event>
<event>
 5    1  0.8863861E-005  0.9118800E+02  0.7818608E-02  0.1130116E+00
         25   -1    0    0    0    0  0.00000000000E+00  0.00000000000E+00  0.99999998245E-14  0.12500000000E+03  0.12500000000E+03 0.  0.
        -11    1    3    3    0    0 -0.35948289127E+02  0.17189824367E+02  0.41747366362E+02  0.57711455981E+02  0.51100000000E-03 0.  1.
         23    2    1    0    0    0 -0.32552997329E+01  0.60527238691E+01  0.30046453434E+02  0.94177576239E+02  0.88990977406E+02 0.  0.
         11    1    3    3    0    0  0.32692989394E+02 -0.11137100498E+02 -0.11700912929E+02  0.36466120258E+02  0.51100000000E-03 0. -1.
         22    1    1    0    0    0  0.32552997329E+01 -0.60527238691E+01 -0.30046453434E+02  0.30822423761E+02  0.00000000000E+00 0.  1.
</event>
<event>
 5    1  0.8863861E-005  0.9118800E+02  0.7818608E-02  0.1130116E+00
         25   -1    0    0    0    0  0.00000000000E+00  0.00000000000E+00  0.99999998245E-14  0.12500000000E+03  0.12500000000E+03 0.  0.
        -11    1    3    3    0    0  0.10654433657E+01 -0.35212865192E+02  0.39322679989E+02  0.52795399481E+02  0.51100000000E-03 0.  1.
         23    2    1    0    0    0  0.22995251418E+02 -0.15709349842E+02  0.73456747428E+01  0.96198538272E+02  0.91785808097E+02 0.  0.
         11    1    3    3    0    0  0.21929808052E+02  0.19503515349E+02 -0.31977005246E+02  0.43403138791E+02  0.51100000000E-03 0. -1.
         22    1    1    0    0    0 -0.22995251418E+02  0.15709349842E+02 -0.73456747428E+01  0.28801461728E+02  0.00000000000E+00 0.  1.
</event>
<event>
 5    1  0.8863861E-005  0.9118800E+02  0.7818608E-02  0.1130116E+00
         25   -1    0    0    0    0  0.00000000000E+00  0.00000000000E+00  0.99999998245E-14  0.12500000000E+03  0.12500000000E+03 0.  0.
        -11    1    3    3    0    0 -0.30017565104E+02  0.20514445372E+02 -0.25810247179E+02  0.44587728619E+02  0.51100000000E-03 0.  1.
         23    2    1    0    0    0  0.13885990521E+02  0.26642894293E+02 -0.20435314636E+01  0.94886206319E+02  0.89980840070E+02 0.  0.
         11    1    3    3    0    0  0.43903555625E+02  0.61284489211E+01  0.23766715716E+02  0.50298477700E+02  0.51100000000E-03 0. -1.
         22    1    1    0    0    0 -0.13885990521E+02 -0.26642894293E+02  0.20435314636E+01  0.30113793681E+02  0.00000000000E+00 0. -1.
</event>
<event>
 5    1  0.8863861E-005  0.9118800E+02  0.7818608E-02  0.1130116E+00
         25   -1    0    0    0    0  0.00000000000E+00  0.00000000000E+00  0.99999998245E-14  0.12500000000E+03  0.12500000000E+03 0.  0.
        -11    1    3    3    0    0  0.36802179572E+02 -0.10656790010E+02  0.48287490404E+02  0.61641295609E+02  0.51100000000E-03 0. -1.
         23    2    1    0    0    0  0.15742309057E+02  0.21639285429E+01  0.23736991663E+02  0.96435202532E+02  0.92107549273E+02 0.  0.
         11    1    3    3    0    0 -0.21059870514E+02  0.12820718553E+02 -0.24550498741E+02  0.34793906923E+02  0.51100000000E-03 0.  1.
         22    1    1    0    0    0 -0.15742309057E+02 -0.21639285429E+01 -0.23736991663E+02  0.28564797468E+02  0.00000000000E+00 0. -1.
</event>
<event>
 5    1  0.8863861E-005  0.9118800E+02  0.7818608E-02  0.1130116E+00
         25   -1    0    0    0    0  0.00000000000E+00  0.00000000000E+00  0.99999998245E-14  0.12500000000E+03  0.12500000000E+03 0.  0.
        -11    1    3    3    0    0  0.76020947732E+01  0.50882027507E+02  0.22195584039E+02  0.56030496333E+02  0.51100000000E-03 0. -1.
         23    2    1    0    0    0  0.16034660455E+02  0.25063401094E+02 -0.54110858639E+01  0.94758236484E+02  0.89802890383E+02 0.  0.
         11    1    3    3    0    0  0.84325656821E+01 -0.25818626413E+02 -0.27606669903E+02  0.38727740152E+02  0.51100000000E-03 0.  1.
         22    1    1    0    0    0 -0.16034660455E+02 -0.25063401094E+02  0.54110858639E+01  0.30241763516E+02  0.00000000000E+00 0. -1.
</event>
<event>
 5    1  0.8863861E-005  0.9118800E+02  0.7818608E-02  0.1130116E+00
         25   -1    0    0    0    0  0.00000000000E+00  0.00000000000E+00  0.99999998245E-14  0.12500000000E+03  0.12500000000E+03 0.  0.
        -11    1    3    3    0    0  0.15155742678E+02  0.79049098051E+01 -0.28854554871E+02  0.33537582981E+02  0.51100000000E-03 0.  1.
         23    2    1    0    0    0 -0.20565170909E+02 -0.57860772713E+01  0.20100602459E+02  0.95666756676E+02  0.91058712757E+02 0.  0.
         11    1    3    3    0    0 -0.35720913587E+02 -0.13690987076E+02  0.48955157330E+02  0.62129173695E+02  0.51100000000E-03 0. -1.
         22    1    1    0    0    0  0.20565170909E+02  0.57860772713E+01 -0.20100602459E+02  0.29333243324E+02  0.00000000000E+00 0. -1.
</event>
<event>
 5    1  0.8863861E-005  0.9118800E+02  0.7818608E-02  0.1130116E+00
         25   -1    0    0    0    0  0.00000000000E+00  0.00000000000E+00  0.99999998245E-14  0.12500000000E+03  0.12500000000E+03 0.  0.
        -11    1    3    3    0    0 -0.25513256516E+02  0.48309936192E+02 -0.19540415653E+02  0.58022444253E+02  0.51100000000E-03 0.  1.
         23    2    1    0    0    0 -0.25408179204E+02  0.13440955876E+02 -0.48971229940E+01  0.95841524750E+02  0.91298308788E+02 0.  0.
         11    1    3    3    0    0  0.10507731243E+00 -0.34868980316E+02  0.14643292659E+02  0.37819080497E+02  0.51100000000E-03 0. -1.
         22    1    1    0    0    0  0.25408179204E+02 -0.13440955876E+02  0.48971229940E+01  0.29158475250E+02  0.00000000000E+00 0.  1.
</event>
<event>
 5    1  0.8863861E-005  0.9118800E+02  0.7818608E-02  0.1130116E+00
         25   -1    0    0    0    0  0.00000000000E+00  0.00000000000E+00  0.99999998245E-14  0.12500000000E+03  0.12500000000E+03 0.  0.
        -11    1    3    3    0    0 -0.46947866907E+02 -0.41230136264E+01  0.37135644842E+02  0.60001313041E+02  0.51100000000E-03 0. -1.
         23    2    1    0    0    0 -0.19075686082E+02 -0.13823839650E+02  0.19785131783E+02  0.94235868584E+02  0.89072819344E+02 0.  0.
         11    1    3    3    0    0  0.27872180826E+02 -0.97008260238E+01 -0.17350513060E+02  0.34234555543E+02  0.51100000000E-03 0.  1.
         22    1    1    0    0    0  0.19075686082E+02  0.13823839650E+02 -0.19785131783E+02  0.30764131416E+02  0.00000000000E+00 0. -1.
</event>
<event>
 5    1  0.8863861E-005  0.9118800E+02  0.7818608E-02  0.1130116E+00
         25   -1    0    0    0    0  0.00000000000E+00  0.00000000000E+00  0.99999998245E-14  0.12500000000E+03  0.12500000000E+03 0.  0.
        -11    1    3    3    0    0  0.13077505312E+02  0.21603748257E+02  0.19763540571E+02  0.32067750468E+02  0.51100000000E-03 0. -1.
         23    2    1    0    0    0  0.39596298063E+01 -0.33586299929E+02  0.67103713056E+00  0.91174440109E+02  0.84667644513E+02 0.  0.
         11    1    3    3    0    0 -0.91178755056E+01 -0.55190048185E+02 -0.19092503440E+02  0.59106689641E+02  0.51100000000E-03 0.  1.
         22    1    1    0    0    0 -0.39596298063E+01  0.33586299929E+02 -0.67103713056E+00  0.33825559891E+02  0.00000000000E+00 0.  1.
</event>
<event>
 5    1  0.8863861E-005  0.9118800E+02  0.7818608E-02  0.1130116E+00
         25   -1    0    0    0    0  0.00000000000E+00  0.00000000000E+00  0.99999998245E-14  0.12500000000E+03  0.12500000000E+03 0.  0.
        -11    1    3    3    0    0  0.39505832738E+02  0.31346427009E+02  0.20154430283E+01  0.50471490145E+02  0.51100000000E-03 0.  1.
         23    2    1    0    0    0  0.26998375045E+02 -0.10797814886E+02 -0.63892346029E+01  0.95228749099E+02  0.90455443589E+02 0.  0.
         11    1    3    3    0    0 -0.12507457693E+02 -0.42144241894E+02 -0.84046776312E+01  0.44757258955E+02  0.51100000000E-03 0. -1.
         22    1    1    0    0    0 -0.26998375045E+02  0.10797814886E+02  0.63892346029E+01  0.29771250901E+02  0.00000000000E+00 0. -1.
</event>
<event>
 5    1  0.8863861E-005  0.9118800E+02  0.7818608E-02  0.1130116E+00
         25   -1    0    0    0    0  0.00000000000E+00  0.00000000000E+00  0.99999998245E-14  0.12500000000E+03  0.12500000000E+03 0.  0.
        -11    1    3    3    0    0 -0.28502629890E+02 -0.19475148741E+02  0.49201305367E+02  0.60103658617E+02  0.51100000000E-03 0.  1.
         23    2    1    0    0    0 -0.24132036025E+02 -0.93150301680E+01  0.17267268568E+02  0.93898818133E+02  0.88598558302E+02 0.  0.
         11    1    3    3    0    0  0.43705938654E+01  0.10160118573E+02 -0.31934036798E+02  0.33795159515E+02  0.51100000000E-03 0. -1.
         22    1    1    0    0    0  0.24132036025E+02  0.93150301680E+01 -0.17267268568E+02  0.31101181867E+02  0.00000000000E+00 0. -1.
</event>
<event>
 5    1  0.8863861E-005  0.9118800E+02  0.7818608E-02  0.1130116E+00
         25   -1    0    0    0    0  0.00000000000E+00  0.00000000000E+00  0.99999998245E-14  0.12500000000E+03  0.12500000000E+03 0.  0.
        -11    1    3    3    0    0  0.23225277882E+02  0.68783099466E+01  0.24346862492E+02  0.34343767904E+02  0.51100000000E-03 0. -1.
         23    2    1    0    0    0 -0.14266799783E+02 -0.24694255289E+02 -0.10635563679E+02  0.94562144703E+02  0.89529526837E+02 0.  0.
         11    1    3    3    0    0 -0.37492077664E+02 -0.31572565236E+02 -0.34982426171E+02  0.60218376798E+02  0.51100000000E-03 0.  1.
         22    1    1    0    0    0  0.14266799783E+02  0.24694255289E+02  0.10635563679E+02  0.30437855297E+02  0.00000000000E+00 0.  1.
</event>
<event>
 5    1  0.8863861E-005  0.9118800E+02  0.7818608E-02  0.1130116E+00
         25   -1    0    0    0    0  0.00000000000E+00  0.00000000000E+00  0.99999998245E-14  0.12500000000E+03  0.12500000000E+03 0.  0.
        -11    1    3    3    0    0 -0.48753997773E+00  0.14292410804E+02  0.30801119084E+02  0.33959087722E+02  0.51100000000E-03 0.  1.
         23    2    1    0    0    0  0.59080862358E+00 -0.86903730951E+01 -0.27243741254E+02  0.96397673576E+02  0.92056604293E+02 0.  0.
         11    1    3    3    0    0  0.10783486013E+01 -0.22982783899E+02 -0.58044860338E+02  0.62438585854E+02  0.51100000000E-03 0. -1.
         22    1    1    0    0    0 -0.59080862358E+00  0.86903730951E+01  0.27243741254E+02  0.28602326424E+02  0.00000000000E+00 0. -1.
</event>
<event>
 5    1  0.8863861E-005  0.9118800E+02  0.7818608E-02  0.1130116E+00
         25   -1    0    0    0    0  0.00000000000E+00  0.00000000000E+00  0.99999998245E-14  0.12500000000E+03  0.12500000000E+03 0.  0.
        -11    1    3    3    0    0  0.29694672273E+02  0.91806255727E+01  0.34047075264E+02  0.46100550773E+02  0.51100000000E-03 0. -1.
         23    2    1    0    0    0 -0.81572225902E+01 -0.38021754585E+01  0.37659772167E+02  0.86279782306E+02  0.77103473180E+02 0.  0.
         11    1    3    3    0    0 -0.37851894863E+02 -0.12982801031E+02  0.36126969035E+01  0.40179231532E+02  0.51100000000E-03 0.  1.
         22    1    1    0    0    0  0.81572225902E+01  0.38021754585E+01 -0.37659772167E+02  0.38720217694E+02  0.00000000000E+00 0. -1.
</event>
<event>
 5    1  0.8863861E-005  0.9118800E+02  0.7818608E-02  0.1130116E+00
         25   -1    0    0    0    0  0.00000000000E+00  0.00000000000E+00  0.99999998245E-14  0.12500000000E+03  0.12500000000E+03 0.  0.
        -11    1    3    3    0    0 -0.52818664879E+02  0.14265845754E+02  0.99347780682E+01  0.55605984661E+02  0.51100000000E-03 0.  1.
         23    2    1    0    0    0 -0.13238290409E+02  0.23863040994E+02  0.87204777636E+01  0.96351373666E+02  0.91993714005E+02 0.  0.
         11    1    3    3    0    0  0.39580374469E+02  0.95971952399E+01 -0.12143003046E+01  0.40745389004E+02  0.51100000000E-03 0. -1.
         22    1    1    0    0    0  0.13238290409E+02 -0.23863040994E+02 -0.87204777636E+01  0.28648626334E+02  0.00000000000E+00 0.  1.
</event>
<event>
 5    1  0.8863861E-005  0.9118800E+02  0.7818608E-02  0.1130116E+00
         25   -1    0    0    0    0  0.00000000000E+00  0.00000000000E+00  0.99999998245E-14  0.12500000000E+03  0.12500000000E+03 0.  0.
        -11    1    3    3    0    0 -0.30424666216E+02 -0.12072390825E+02 -0.30207233221E+02  0.44540766425E+02  0.51100000000E-03 0.  1.
         23    2    1    0    0    0 -0.35031863035E+02  0.20232134100E+02 -0.87053397606E+01  0.83619405293E+02  0.72662585443E+02 0.  0.
         11    1    3    3    0    0 -0.46071968189E+01  0.32304524925E+02  0.21501893461E+02  0.39078638868E+02  0.51100000000E-03 0. -1.
         22    1    1    0    0    0  0.35031863035E+02 -0.20232134100E+02  0.87053397606E+01  0.41380594707E+02  0.00000000000E+00 0.  1.
</event>
<event>
 5    1  0.8863861E-005  0.9118800E+02  0.7818608E-02  0.1130116E+00
         25   -1    0    0    0    0  0.00000000000E+00  0.00000000000E+00  0.99999998245E-14  0.12500000000E+03  0.12500000000E+03 0.  0.
        -11    1    3    3    0    0 -0.31576802733E+02 -0.13620401085E+02 -0.15747764819E+02  0.37823298291E+02  0.51100000000E-03 0.  1.
         23    2    1    0    0    0  0.25532662761E+02 -0.11469801274E+02 -0.10063780173E+02  0.95255204147E+02  0.90491994325E+02 0.  0.
         11    1    3    3    0    0  0.57109465494E+02  0.21505998106E+01  0.56839846462E+01  0.57431905856E+02  0.51100000000E-03 0. -1.
         22    1    1    0    0    0 -0.25532662761E+02  0.11469801274E+02  0.10063780173E+02  0.29744795853E+02  0.00000000000E+00 0. -1.
</event>
<event>
 5    1  0.8863861E-005  0.9118800E+02  0.7818608E-02  0.1130116E+00
         25   -1    0    0    0    0  0.00000000000E+00  0.00000000000E+00  0.99999998245E-14  0.12500000000E+03  0.12500000000E+03 0.  0.
        -11    1    3    3    0    0 -0.53607804536E+02 -0.16609264965E+02  0.27307746389E+02  0.62412958614E+02  0.51100000000E-03 0. -1.
         23    2    1    0    0    0 -0.25351406400E+02 -0.83018614916E+01  0.10437925890E+02  0.96354494112E+02  0.91997953934E+02 0.  0.
         11    1    3    3    0    0  0.28256398136E+02  0.83074034730E+01 -0.16869820499E+02  0.33941535499E+02  0.51100000000E-03 0.  1.
         22    1    1    0    0    0  0.25351406400E+02  0.83018614916E+01 -0.10437925890E+02  0.28645505888E+02  0.00000000000E+00 0. -1.
</event>
<event>
 5    1  0.8863861E-005  0.9118800E+02  0.7818608E-02  0.1130116E+00
         25   -1    0    0    0    0  0.00000000000E+00  0.00000000000E+00  0.99999998245E-14  0.12500000000E+03  0.12500000000E+03 0.  0.
        -11    1    3    3    0    0 -0.71398015558E+01 -0.19113913813E+02  0.32691990371E+02  0.38536796730E+02  0.51100000000E-03 0.  1.
         23    2    1    0    0    0  0.28369392905E+02 -0.12980410631E+02 -0.79013455178E+01  0.92817011094E+02  0.87058904045E+02 0.  0.
         11    1    3    3    0    0  0.35509194461E+02  0.61335031813E+01 -0.40593335889E+02  0.54280214364E+02  0.51100000000E-03 0. -1.
         22    1    1    0    0    0 -0.28369392905E+02  0.12980410631E+02  0.79013455178E+01  0.32182988906E+02  0.00000000000E+00 0. -1.
</event>
<event>
 5    1  0.8863861E-005  0.9118800E+02  0.7818608E-02  0.1130116E+00
         25   -1    0    0    0    0  0.00000000000E+00  0.00000000000E+00  0.99999998245E-14  0.12500000000E+03  0.12500000000E+03 0.  0.
        -11    1    3    3    0    0 -0.47013172700E+02 -0.12632590050E+02  0.20907907145E+02  0.52980763680E+02  0.51100000000E-03 0. -1.
         23    2    1    0    0    0 -0.93189163318E+01  0.74337433775E+01  0.26398361867E+02  0.96034913232E+02  0.91562701512E+02 0.  0.
         11    1    3    3    0    0  0.37694256368E+02  0.20066333427E+02  0.54904547222E+01  0.43054149552E+02  0.51100000000E-03 0.  1.
         22    1    1    0    0    0  0.93189163318E+01 -0.74337433775E+01 -0.26398361867E+02  0.28965086768E+02  0.00000000000E+00 0. -1.
</event>
<event>
 5    1  0.8863861E-005  0.9118800E+02  0.7818608E-02  0.1130116E+00
         25   -1    0    0    0    0  0.00000000000E+00  0.00000000000E+00  0.99999998245E-14  0.12500000000E+03  0.12500000000E+03 0.  0.
        -11    1    3    3    0    0 -0.20958593734E+02 -0.17291199446E+02  0.19892268333E+02  0.33674182533E+02  0.51100000000E-03 0. -1.
         23    2    1    0    0    0 -0.19725152519E-01  0.32618117124E+02 -0.25848520357E+01  0.92279617761E+02  0.86283859675E+02 0.  0.
         11    1    3    3    0    0  0.20938868582E+02  0.49909316569E+02 -0.22477120369E+02  0.58605435228E+02  0.51100000000E-03 0.  1.
         22    1    1    0    0    0  0.19725152519E-01 -0.32618117124E+02  0.25848520357E+01  0.32720382239E+02  0.00000000000E+00 0.  1.
</event>
<event>
 5    1  0.8863861E-005  0.9118800E+02  0.7818608E-02  0.1130116E+00
         25   -1    0    0    0    0  0.00000000000E+00  0.00000000000E+00  0.99999998245E-14  0.12500000000E+03  0.12500000000E+03 0.  0.
        -11    1    3    3    0    0 -0.55562144837E+02  0.23425556820E+02 -0.13950953133E+02  0.61891338204E+02  0.51100000000E-03 0.  1.
         23    2    1    0    0    0 -0.20738656340E+02  0.15332394026E+02 -0.62352827386E+01  0.98466004368E+02  0.94823526047E+02 0.  0.
         11    1    3    3    0    0  0.34823488497E+02 -0.80931627933E+01  0.77156703940E+01  0.36574666164E+02  0.51100000000E-03 0. -1.
         22    1    1    0    0    0  0.20738656340E+02 -0.15332394026E+02  0.62352827386E+01  0.26533995632E+02  0.00000000000E+00 0.  1.
</event>
<event>
 5    1  0.8863861E-005  0.9118800E+02  0.7818608E-02  0.1130116E+00
         25   -1    0    0    0    0  0.00000000000E+00  0.00000000000E+00  0.99999998245E-14  0.12500000000E+03  0.12500000000E+03 0.  0.
        -11    1    3    3    0    0  0.33394285048E+02 -0.29024300243E+01  0.32823124162E+02  0.46914388559E+02  0.51100000000E-03 0.  1.
         23    2    1    0    0    0 -0.11257262330E+02 -0.14178407638E+02  0.25772602207E+02  0.93504282468E+02  0.88040164795E+02 0.  0.
         11    1    3    3    0    0 -0.44651547378E+02 -0.11275977614E+02 -0.70505219547E+01  0.46589893909E+02  0.51100000000E-03 0. -1.
         22    1    1    0    0    0  0.11257262330E+02  0.14178407638E+02 -0.25772602207E+02  0.31495717532E+02  0.00000000000E+00 0.  1.
</event>
<event>
 5    1  0.8863861E-005  0.9118800E+02  0.7818608E-02  0.1130116E+00
         25   -1    0    0    0    0  0.00000000000E+00  0.00000000000E+00  0.99999998245E-14  0.12500000000E+03  0.12500000000E+03 0.  0.
        -11    1    3    3    0    0  0.21865647103E+02  0.31159116803E+02 -0.39765469980E+02  0.55048067052E+02  0.51100000000E-03 0.  1.
         23    2    1    0    0    0  0.30543569114E+02  0.83058368653E+01 -0.14565302823E+02  0.90156857395E+02  0.83151754935E+02 0.  0.
         11    1    3    3    0    0  0.86779220103E+01 -0.22853279938E+02  0.25200167157E+02  0.35108790343E+02  0.51100000000E-03 0. -1.
         22    1    1    0    0    0 -0.30543569114E+02 -0.83058368653E+01  0.14565302823E+02  0.34843142605E+02  0.00000000000E+00 0.  1.
</event>
<event>
 5    1  0.8863861E-005  0.9118800E+02  0.7818608E-02  0.1130116E+00
         25   -1    0    0    0    0  0.00000000000E+00  0.00000000000E+00  0.99999998245E-14  0.12500000000E+03  0.12500000000E+03 0.  0.
        -11    1    3    3    0    0  0.33951359433E+02  0.31118865279E+02  0.11638373926E+02  0.47502950767E+02  0.51100000000E-03 0.  1.
         23    2    1    0    0    0 -0.12875294932E+02  0.20064600830E+02  0.16715043659E+02  0.95883782688E+02  0.91356147423E+02 0.  0.
         11    1    3    3    0    0 -0.46826654365E+02 -0.11054264449E+02  0.50766697337E+01  0.48380831921E+02  0.51100000000E-03 0. -1.
         22    1    1    0    0    0  0.12875294932E+02 -0.20064600830E+02 -0.16715043659E+02  0.29116217312E+02  0.00000000000E+00 0.  1.
</event>
<event>
 5    1  0.8863861E-005  0.9118800E+02  0.7818608E-02  0.1130116E+00
         25   -1    0    0    0    0  0.00000000000E+00  0.00000000000E+00  0.99999998245E-14  0.12500000000E+03  0.12500000000E+03 0.  0.
        -11    1    3    3    0    0  0.14583547460E+02  0.45241462672E+02 -0.33213591251E+02  0.57988037087E+02  0.51100000000E-03 0. -1.
         23    2    1    0    0    0 -0.47938640218E+01  0.13883520081E+02 -0.25384792342E+02  0.95672181391E+02  0.91066159180E+02 0.  0.
         11    1    3    3    0    0 -0.19377411482E+02 -0.31357942591E+02  0.78287989089E+01  0.37684144304E+02  0.51100000000E-03 0.  1.
         22    1    1    0    0    0  0.47938640218E+01 -0.13883520081E+02  0.25384792342E+02  0.29327818609E+02  0.00000000000E+00 0.  1.
</event>
<event>
 5    1  0.8863861E-005  0.9118800E+02  0.7818608E-02  0.1130116E+00
         25   -1    0    0    0    0  0.00000000000E+00  0.00000000000E+00  0.99999998245E-14  0.12500000000E+03  0.12500000000E+03 0.  0.
        -11    1    3    3    0    0 -0.13861839037E+02  0.20636022498E+02  0.24775352244E+02  0.35097209079E+02  0.51100000000E-03 0.  1.
         23    2    1    0    0    0 -0.47630585004E+01 -0.27907023052E+02 -0.94144060408E+01  0.95165126060E+02  0.90367480406E+02 0.  0.
         11    1    3    3    0    0  0.90987805370E+01 -0.48543045551E+02 -0.34189758285E+02  0.60067916981E+02  0.51100000000E-03 0. -1.
         22    1    1    0    0    0  0.47630585004E+01  0.27907023052E+02  0.94144060408E+01  0.29834873940E+02  0.00000000000E+00 0. -1.
</event>
<event>
 5    1  0.8863861E-005  0.9118800E+02  0.7818608E-02  0.1130116E+00
         25   -1    0    0    0    0  0.00000000000E+00  0.00000000000E+00  0.99999998245E-14  0.12500000000E+03  0.12500000000E+03 0.  0.
        -11    1    3    3    0    0 -0.40089177883E+02  0.28211364003E+02  0.28737635590E+02  0.56823190176E+02  0.51100000000E-03 0.  1.
         23    2    1    0    0    0 -0.17467238582E+02 -0.22514202436E+01  0.24247040086E+02  0.95031812372E+02  0.90182886918E+02 0.  0.
         11    1    3    3    0    0  0.22621939301E+02 -0.30462784247E+02 -0.44905955035E+01  0.38208622195E+02  0.51100000000E-03 0. -1.
         22    1    1    0    0    0  0.17467238582E+02  0.22514202436E+01 -0.24247040086E+02  0.29968187628E+02  0.00000000000E+00 0.  1.
</event>
<event>
 5    1  0.8863861E-005  0.9118800E+02  0.7818608E-02  0.1130116E+00
         25   -1    0    0    0    0  0.00000000000E+00  0.00000000000E+00  0.99999998245E-14  0.12500000000E+03  0.12500000000E+03 0.  0.
        -11    1    3    3    0    0  0.50387516611E+02 -0.27961957966E+02 -0.43193589436E+01  0.57787799625E+02  0.51100000000E-03 0. -1.
         23    2    1    0    0    0  0.13262444086E+02 -0.26249193606E+02 -0.59773021390E+01  0.94989323084E+02  0.90123974451E+02 0.  0.
         11    1    3    3    0    0 -0.37125072525E+02  0.17127643599E+01 -0.16579431954E+01  0.37201523459E+02  0.51100000000E-03 0.  1.
         22    1    1    0    0    0 -0.13262444086E+02  0.26249193606E+02  0.59773021390E+01  0.30010676916E+02  0.00000000000E+00 0. -1.
</event>
<event>
 5    1  0.8863861E-005  0.9118800E+02  0.7818608E-02  0.1130116E+00
         25   -1    0    0    0    0  0.00000000000E+00  0.00000000000E+00  0.99999998245E-14  0.12500000000E+03  0.12500000000E+03 0.  0.
        -11    1    3    3    0    0  0.44246772405E+02 -0.39101171570E+02 -0.19371793732E+02  0.62144548265E+02  0.51100000000E-03 0. -1.
         23    2    1    0    0    0  0.23401413718E+02 -0.14416920760E+02 -0.91203385841E+01  0.96040470583E+02  0.91570288007E+02 0.  0.
         11    1    3    3    0    0 -0.20845358687E+02  0.24684250811E+02  0.10251455148E+02  0.33895922318E+02  0.51100000000E-03 0.  1.
         22    1    1    0    0    0 -0.23401413718E+02  0.14416920760E+02  0.91203385841E+01  0.28959529417E+02  0.00000000000E+00 0. -1.
</event>
<event>
 5    1  0.8863861E-005  0.9118800E+02  0.7818608E-02  0.1130116E+00
         25   -1    0    0    0    0  0.00000000000E+00  0.00000000000E+00  0.99999998245E-14  0.12500000000E+03  0.12500000000E+03 0.  0.
        -11    1    3    3    0    0 -0.11416876123E+02 -0.27113185622E+02  0.25167860048E+02  0.38715514650E+02  0.51100000000E-03 0.  1.
         23    2    1    0    0    0 -0.19052216322E+02  0.21672986077E+02 -0.36880714415E+01  0.95908641434E+02  0.91390154604E+02 0.  0.
         11    1    3    3    0    0 -0.76353401985E+01  0.48786171699E+02 -0.28855931489E+02  0.57193126784E+02  0.51100000000E-03 0. -1.
         22    1    1    0    0    0  0.19052216322E+02 -0.21672986077E+02  0.36880714415E+01  0.29091358566E+02  0.00000000000E+00 0. -1.
</event>
<event>
 5    1  0.8863861E-005  0.9118800E+02  0.7818608E-02  0.1130116E+00
         25   -1    0    0    0    0  0.00000000000E+00  0.00000000000E+00  0.99999998245E-14  0.12500000000E+03  0.12500000000E+03 0.  0.
        -11    1    3    3    0    0 -0.80897455934E+01  0.26693859518E+02  0.32594363267E+02  0.42899867562E+02  0.51100000000E-03 0. -1.
         23    2    1    0    0    0  0.26350052977E+02 -0.68936656564E+01  0.12411217371E+02  0.95068641282E+02  0.90233920011E+02 0.  0.
         11    1    3    3    0    0  0.34439798571E+02 -0.33587525175E+02 -0.20183145897E+02  0.52168773720E+02  0.51100000000E-03 0.  1.
         22    1    1    0    0    0 -0.26350052977E+02  0.68936656564E+01 -0.12411217371E+02  0.29931358718E+02  0.00000000000E+00 0.  1.
</event>
<event>
 5    1  0.8863861E-005  0.9118800E+02  0.7818608E-02  0.1130116E+00
         25   -1    0    0    0    0  0.00000000000E+00  0.00000000000E+00  0.99999998245E-14  0.12500000000E+03  0.12500000000E+03 0.  0.
        -11    1    3    3    0    0 -0.23623791306E+02  0.29442255732E+02  0.39262432725E+02  0.54465296860E+02  0.51100000000E-03 0.  1.
         23    2    1    0    0    0  0.11656614797E+02  0.15879110601E+02  0.20153160664E+02  0.96818929993E+02  0.92626845451E+02 0.  0.
         11    1    3    3    0    0  0.35280406103E+02 -0.13563145131E+02 -0.19109272060E+02  0.42353633133E+02  0.51100000000E-03 0. -1.
         22    1    1    0    0    0 -0.11656614797E+02 -0.15879110601E+02 -0.20153160664E+02  0.28181070007E+02  0.00000000000E+00 0.  1.
</event>
<event>
 5    1  0.8863861E-005  0.9118800E+02  0.7818608E-02  0.1130116E+00
         25   -1    0    0    0    0  0.00000000000E+00  0.00000000000E+00  0.99999998245E-14  0.12500000000E+03  0.12500000000E+03 0.  0.
        -11    1    3    3    0    0  0.42824243109E+02 -0.43374964163E+02 -0.31594228145E+01  0.61035115030E+02  0.51100000000E-03 0.  1.
         23    2    1    0    0    0  0.26407823514E+02 -0.14475282703E+02  0.26223731712E+01  0.94771143040E+02  0.89820853704E+02 0.  0.
         11    1    3    3    0    0 -0.16416419595E+02  0.28899681460E+02  0.57817959857E+01  0.33736028010E+02  0.51100000000E-03 0. -1.
         22    1    1    0    0    0 -0.26407823514E+02  0.14475282703E+02 -0.26223731712E+01  0.30228856960E+02  0.00000000000E+00 0.  1.
</event>
<event>
 5    1  0.8863861E-005  0.9118800E+02  0.7818608E-02  0.1130116E+00
         25   -1    0    0    0    0  0.00000000000E+00  0.00000000000E+00  0.99999998245E-14  0.12500000000E+03  0.12500000000E+03 0.  0.
        -11    1    3    3    0    0 -0.34984279975E+01 -0.25242772509E+02 -0.18473953647E+02  0.31475760928E+02  0.51100000000E-03 0.  1.
         23    2    1    0    0    0 -0.85645867070E+01  0.23822109669E+02 -0.33473694972E+02  0.83031758321E+02  0.71644536290E+02 0.  0.
         11    1    3    3    0    0 -0.50661587096E+01  0.49064882177E+02 -0.14999741326E+02  0.51555997394E+02  0.51100000000E-03 0. -1.
         22    1    1    0    0    0  0.85645867070E+01 -0.23822109669E+02  0.33473694972E+02  0.41968241679E+02  0.00000000000E+00 0. -1.
</event>
<event>
 5    1  0.8863861E-005  0.9118800E+02  0.7818608E-02  0.1130116E+00
         25   -1    0    0    0    0  0.00000000000E+00  0.00000000000E+00  0.99999998245E-14  0.12500000000E+03  0.12500000000E+03 0.  0.
        -11    1    3    3    0    0 -0.23846667358E+02 -0.55593542457E+02  0.13118159196E+02  0.61898235903E+02  0.51100000000E-03 0.  1.
         23    2    1    0    0    0 -0.65966058409E+01 -0.25366365222E+02  0.10382091030E+02  0.96808591604E+02  0.92612892736E+02 0.  0.
         11    1    3    3    0    0  0.17250061517E+02  0.30227177234E+02 -0.27360681663E+01  0.34910355701E+02  0.51100000000E-03 0. -1.
         22    1    1    0    0    0  0.65966058409E+01  0.25366365222E+02 -0.10382091030E+02  0.28191408396E+02  0.00000000000E+00 0.  1.
</event>
<event>
 5    1  0.8863861E-005  0.9118800E+02  0.7818608E-02  0.1130116E+00
         25   -1    0    0    0    0  0.00000000000E+00  0.00000000000E+00  0.99999998245E-14  0.12500000000E+03  0.12500000000E+03 0.  0.
        -11    1    3    3    0    0  0.38302693923E+02  0.47019611381E+02 -0.33687107119E+01  0.60739512908E+02  0.51100000000E-03 0. -1.
         23    2    1    0    0    0  0.12166451728E+02  0.28644875090E+02  0.42644336430E+01  0.93587632836E+02  0.88158426761E+02 0.  0.
         11    1    3    3    0    0 -0.26136242195E+02 -0.18374736291E+02  0.76331443548E+01  0.32848119929E+02  0.51100000000E-03 0.  1.
         22    1    1    0    0    0 -0.12166451728E+02 -0.28644875090E+02 -0.42644336430E+01  0.31412367164E+02  0.00000000000E+00 0. -1.
</event>
<event>
 5    1  0.8863861E-005  0.9118800E+02  0.7818608E-02  0.1130116E+00
         25   -1    0    0    0    0  0.00000000000E+00  0.00000000000E+00  0.99999998245E-14  0.12500000000E+03  0.12500000000E+03 0.  0.
        -11    1    3    3    0    0 -0.83235345908E+01  0.52234441242E+02  0.22208499399E+02  0.57366676092E+02  0.51100000000E-03 0. -1.
         23    2    1    0    0    0  0.74905638770E+01  0.26899298828E+02 -0.36096035738E+01  0.96844892780E+02  0.92661875628E+02 0.  0.
         11    1    3    3    0    0  0.15814098468E+02 -0.25335142415E+02 -0.25818102972E+02  0.39478216688E+02  0.51100000000E-03 0.  1.
         22    1    1    0    0    0 -0.74905638770E+01 -0.26899298828E+02  0.36096035738E+01  0.28155107220E+02  0.00000000000E+00 0. -1.
</event>
<event>
 5    1  0.8863861E-005  0.9118800E+02  0.7818608E-02  0.1130116E+00
         25   -1    0    0    0    0  0.00000000000E+00  0.00000000000E+00  0.99999998245E-14  0.12500000000E+03  0.12500000000E+03 0.  0.
        -11    1    3    3    0    0  0.36195966028E+02 -0.15504341102E+02  0.15183139732E+02  0.42202609897E+02  0.51100000000E-03 0.  1.
         23    2    1    0    0    0  0.21122411186E+02  0.17313129251E+02 -0.18841702570E+02  0.91820029317E+02  0.85615461975E+02 0.  0.
         11    1    3    3    0    0 -0.15073554842E+02  0.32817470354E+02 -0.34024842302E+02  0.49617419420E+02  0.51100000000E-03 0. -1.
         22    1    1    0    0    0 -0.21122411186E+02 -0.17313129251E+02  0.18841702570E+02  0.33179970683E+02  0.00000000000E+00 0.  1.
</event>
<event>
 5    1  0.8863861E-005  0.9118800E+02  0.7818608E-02  0.1130116E+00
         25   -1    0    0    0    0  0.00000000000E+00  0.00000000000E+00  0.99999998245E-14  0.12500000000E+03  0.12500000000E+03 0.  0.
        -11    1    3    3    0    0  0.18194877328E+02  0.46767798735E+02  0.19193333334E+01  0.50219163675E+02  0.51100000000E-03 0. -1.
         23    2    1    0    0    0  0.19088441876E+02 -0.68209667531E+01 -0.46107031803E+01  0.10421171521E+03  0.10211723068E+03 0.  0.
         11    1    3    3    0    0  0.89356454809E+00 -0.53588765488E+02 -0.65300365137E+01  0.53992551535E+02  0.51100000000E-03 0.  1.
         22    1    1    0    0    0 -0.19088441876E+02  0.68209667531E+01  0.46107031803E+01  0.20788284790E+02  0.00000000000E+00 0. -1.
</event>
<event>
 5    1  0.8863861E-005  0.9118800E+02  0.7818608E-02  0.1130116E+00
         25   -1    0    0    0    0  0.00000000000E+00  0.00000000000E+00  0.99999998245E-14  0.12500000000E+03  0.12500000000E+03 0.  0.
        -11    1    3    3    0    0  0.31041476727E+02  0.15407905323E+02 -0.14168758406E+02  0.37439692024E+02  0.51100000000E-03 0.  1.
         23    2    1    0    0    0 -0.11129601157E+02  0.37261991624E+02 -0.73239041062E+01  0.85427741876E+02  0.75709546749E+02 0.  0.
         11    1    3    3    0    0 -0.42171077884E+02  0.21854086301E+02  0.68448542997E+01  0.47988049852E+02  0.51100000000E-03 0. -1.
         22    1    1    0    0    0  0.11129601157E+02 -0.37261991624E+02  0.73239041062E+01  0.39572258124E+02  0.00000000000E+00 0. -1.
</event>
<event>
 5    1  0.8863861E-005  0.9118800E+02  0.7818608E-02  0.1130116E+00
         25   -1    0    0    0    0  0.00000000000E+00  0.00000000000E+00  0.99999998245E-14  0.12500000000E+03  0.12500000000E+03 0.  0.
        -11    1    3    3    0    0 -0.20541686096E+02  0.11672450176E+02 -0.16206170170E+02  0.28650426046E+02  0.51100000000E-03 0. -1.
         23    2    1    0    0    0  0.34077236433E+02 -0.80333865634E+01  0.31266855979E+01  0.89849331366E+02  0.82688166272E+02 0.  0.
         11    1    3    3    0    0  0.54618922530E+02 -0.19705836740E+02  0.19332855768E+02  0.61198905319E+02  0.51100000000E-03 0.  1.
         22    1    1    0    0    0 -0.34077236433E+02  0.80333865634E+01 -0.31266855979E+01  0.35150668634E+02  0.00000000000E+00 0.  1.
</event>
<event>
 5    1  0.8863861E-005  0.9118800E+02  0.7818608E-02  0.1130116E+00
         25   -1    0    0    0    0  0.00000000000E+00  0.00000000000E+00  0.99999998245E-14  0.12500000000E+03  0.12500000000E+03 0.  0.
        -11    1    3    3    0    0  0.31447420506E+02  0.13189393256E+02 -0.91996337372E+01  0.35320441845E+02  0.51100000000E-03 0.  1.
         23    2    1    0    0    0 -0.18084515377E+02 -0.21949602707E+02 -0.41259668403E+01  0.96262248560E+02  0.91872532022E+02 0.  0.
         11    1    3    3    0    0 -0.49531935884E+02 -0.35138995963E+02  0.50736668969E+01  0.60941806715E+02  0.51100000000E-03 0. -1.
         22    1    1    0    0    0  0.18084515377E+02  0.21949602707E+02  0.41259668403E+01  0.28737751440E+02  0.00000000000E+00 0. -1.
</event>
<event>
 5    1  0.8863861E-005  0.9118800E+02  0.7818608E-02  0.1130116E+00
         25   -1    0    0    0    0  0.00000000000E+00  0.00000000000E+00  0.99999998245E-14  0.12500000000E+03  0.12500000000E+03 0.  0.
        -11    1    3    3    0    0 -0.18393091039E+02 -0.23234989190E+02 -0.36094683854E+02  0.46701142634E+02  0.51100000000E-03 0. -1.
         23    2    1    0    0    0 -0.21100538831E+02 -0.35685810145E+02 -0.15578901844E+01  0.83513414137E+02  0.72480021622E+02 0.  0.
         11    1    3    3    0    0 -0.27074477925E+01 -0.12450820955E+02  0.34536793669E+02  0.36812271503E+02  0.51100000000E-03 0.  1.
         22    1    1    0    0    0  0.21100538831E+02  0.35685810145E+02  0.15578901844E+01  0.41486585863E+02  0.00000000000E+00 0. -1.
</event>
<event>
 5    1  0.8863861E-005  0.9118800E+02  0.7818608E-02  0.1130116E+00
         25   -1    0    0    0    0  0.00000000000E+00  0.00000000000E+00  0.99999998245E-14  0.12500000000E+03  0.12500000000E+03 0.  0.
        -11    1    3    3    0    0 -0.34158432534E+02  0.20224805604E+02 -0.12241290417E+02  0.41541430720E+02  0.51100000000E-03 0.  1.
         23    2    1    0    0    0  0.19074753274E+02  0.53458399290E+01 -0.19395770807E+02  0.97276000609E+02  0.93241622424E+02 0.  0.
         11    1    3    3    0    0  0.53233185808E+02 -0.14878965675E+02 -0.71544803905E+01  0.55734569889E+02  0.51100000000E-03 0. -1.
         22    1    1    0    0    0 -0.19074753274E+02 -0.53458399290E+01  0.19395770807E+02  0.27723999391E+02  0.00000000000E+00 0. -1.
</event>
<event>
 5    1  0.8863861E-005  0.9118800E+02  0.7818608E-02  0.1130116E+00
         25   -1    0    0    0    0  0.00000000000E+00  0.00000000000E+00  0.99999998245E-14  0.12500000000E+03  0.12500000000E+03 0.  0.
        -11    1    3    3    0    0 -0.44428677691E+01 -0.16202140847E+02 -0.43358764221E+02  0.46499794377E+02  0.51100000000E-03 0. -1.
         23    2    1    0    0    0 -0.21526102701E+02 -0.21125073334E+02  0.15503552434E+01  0.94799910228E+02  0.89860878902E+02 0.  0.
         11    1    3    3    0    0 -0.17083234932E+02 -0.49229324863E+01  0.44909119464E+02  0.48300115852E+02  0.51100000000E-03 0.  1.
         22    1    1    0    0    0  0.21526102701E+02  0.21125073334E+02 -0.15503552434E+01  0.30200089772E+02  0.00000000000E+00 0.  1.
</event>
<event>
 5    1  0.8863861E-005  0.9118800E+02  0.7818608E-02  0.1130116E+00
         25   -1    0    0    0    0  0.00000000000E+00  0.00000000000E+00  0.99999998245E-14  0.12500000000E+03  0.12500000000E+03 0.  0.
        -11    1    3    3    0    0 -0.28607827708E+02 -0.39780460404E+02 -0.34043225615E+02  0.59664344853E+02  0.51100000000E-03 0.  1.
         23    2    1    0    0    0 -0.21254925836E+02 -0.77851467557E+01 -0.17256602816E+02  0.96536501918E+02  0.92244921159E+02 0.  0.
         11    1    3    3    0    0  0.73529018720E+01  0.31995313649E+02  0.16786622799E+02  0.36872157066E+02  0.51100000000E-03 0. -1.
         22    1    1    0    0    0  0.21254925836E+02  0.77851467557E+01  0.17256602816E+02  0.28463498082E+02  0.00000000000E+00 0.  1.
</event>
<event>
 5    1  0.8863861E-005  0.9118800E+02  0.7818608E-02  0.1130116E+00
         25   -1    0    0    0    0  0.00000000000E+00  0.00000000000E+00  0.99999998245E-14  0.12500000000E+03  0.12500000000E+03 0.  0.
        -11    1    3    3    0    0 -0.42289763084E+01  0.16490677864E+02  0.45013666116E+02  0.48125428149E+02  0.51100000000E-03 0.  1.
         23    2    1    0    0    0  0.19591115632E+02  0.20894743705E+02  0.35613073148E+01  0.96136787497E+02  0.91701673236E+02 0.  0.
         11    1    3    3    0    0  0.23820091940E+02  0.44040658405E+01 -0.41452358802E+02  0.48011359348E+02  0.51100000000E-03 0. -1.
         22    1    1    0    0    0 -0.19591115632E+02 -0.20894743705E+02 -0.35613073148E+01  0.28863212503E+02  0.00000000000E+00 0.  1.
</event>
<event>
 5    1  0.8863861E-005  0.9118800E+02  0.7818608E-02  0.1130116E+00
         25   -1    0    0    0    0  0.00000000000E+00  0.00000000000E+00  0.99999998245E-14  0.12500000000E+03  0.12500000000E+03 0.  0.
        -11    1    3    3    0    0  0.26050754946E+02 -0.40258432201E+02 -0.36081139980E+01  0.48087437896E+02  0.51100000000E-03 0.  1.
         23    2    1    0    0    0  0.23332639872E+02  0.58987072565E+01 -0.16176092746E+02  0.96002193062E+02  0.91518021533E+02 0.  0.
         11    1    3    3    0    0 -0.27181150741E+01  0.46157139458E+02 -0.12567978748E+02  0.47914755165E+02  0.51100000000E-03 0. -1.
         22    1    1    0    0    0 -0.23332639872E+02 -0.58987072565E+01  0.16176092746E+02  0.28997806938E+02  0.00000000000E+00 0.  1.
</event>
<event>
 5    1  0.8863861E-005  0.9118800E+02  0.7818608E-02  0.1130116E+00
         25   -1    0    0    0    0  0.00000000000E+00  0.00000000000E+00  0.99999998245E-14  0.12500000000E+03  0.12500000000E+03 0.  0.
        -11    1    3    3    0    0  0.19640564301E+02  0.50851439125E+02  0.16014559000E+02  0.56816254078E+02  0.51100000000E-03 0. -1.
         23    2    1    0    0    0 -0.94044520352E+01  0.26608031197E+02  0.96084006988E+01  0.95188049271E+02  0.90399183170E+02 0.  0.
         11    1    3    3    0    0 -0.29045016336E+02 -0.24243407929E+02 -0.64061583014E+01  0.38371795194E+02  0.51100000000E-03 0.  1.
         22    1    1    0    0    0  0.94044520352E+01 -0.26608031197E+02 -0.96084006988E+01  0.29811950729E+02  0.00000000000E+00 0. -1.
</event>
<event>
 5    1  0.8863861E-005  0.9118800E+02  0.7818608E-02  0.1130116E+00
         25   -1    0    0    0    0  0.00000000000E+00  0.00000000000E+00  0.99999998245E-14  0.12500000000E+03  0.12500000000E+03 0.  0.
        -11    1    3    3    0    0 -0.37202131801E+01  0.39021460906E+02  0.47644445880E+02  0.61696901226E+02  0.51100000000E-03 0.  1.
         23    2    1    0    0    0 -0.82591687741E+01  0.18647115691E+02  0.19108376947E+02  0.97052569671E+02  0.92941607570E+02 0.  0.
         11    1    3    3    0    0 -0.45389555940E+01 -0.20374345215E+02 -0.28536068933E+02  0.35355668446E+02  0.51100000000E-03 0. -1.
         22    1    1    0    0    0  0.82591687741E+01 -0.18647115691E+02 -0.19108376947E+02  0.27947430329E+02  0.00000000000E+00 0.  1.
</event>
<event>
 5    1  0.8863861E-005  0.9118800E+02  0.7818608E-02  0.1130116E+00
         25   -1    0    0    0    0  0.00000000000E+00  0.00000000000E+00  0.99999998245E-14  0.12500000000E+03  0.12500000000E+03 0.  0.
        -11    1    3    3    0    0 -0.23297326626E+02 -0.24650129581E+02  0.45081491167E+01  0.34215752585E+02  0.51100000000E-03 0.  1.
         23    2    1    0    0    0  0.61513519519E+01  0.28517276459E+02  0.68285701666E+01  0.95038298479E+02  0.90191876684E+02 0.  0.
         11    1    3    3    0    0  0.29448678578E+02  0.53167406040E+02  0.23204210499E+01  0.60822545894E+02  0.51100000000E-03 0. -1.
         22    1    1    0    0    0 -0.61513519519E+01 -0.28517276459E+02 -0.68285701666E+01  0.29961701521E+02  0.00000000000E+00 0. -1.
</event>
<event>
 5    1  0.8863861E-005  0.9118800E+02  0.7818608E-02  0.1130116E+00
         25   -1    0    0    0    0  0.00000000000E+00  0.00000000000E+00  0.99999998245E-14  0.12500000000E+03  0.12500000000E+03 0.  0.
        -11    1    3    3    0    0  0.33465382464E+02  0.38468208565E+02  0.28051621165E+02  0.58194744986E+02  0.51100000000E-03 0.  1.
         23    2    1    0    0    0  0.34191650531E+00  0.24483507903E+02  0.13974935268E+02  0.96806775958E+02  0.92610442120E+02 0.  0.
         11    1    3    3    0    0 -0.33123465959E+02 -0.13984700663E+02 -0.14076685897E+02  0.38612030973E+02  0.51100000000E-03 0. -1.
         22    1    1    0    0    0 -0.34191650531E+00 -0.24483507903E+02 -0.13974935268E+02  0.28193224042E+02  0.00000000000E+00 0.  1.
</event>
<event>
 5    1  0.8863861E-005  0.9118800E+02  0.7818608E-02  0.1130116E+00
         25   -1    0    0    0    0  0.00000000000E+00  0.00000000000E+00  0.99999998245E-14  0.12500000000E+03  0.12500000000E+03 0.  0.
        -11    1    3    3    0    0 -0.63704893346E+01  0.40871887181E+02 -0.26498213569E+02  0.49124837086E+02  0.51100000000E-03 0.  1.
         23    2    1    0    0    0  0.34622848214E+01 -0.87086488498E+00 -0.32390855448E+02  0.92412988193E+02  0.86476858455E+02 0.  0.
         11    1    3    3    0    0  0.98327741560E+01 -0.41742752066E+02 -0.58926418797E+01  0.43288151107E+02  0.51100000000E-03 0. -1.
         22    1    1    0    0    0 -0.34622848214E+01  0.87086488498E+00  0.32390855448E+02  0.32587011807E+02  0.00000000000E+00 0.  1.
</event>
<event>
 5    1  0.8863861E-005  0.9118800E+02  0.7818608E-02  0.1130116E+00
         25   -1    0    0    0    0  0.00000000000E+00  0.00000000000E+00  0.99999998245E-14  0.12500000000E+03  0.12500000000E+03 0.  0.
        -11    1    3    3    0    0 -0.19663535614E+02 -0.12263123854E+02 -0.25735777419E+02  0.34631908396E+02  0.51100000000E-03 0.  1.
         23    2    1    0    0    0 -0.96615313344E+01  0.11777108125E+02  0.27312997000E+02  0.93726284701E+02  0.88354802785E+02 0.  0.
         11    1    3    3    0    0  0.10002004280E+02  0.24040231979E+02  0.53048774419E+02  0.59094376305E+02  0.51100000000E-03 0. -1.
         22    1    1    0    0    0  0.96615313344E+01 -0.11777108125E+02 -0.27312997000E+02  0.31273715299E+02  0.00000000000E+00 0. -1.
</event>
<event>
 5    1  0.8863861E-005  0.9118800E+02  0.7818608E-02  0.1130116E+00
         25   -1    0    0    0    0  0.00000000000E+00  0.00000000000E+00  0.99999998245E-14  0.12500000000E+03  0.12500000000E+03 0.  0.
        -11    1    3    3    0    0 -0.18162993513E+01  0.18726096261E+02  0.25559692309E+02  0.31737414761E+02  0.51100000000E-03 0. -1.
         23    2    1    0    0    0 -0.34157401448E+01 -0.53342702605E+01 -0.31071927559E+02  0.93289017641E+02  0.87733998029E+02 0.  0.
         11    1    3    3    0    0 -0.15994407935E+01 -0.24060366522E+02 -0.56631619868E+02  0.61551602880E+02  0.51100000000E-03 0.  1.
         22    1    1    0    0    0  0.34157401448E+01  0.53342702605E+01  0.31071927559E+02  0.31710982359E+02  0.00000000000E+00 0.  1.
</event>
<event>
 5    1  0.8863861E-005  0.9118800E+02  0.7818608E-02  0.1130116E+00
         25   -1    0    0    0    0  0.00000000000E+00  0.00000000000E+00  0.99999998245E-14  0.12500000000E+03  0.12500000000E+03 0.  0.
        -11    1    3    3    0    0  0.21204266527E+02  0.31420586508E+02  0.22662220690E+02  0.44163904065E+02  0.51100000000E-03 0. -1.
         23    2    1    0    0    0  0.25868100596E+02 -0.10276201010E+02 -0.78934947112E+01  0.96067903733E+02  0.91607728567E+02 0.  0.
         11    1    3    3    0    0  0.46638340690E+01 -0.41696787518E+02 -0.30555715401E+02  0.51903999667E+02  0.51100000000E-03 0.  1.
         22    1    1    0    0    0 -0.25868100596E+02  0.10276201010E+02  0.78934947112E+01  0.28932096267E+02  0.00000000000E+00 0.  1.
</event>
<event>
 5    1  0.8863861E-005  0.9118800E+02  0.7818608E-02  0.1130116E+00
         25   -1    0    0    0    0  0.00000000000E+00  0.00000000000E+00  0.99999998245E-14  0.12500000000E+03  0.12500000000E+03 0.  0.
        -11    1    3    3    0    0  0.18005598598E+02 -0.34424485948E+02 -0.20851166023E+02  0.44091018796E+02  0.51100000000E-03 0.  1.
         23    2    1    0    0    0  0.10893748897E+02  0.15116243206E+02 -0.24439248634E+02  0.94268071204E+02  0.89117999311E+02 0.  0.
         11    1    3    3    0    0 -0.71118497016E+01  0.49540729154E+02 -0.35880826115E+01  0.50177052408E+02  0.51100000000E-03 0. -1.
         22    1    1    0    0    0 -0.10893748897E+02 -0.15116243206E+02  0.24439248634E+02  0.30731928796E+02  0.00000000000E+00 0. -1.
</event>
<event>
 5    1  0.8863861E-005  0.9118800E+02  0.7818608E-02  0.1130116E+00
         25   -1    0    0    0    0  0.00000000000E+00  0.00000000000E+00  0.99999998245E-14  0.12500000000E+03  0.12500000000E+03 0.  0.
        -11    1    3    3    0    0  0.20815705901E+02  0.41096616292E+02  0.20947640248E+02  0.50606611377E+02  0.51100000000E-03 0. -1.
         23    2    1    0    0    0  0.32242755508E+02  0.41225336902E+01  0.69488109810E+01  0.91760316776E+02  0.85528236239E+02 0.  0.
         11    1    3    3    0    0  0.11427049606E+02 -0.36974082602E+02 -0.13998829267E+02  0.41153705399E+02  0.51100000000E-03 0.  1.
         22    1    1    0    0    0 -0.32242755508E+02 -0.41225336902E+01 -0.69488109810E+01  0.33239683224E+02  0.00000000000E+00 0. -1.
</event>
<event>
 5    1  0.8863861E-005  0.9118800E+02  0.7818608E-02  0.1130116E+00
         25   -1    0    0    0    0  0.00000000000E+00  0.00000000000E+00  0.99999998245E-14  0.12500000000E+03  0.12500000000E+03 0.  0.
        -11    1    3    3    0    0 -0.27974086626E+02  0.69101741655E+01 -0.16077266897E+02  0.32996644386E+02  0.51100000000E-03 0.  1.
         23    2    1    0    0    0  0.89289908082E+01  0.39774897347E+02 -0.29381495894E+01  0.84129447535E+02  0.73534766496E+02 0.  0.
         11    1    3    3    0    0  0.36903077435E+02  0.32864723182E+02  0.13139117308E+02  0.51132803149E+02  0.51100000000E-03 0. -1.
         22    1    1    0    0    0 -0.89289908082E+01 -0.39774897347E+02  0.29381495894E+01  0.40870552465E+02  0.00000000000E+00 0. -1.
</event>
<event>
 5    1  0.8863861E-005  0.9118800E+02  0.7818608E-02  0.1130116E+00
         25   -1    0    0    0    0  0.00000000000E+00  0.00000000000E+00  0.99999998245E-14  0.12500000000E+03  0.12500000000E+03 0.  0.
        -11    1    3    3    0    0  0.90728830200E+01  0.28479167552E+02  0.30028495527E+02  0.42368511121E+02  0.51100000000E-03 0.  1.
         23    2    1    0    0    0 -0.17523890387E+02  0.19017857053E+02 -0.14694895171E+02  0.95255999508E+02  0.90493092979E+02 0.  0.
         11    1    3    3    0    0 -0.26596773407E+02 -0.94613104988E+01 -0.44723390698E+02  0.52887488386E+02  0.51100000000E-03 0. -1.
         22    1    1    0    0    0  0.17523890387E+02 -0.19017857053E+02  0.14694895171E+02  0.29744000492E+02  0.00000000000E+00 0. -1.
</event>
<event>
 5    1  0.8863861E-005  0.9118800E+02  0.7818608E-02  0.1130116E+00
         25   -1    0    0    0    0  0.00000000000E+00  0.00000000000E+00  0.99999998245E-14  0.12500000000E+03  0.12500000000E+03 0.  0.
        -11    1    3    3    0    0  0.34858536366E+01  0.36542344919E+02  0.11538136815E+02  0.38478861069E+02  0.51100000000E-03 0. -1.
         23    2    1    0    0    0 -0.19825803225E+02 -0.15164233135E+02  0.15966088082E+02  0.95370075789E+02  0.90650531975E+02 0.  0.
         11    1    3    3    0    0 -0.23311656862E+02 -0.51706578054E+02  0.44279512662E+01  0.56891214720E+02  0.51100000000E-03 0.  1.
         22    1    1    0    0    0  0.19825803225E+02  0.15164233135E+02 -0.15966088082E+02  0.29629924211E+02  0.00000000000E+00 0.  1.
</event>
<event>
 5    1  0.8863861E-005  0.9118800E+02  0.7818608E-02  0.1130116E+00
         25   -1    0    0    0    0  0.00000000000E+00  0.00000000000E+00  0.99999998245E-14  0.12500000000E+03  0.12500000000E+03 0.  0.
        -11    1    3    3    0    0  0.12707111092E+02 -0.36352514915E+02 -0.23678313733E+02  0.45206620693E+02  0.51100000000E-03 0. -1.
         23    2    1    0    0    0  0.22846023373E+02 -0.84592004467E+01  0.16805517268E+02  0.95403982248E+02  0.90697274280E+02 0.  0.
         11    1    3    3    0    0  0.10138912281E+02  0.27893314468E+02  0.40483831001E+02  0.50197361555E+02  0.51100000000E-03 0.  1.
         22    1    1    0    0    0 -0.22846023373E+02  0.84592004467E+01 -0.16805517268E+02  0.29596017752E+02  0.00000000000E+00 0.  1.
</event>
<event>
 5    1  0.8863861E-005  0.9118800E+02  0.7818608E-02  0.1130116E+00
         25   -1    0    0    0    0  0.00000000000E+00  0.00000000000E+00  0.99999998245E-14  0.12500000000E+03  0.12500000000E+03 0.  0.
        -11    1    3    3    0    0  0.19398953561E+02  0.13463508060E+02 -0.25614263184E+02  0.34837851932E+02  0.51100000000E-03 0.  1.
         23    2    1    0    0    0 -0.97031544433E+01  0.61320400402E+01  0.27140674732E+02  0.95531892730E+02  0.90873390948E+02 0.  0.
         11    1    3    3    0    0 -0.29102108004E+02 -0.73314680199E+01  0.52754937916E+02  0.60694040798E+02  0.51100000000E-03 0. -1.
         22    1    1    0    0    0  0.97031544433E+01 -0.61320400402E+01 -0.27140674732E+02  0.29468107270E+02  0.00000000000E+00 0. -1.
</event>
<event>
 5    1  0.8863861E-005  0.9118800E+02  0.7818608E-02  0.1130116E+00
         25   -1    0    0    0    0  0.00000000000E+00  0.00000000000E+00  0.99999998245E-14  0.12500000000E+03  0.12500000000E+03 0.  0.
        -11    1    3    3    0    0 -0.24852350679E+02 -0.11350754044E+02 -0.25222837205E+02  0.37184277169E+02  0.51100000000E-03 0. -1.
         23    2    1    0    0    0  0.19831416029E+02  0.20790799692E+02 -0.49349141771E+01  0.95847027742E+02  0.91305842833E+02 0.  0.
         11    1    3    3    0    0  0.44683766708E+02  0.32141553736E+02  0.20287923028E+02  0.58662750573E+02  0.51100000000E-03 0.  1.
         22    1    1    0    0    0 -0.19831416029E+02 -0.20790799692E+02  0.49349141771E+01  0.29152972258E+02  0.00000000000E+00 0.  1.
</event>
<event>
 5    1  0.8863861E-005  0.9118800E+02  0.7818608E-02  0.1130116E+00
         25   -1    0    0    0    0  0.00000000000E+00  0.00000000000E+00  0.99999998245E-14  0.12500000000E+03  0.12500000000E+03 0.  0.
        -11    1    3    3    0    0 -0.32262374901E+02 -0.40773716798E+02  0.31194759300E+01  0.52087310798E+02  0.51100000000E-03 0.  1.
         23    2    1    0    0    0 -0.23217664631E+02  0.39556840853E+00  0.16728373447E+02  0.96380864733E+02  0.92033777403E+02 0.  0.
         11    1    3    3    0    0  0.90447102698E+01  0.41169285207E+02  0.13608897517E+02  0.44293553935E+02  0.51100000000E-03 0. -1.
         22    1    1    0    0    0  0.23217664631E+02 -0.39556840853E+00 -0.16728373447E+02  0.28619135267E+02  0.00000000000E+00 0.  1.
</event>
<event>
 5    1  0.8863861E-005  0.9118800E+02  0.7818608E-02  0.1130116E+00
         25   -1    0    0    0    0  0.00000000000E+00  0.00000000000E+00  0.99999998245E-14  0.12500000000E+03  0.12500000000E+03 0.  0.
        -11    1    3    3    0    0 -0.94992321869E+00 -0.32646052326E+02 -0.25865688708E+02  0.41661744313E+02  0.51100000000E-03 0. -1.
         23    2    1    0    0    0  0.28589534907E+02  0.19042374204E+01  0.40256045272E+01  0.96065710340E+02  0.91604735603E+02 0.  0.
         11    1    3    3    0    0  0.29539458125E+02  0.34550289747E+02  0.29891293235E+02  0.54403966027E+02  0.51100000000E-03 0.  1.
         22    1    1    0    0    0 -0.28589534907E+02 -0.19042374204E+01 -0.40256045272E+01  0.28934289660E+02  0.00000000000E+00 0.  1.
</event>
<event>
 5    1  0.8863861E-005  0.9118800E+02  0.7818608E-02  0.1130116E+00
         25   -1    0    0    0    0  0.00000000000E+00  0.00000000000E+00  0.99999998245E-14  0.12500000000E+03  0.12500000000E+03 0.  0.
        -11    1    3    3    0    0 -0.10273457065E+02 -0.33696257229E+02 -0.38457475974E+01  0.35436865637E+02  0.51100000000E-03 0.  1.
         23    2    1    0    0    0 -0.11260201803E+02  0.23963560904E+02  0.12983732417E+02  0.95510651019E+02  0.90844167423E+02 0.  0.
         11    1    3    3    0    0 -0.98674473785E+00  0.57659818133E+02  0.16829480015E+02  0.60073785382E+02  0.51100000000E-03 0. -1.
         22    1    1    0    0    0  0.11260201803E+02 -0.23963560904E+02 -0.12983732417E+02  0.29489348981E+02  0.00000000000E+00 0. -1.
</event>
<event>
 5    1  0.8863861E-005  0.9118800E+02  0.7818608E-02  0.1130116E+00
         25   -1    0    0    0    0  0.00000000000E+00  0.00000000000E+00  0.99999998245E-14  0.12500000000E+03  0.12500000000E+03 0.  0.
        -11    1    3    3    0    0 -0.58343868747E+01 -0.52579162357E+02 -0.12556230825E+02  0.54371567175E+02  0.51100000000E-03 0.  1.
         23    2    1    0    0    0 -0.88764498129E+01 -0.10871663602E+02 -0.23526726802E+02  0.97604903636E+02  0.93681513166E+02 0.  0.
         11    1    3    3    0    0 -0.30420629383E+01  0.41707498755E+02 -0.10970495977E+02  0.43233336461E+02  0.51100000000E-03 0. -1.
         22    1    1    0    0    0  0.88764498129E+01  0.10871663602E+02  0.23526726802E+02  0.27395096364E+02  0.00000000000E+00 0.  1.
</event>
<event>
 5    1  0.8863861E-005  0.9118800E+02  0.7818608E-02  0.1130116E+00
         25   -1    0    0    0    0  0.00000000000E+00  0.00000000000E+00  0.99999998245E-14  0.12500000000E+03  0.12500000000E+03 0.  0.
        -11    1    3    3    0    0  0.21761574691E+01 -0.35728177744E+02 -0.41844886575E+01  0.36038150505E+02  0.51100000000E-03 0.  1.
         23    2    1    0    0    0 -0.12277200036E+02  0.23127528433E+02 -0.10110541487E+02  0.96931596745E+02  0.92778764738E+02 0.  0.
         11    1    3    3    0    0 -0.14453357505E+02  0.58855706176E+02 -0.59260528291E+01  0.60893446241E+02  0.51100000000E-03 0. -1.
         22    1    1    0    0    0  0.12277200036E+02 -0.23127528433E+02  0.10110541487E+02  0.28068403255E+02  0.00000000000E+00 0. -1.
</event>
<event>
 5    1  0.8863861E-005  0.9118800E+02  0.7818608E-02  0.1130116E+00
         25   -1    0    0    0    0  0.00000000000E+00  0.00000000000E+00  0.99999998245E-14  0.12500000000E+03  0.12500000000E+03 0.  0.
        -11    1    3    3    0    0  0.20460355070E+02  0.24416742410E+02  0.32288047685E+01  0.32019191433E+02  0.51100000000E-03 0.  1.
         23    2    1    0    0    0 -0.43534261997E+01 -0.26349784631E+02 -0.18448278173E+02  0.92540757290E+02  0.86661348492E+02 0.  0.
         11    1    3    3    0    0 -0.24813781270E+02 -0.50766527041E+02 -0.21677082942E+02  0.60521565857E+02  0.51100000000E-03 0. -1.
         22    1    1    0    0    0  0.43534261997E+01  0.26349784631E+02  0.18448278173E+02  0.32459242710E+02  0.00000000000E+00 0. -1.
</event>
<event>
 5    1  0.8863861E-005  0.9118800E+02  0.7818608E-02  0.1130116E+00
         25   -1    0    0    0    0  0.00000000000E+00  0.00000000000E+00  0.99999998245E-14  0.12500000000E+03  0.12500000000E+03 0.  0.
        -11    1    3    3    0    0  0.16764023587E+02  0.39451739114E+02  0.15158340345E+02  0.45466993393E+02  0.51100000000E-03 0.  1.
         23    2    1    0    0    0  0.18015478900E+02 -0.96275668255E+01  0.21933937237E+02  0.95027593929E+02  0.90177039662E+02 0.  0.
         11    1    3    3    0    0  0.12514553130E+01 -0.49079305940E+02  0.67755968928E+01  0.49560600535E+02  0.51100000000E-03 0. -1.
         22    1    1    0    0    0 -0.18015478900E+02  0.96275668255E+01 -0.21933937237E+02  0.29972406071E+02  0.00000000000E+00 0. -1.
</event>
<event>
 5    1  0.8863861E-005  0.9118800E+02  0.7818608E-02  0.1130116E+00
         25   -1    0    0    0    0  0.00000000000E+00  0.00000000000E+00  0.99999998245E-14  0.12500000000E+03  0.12500000000E+03 0.  0.
        -11    1    3    3    0    0 -0.32900891675E+02  0.72011155509E+01  0.39440895900E+02  0.51864332714E+02  0.51100000000E-03 0. -1.
         23    2    1    0    0    0 -0.24959872784E+02  0.22277231165E+02  0.38503020379E+01  0.91323671466E+02  0.84887677943E+02 0.  0.
         11    1    3    3    0    0  0.79410188914E+01  0.15076115614E+02 -0.35590593862E+02  0.39459338752E+02  0.51100000000E-03 0.  1.
         22    1    1    0    0    0  0.24959872784E+02 -0.22277231165E+02 -0.38503020379E+01  0.33676328534E+02  0.00000000000E+00 0. -1.
</event>
<event>
 5    1  0.8863861E-005  0.9118800E+02  0.7818608E-02  0.1130116E+00
         25   -1    0    0    0    0  0.00000000000E+00  0.00000000000E+00  0.99999998245E-14  0.12500000000E+03  0.12500000000E+03 0.  0.
        -11    1    3    3    0    0 -0.15475252422E+02  0.10321068148E+02 -0.31540007647E+02  0.36616662435E+02  0.51100000000E-03 0.  1.
         23    2    1    0    0    0 -0.19367238932E+02 -0.18410287394E+02  0.17123639111E+02  0.93262835001E+02  0.87696686085E+02 0.  0.
         11    1    3    3    0    0 -0.38919865096E+01 -0.28731355542E+02  0.48663646758E+02  0.56646172566E+02  0.51100000000E-03 0. -1.
         22    1    1    0    0    0  0.19367238932E+02  0.18410287394E+02 -0.17123639111E+02  0.31737164999E+02  0.00000000000E+00 0. -1.
</event>
<event>
 5    1  0.8863861E-005  0.9118800E+02  0.7818608E-02  0.1130116E+00
         25   -1    0    0    0    0  0.00000000000E+00  0.00000000000E+00  0.99999998245E-14  0.12500000000E+03  0.12500000000E+03 0.  0.
        -11    1    3    3    0    0 -0.32865220832E+02 -0.85937305903E+01  0.45145440477E+02  0.56498546370E+02  0.51100000000E-03 0.  1.
         23    2    1    0    0    0  0.13415528862E+01 -0.92647162193E+01  0.29370862396E+02  0.94173350999E+02  0.88985042280E+02 0.  0.
         11    1    3    3    0    0  0.34206773718E+02 -0.67098562893E+00 -0.15774578081E+02  0.37674804629E+02  0.51100000000E-03 0. -1.
         22    1    1    0    0    0 -0.13415528862E+01  0.92647162193E+01 -0.29370862396E+02  0.30826649001E+02  0.00000000000E+00 0.  1.
</event>
<event>
 5    1  0.8863861E-005  0.9118800E+02  0.7818608E-02  0.1130116E+00
         25   -1    0    0    0    0  0.00000000000E+00  0.00000000000E+00  0.99999998245E-14  0.12500000000E+03  0.12500000000E+03 0.  0.
        -11    1    3    3    0    0 -0.10674964009E+02  0.46620851485E+02  0.25971543812E+02  0.54424073148E+02  0.51100000000E-03 0.  1.
         23    2    1    0    0    0 -0.10532062161E+02  0.47903362608E+01  0.26312226208E+02  0.96256219753E+02  0.91864328977E+02 0.  0.
         11    1    3    3    0    0  0.14290184826E+00 -0.41830515224E+02  0.34068239552E+00  0.41832146605E+02  0.51100000000E-03 0. -1.
         22    1    1    0    0    0  0.10532062161E+02 -0.47903362608E+01 -0.26312226208E+02  0.28743780247E+02  0.00000000000E+00 0.  1.
</event>
<event>
 5    1  0.8863861E-005  0.9118800E+02  0.7818608E-02  0.1130116E+00
         25   -1    0    0    0    0  0.00000000000E+00  0.00000000000E+00  0.99999998245E-14  0.12500000000E+03  0.12500000000E+03 0.  0.
        -11    1    3    3    0    0  0.23990002756E+01 -0.35105794657E+02 -0.40696948791E+02  0.53799755222E+02  0.51100000000E-03 0.  1.
         23    2    1    0    0    0 -0.21366157838E+02 -0.15478097876E+02 -0.11627169014E+02  0.96168155212E+02  0.91744421100E+02 0.  0.
         11    1    3    3    0    0 -0.23765158114E+02  0.19627696781E+02  0.29069779777E+02  0.42368399990E+02  0.51100000000E-03 0. -1.
         22    1    1    0    0    0  0.21366157838E+02  0.15478097876E+02  0.11627169014E+02  0.28831844788E+02  0.00000000000E+00 0.  1.
</event>
<event>
 5    1  0.8863861E-005  0.9118800E+02  0.7818608E-02  0.1130116E+00
         25   -1    0    0    0    0  0.00000000000E+00  0.00000000000E+00  0.99999998245E-14  0.12500000000E+03  0.12500000000E+03 0.  0.
        -11    1    3    3    0    0 -0.26474394761E+02  0.22449941939E+02 -0.13300239508E+01  0.34737047010E+02  0.51100000000E-03 0.  1.
         23    2    1    0    0    0  0.16701355488E+02 -0.18591215541E+02  0.14144358980E+02  0.96283602918E+02  0.91901581758E+02 0.  0.
         11    1    3    3    0    0  0.43175750248E+02 -0.41041157480E+02  0.15474382931E+02  0.61546555908E+02  0.51100000000E-03 0. -1.
         22    1    1    0    0    0 -0.16701355488E+02  0.18591215541E+02 -0.14144358980E+02  0.28716397082E+02  0.00000000000E+00 0. -1.
</event>
<event>
 5    1  0.8863861E-005  0.9118800E+02  0.7818608E-02  0.1130116E+00
         25   -1    0    0    0    0  0.00000000000E+00  0.00000000000E+00  0.99999998245E-14  0.12500000000E+03  0.12500000000E+03 0.  0.
        -11    1    3    3    0    0  0.24552362052E+02 -0.21255105521E+02  0.27062920659E+02  0.42272918848E+02  0.51100000000E-03 0.  1.
         23    2    1    0    0    0 -0.13799897490E+02  0.16693585760E+02  0.17690386523E+02  0.97034615118E+02  0.92917456807E+02 0.  0.
         11    1    3    3    0    0 -0.38352259542E+02  0.37948691282E+02 -0.93725341355E+01  0.54761696270E+02  0.51100000000E-03 0. -1.
         22    1    1    0    0    0  0.13799897490E+02 -0.16693585760E+02 -0.17690386523E+02  0.27965384882E+02  0.00000000000E+00 0.  1.
</event>
<event>
 5    1  0.8863861E-005  0.9118800E+02  0.7818608E-02  0.1130116E+00
         25   -1    0    0    0    0  0.00000000000E+00  0.00000000000E+00  0.99999998245E-14  0.12500000000E+03  0.12500000000E+03 0.  0.
        -11    1    3    3    0    0  0.21174624443E+02 -0.74328438342E+01 -0.39417335492E+02  0.45357890441E+02  0.51100000000E-03 0.  1.
         23    2    1    0    0    0  0.13048722388E+02  0.26210903955E+02 -0.30506555729E+01  0.95562147811E+02  0.90914998503E+02 0.  0.
         11    1    3    3    0    0 -0.81259020547E+01  0.33643747789E+02  0.36366679919E+02  0.50204257370E+02  0.51100000000E-03 0. -1.
         22    1    1    0    0    0 -0.13048722388E+02 -0.26210903955E+02  0.30506555729E+01  0.29437852189E+02  0.00000000000E+00 0. -1.
</event>
<event>
 5    1  0.8863861E-005  0.9118800E+02  0.7818608E-02  0.1130116E+00
         25   -1    0    0    0    0  0.00000000000E+00  0.00000000000E+00  0.99999998245E-14  0.12500000000E+03  0.12500000000E+03 0.  0.
        -11    1    3    3    0    0 -0.19180232027E+02  0.16595900485E+02 -0.40261063276E+02  0.47584224590E+02  0.51100000000E-03 0.  1.
         23    2    1    0    0    0 -0.31849622537E+01  0.28004056481E+02  0.44918082057E+01  0.96459721359E+02  0.92140817990E+02 0.  0.
         11    1    3    3    0    0  0.15995269773E+02  0.11408155996E+02  0.44752871481E+02  0.48875496769E+02  0.51100000000E-03 0. -1.
         22    1    1    0    0    0  0.31849622537E+01 -0.28004056481E+02 -0.44918082057E+01  0.28540278641E+02  0.00000000000E+00 0. -1.
</event>
<event>
 5    1  0.8863861E-005  0.9118800E+02  0.7818608E-02  0.1130116E+00
         25   -1    0    0    0    0  0.00000000000E+00  0.00000000000E+00  0.99999998245E-14  0.12500000000E+03  0.12500000000E+03 0.  0.
        -11    1    3    3    0    0  0.17534622740E+02 -0.68390912261E+01  0.45725414982E+02  0.49447444211E+02  0.51100000000E-03 0.  1.
         23    2    1    0    0    0  0.27339017995E+02  0.75076949191E+01  0.19079883459E+01  0.96584725807E+02  0.92310245649E+02 0.  0.
         11    1    3    3    0    0  0.98043952549E+01  0.14346786145E+02 -0.43817426636E+02  0.47137281596E+02  0.51100000000E-03 0. -1.
         22    1    1    0    0    0 -0.27339017995E+02 -0.75076949191E+01 -0.19079883459E+01  0.28415274193E+02  0.00000000000E+00 0. -1.
</event>
<event>
 5    1  0.8863861E-005  0.9118800E+02  0.7818608E-02  0.1130116E+00
         25   -1    0    0    0    0  0.00000000000E+00  0.00000000000E+00  0.99999998245E-14  0.12500000000E+03  0.12500000000E+03 0.  0.
        -11    1    3    3    0    0  0.22903719878E+02 -0.25170707294E+02  0.51655376097E-01  0.34031567088E+02  0.51100000000E-03 0. -1.
         23    2    1    0    0    0 -0.23797328874E+02  0.10416141804E+02  0.15507217809E+02  0.94746360950E+02  0.89786358861E+02 0.  0.
         11    1    3    3    0    0 -0.46701048752E+02  0.35586849098E+02  0.15455562433E+02  0.60714793861E+02  0.51100000000E-03 0.  1.
         22    1    1    0    0    0  0.23797328874E+02 -0.10416141804E+02 -0.15507217809E+02  0.30253639050E+02  0.00000000000E+00 0.  1.
</event>
<event>
 5    1  0.8863861E-005  0.9118800E+02  0.7818608E-02  0.1130116E+00
         25   -1    0    0    0    0  0.00000000000E+00  0.00000000000E+00  0.99999998245E-14  0.12500000000E+03  0.12500000000E+03 0.  0.
        -11    1    3    3    0    0  0.44721394664E+02  0.12921736383E+02 -0.18755532454E+02  0.50187094055E+02  0.51100000000E-03 0.  1.
         23    2    1    0    0    0  0.21116520137E+01  0.11417128572E+02 -0.28762852624E+02  0.93982076309E+02  0.88715946014E+02 0.  0.
         11    1    3    3    0    0 -0.42609742650E+02 -0.15046078105E+01 -0.10007320170E+02  0.43794982254E+02  0.51100000000E-03 0. -1.
         22    1    1    0    0    0 -0.21116520137E+01 -0.11417128572E+02  0.28762852624E+02  0.31017923691E+02  0.00000000000E+00 0.  1.
</event>
<event>
 5    1  0.8863861E-005  0.9118800E+02  0.7818608E-02  0.1130116E+00
         25   -1    0    0    0    0  0.00000000000E+00  0.00000000000E+00  0.99999998245E-14  0.12500000000E+03  0.12500000000E+03 0.  0.
        -11    1    3    3    0    0  0.12741094875E+02  0.50538912361E+02 -0.45086422933E+00  0.52122168413E+02  0.51100000000E-03 0.  1.
         23    2    1    0    0    0  0.54576502954E+01  0.14435697280E+02 -0.24453534833E+02  0.96083730038E+02  0.91629321232E+02 0.  0.
         11    1    3    3    0    0 -0.72834445796E+01 -0.36103215081E+02 -0.24002670604E+02  0.43961561625E+02  0.51100000000E-03 0. -1.
         22    1    1    0    0    0 -0.54576502954E+01 -0.14435697280E+02  0.24453534833E+02  0.28916269962E+02  0.00000000000E+00 0.  1.
</event>
<event>
 5    1  0.8863861E-005  0.9118800E+02  0.7818608E-02  0.1130116E+00
         25   -1    0    0    0    0  0.00000000000E+00  0.00000000000E+00  0.99999998245E-14  0.12500000000E+03  0.12500000000E+03 0.  0.
        -11    1    3    3    0    0 -0.30363699730E+02  0.94498998522E+01  0.15419136362E+02  0.35341259668E+02  0.51100000000E-03 0.  1.
         23    2    1    0    0    0  0.16053838896E+02 -0.22227255167E+02  0.18984371869E+02  0.91650592346E+02  0.85367722745E+02 0.  0.
         11    1    3    3    0    0  0.46417538626E+02 -0.31677155020E+02  0.35652355075E+01  0.56309332679E+02  0.51100000000E-03 0. -1.
         22    1    1    0    0    0 -0.16053838896E+02  0.22227255167E+02 -0.18984371869E+02  0.33349407654E+02  0.00000000000E+00 0. -1.
</event>
<event>
 5    1  0.8863861E-005  0.9118800E+02  0.7818608E-02  0.1130116E+00
         25   -1    0    0    0    0  0.00000000000E+00  0.00000000000E+00  0.99999998245E-14  0.12500000000E+03  0.12500000000E+03 0.  0.
        -11    1    3    3    0    0 -0.30168288707E+02 -0.29477282230E+02  0.37788506461E+02  0.56630442626E+02  0.51100000000E-03 0.  1.
         23    2    1    0    0    0 -0.49589577484E+01 -0.27900542491E+02  0.82711468258E+01  0.95479779759E+02  0.90801679169E+02 0.  0.
         11    1    3    3    0    0  0.25209330959E+02  0.15767397390E+01 -0.29517359635E+02  0.38849337133E+02  0.51100000000E-03 0. -1.
         22    1    1    0    0    0  0.49589577484E+01  0.27900542491E+02 -0.82711468258E+01  0.29520220241E+02  0.00000000000E+00 0.  1.
</event>
<event>
 5    1  0.8863861E-005  0.9118800E+02  0.7818608E-02  0.1130116E+00
         25   -1    0    0    0    0  0.00000000000E+00  0.00000000000E+00  0.99999998245E-14  0.12500000000E+03  0.12500000000E+03 0.  0.
        -11    1    3    3    0    0 -0.18156478923E+02  0.81852437225E+01 -0.51864688217E+02  0.55557194186E+02  0.51100000000E-03 0.  1.
         23    2    1    0    0    0 -0.77974393276E+01 -0.17115629056E+02 -0.22372845399E+02  0.95771776836E+02  0.91202764262E+02 0.  0.
         11    1    3    3    0    0  0.10359039596E+02 -0.25300872779E+02  0.29491842817E+02  0.40214582650E+02  0.51100000000E-03 0. -1.
         22    1    1    0    0    0  0.77974393276E+01  0.17115629056E+02  0.22372845399E+02  0.29228223164E+02  0.00000000000E+00 0.  1.
</event>
<event>
 5    1  0.8863861E-005  0.9118800E+02  0.7818608E-02  0.1130116E+00
         25   -1    0    0    0    0  0.00000000000E+00  0.00000000000E+00  0.99999998245E-14  0.12500000000E+03  0.12500000000E+03 0.  0.
        -11    1    3    3    0    0  0.20144090381E+02  0.34721890817E+02 -0.32353096078E+02  0.51556928780E+02  0.51100000000E-03 0.  1.
         23    2    1    0    0    0  0.21128002513E+02 -0.74295000097E+01 -0.18542357202E+02  0.95924082625E+02  0.91411272042E+02 0.  0.
         11    1    3    3    0    0  0.98391213201E+00 -0.42151390827E+02  0.13810738876E+02  0.44367153845E+02  0.51100000000E-03 0. -1.
         22    1    1    0    0    0 -0.21128002513E+02  0.74295000097E+01  0.18542357202E+02  0.29075917375E+02  0.00000000000E+00 0.  1.
</event>
<event>
 5    1  0.8863861E-005  0.9118800E+02  0.7818608E-02  0.1130116E+00
         25   -1    0    0    0    0  0.00000000000E+00  0.00000000000E+00  0.99999998245E-14  0.12500000000E+03  0.12500000000E+03 0.  0.
        -11    1    3    3    0    0 -0.11894003997E+02  0.32946714156E+02  0.11925392579E+02  0.37002274162E+02  0.51100000000E-03 0.  1.
         23    2    1    0    0    0  0.33979446529E+02  0.16201825064E+02  0.10751081106E+02  0.85850444871E+02  0.76404261778E+02 0.  0.
         11    1    3    3    0    0  0.45873450527E+02 -0.16744889092E+02 -0.11743114734E+01  0.48848170709E+02  0.51100000000E-03 0. -1.
         22    1    1    0    0    0 -0.33979446529E+02 -0.16201825064E+02 -0.10751081106E+02  0.39149555129E+02  0.00000000000E+00 0. -1.
</event>
<event>
 5    1  0.8863861E-005  0.9118800E+02  0.7818608E-02  0.1130116E+00
         25   -1    0    0    0    0  0.00000000000E+00  0.00000000000E+00  0.99999998245E-14  0.12500000000E+03  0.12500000000E+03 0.  0.
        -11    1    3    3    0    0  0.34607110853E+02 -0.18638451474E+01  0.12555339843E+02  0.36861397140E+02  0.51100000000E-03 0.  1.
         23    2    1    0    0    0 -0.15745688850E+02 -0.23275729191E+02 -0.87327313844E+01  0.95573024549E+02  0.90929951817E+02 0.  0.
         11    1    3    3    0    0 -0.50352799703E+02 -0.21411884044E+02 -0.21288071227E+02  0.58711627409E+02  0.51100000000E-03 0. -1.
         22    1    1    0    0    0  0.15745688850E+02  0.23275729191E+02  0.87327313844E+01  0.29426975451E+02  0.00000000000E+00 0. -1.
</event>
<event>
 5    1  0.8863861E-005  0.9118800E+02  0.7818608E-02  0.1130116E+00
         25   -1    0    0    0    0  0.00000000000E+00  0.00000000000E+00  0.99999998245E-14  0.12500000000E+03  0.12500000000E+03 0.  0.
        -11    1    3    3    0    0 -0.36440293813E+02 -0.17993405662E+02 -0.22680049576E+02  0.46540759658E+02  0.51100000000E-03 0.  1.
         23    2    1    0    0    0 -0.16272518878E+02  0.11676423922E+02  0.16050603444E+02  0.99333765037E+02  0.95960623483E+02 0.  0.
         11    1    3    3    0    0  0.20167774934E+02  0.29669829584E+02  0.38730653020E+02  0.52793005379E+02  0.51100000000E-03 0. -1.
         22    1    1    0    0    0  0.16272518878E+02 -0.11676423922E+02 -0.16050603444E+02  0.25666234963E+02  0.00000000000E+00 0. -1.
</event>
<event>
 5    1  0.8863861E-005  0.9118800E+02  0.7818608E-02  0.1130116E+00
         25   -1    0    0    0    0  0.00000000000E+00  0.00000000000E+00  0.99999998245E-14  0.12500000000E+03  0.12500000000E+03 0.  0.
        -11    1    3    3    0    0 -0.13724315230E+02  0.31269318197E+02 -0.19492969300E+02  0.39320515528E+02  0.51100000000E-03 0.  1.
         23    2    1    0    0    0 -0.17534789504E+02 -0.15797186067E+02  0.14315744759E+02  0.97396368380E+02  0.93402848431E+02 0.  0.
         11    1    3    3    0    0 -0.38104742737E+01 -0.47066504264E+02  0.33808714060E+02  0.58075852852E+02  0.51100000000E-03 0. -1.
         22    1    1    0    0    0  0.17534789504E+02  0.15797186067E+02 -0.14315744759E+02  0.27603631620E+02  0.00000000000E+00 0. -1.
</event>
<event>
 5    1  0.8863861E-005  0.9118800E+02  0.7818608E-02  0.1130116E+00
         25   -1    0    0    0    0  0.00000000000E+00  0.00000000000E+00  0.99999998245E-14  0.12500000000E+03  0.12500000000E+03 0.  0.
        -11    1    3    3    0    0 -0.18359696548E+02  0.39623630967E+02 -0.33729100586E+02  0.55179369468E+02  0.51100000000E-03 0.  1.
         23    2    1    0    0    0  0.13425222337E+02  0.16657320654E+02 -0.16359124804E+02  0.98068162140E+02  0.94297616805E+02 0.  0.
         11    1    3    3    0    0  0.31784918885E+02 -0.22966310313E+02  0.17369975782E+02  0.42888792672E+02  0.51100000000E-03 0. -1.
         22    1    1    0    0    0 -0.13425222337E+02 -0.16657320654E+02  0.16359124804E+02  0.26931837860E+02  0.00000000000E+00 0.  1.
</event>
<event>
 5    1  0.8863861E-005  0.9118800E+02  0.7818608E-02  0.1130116E+00
         25   -1    0    0    0    0  0.00000000000E+00  0.00000000000E+00  0.99999998245E-14  0.12500000000E+03  0.12500000000E+03 0.  0.
        -11    1    3    3    0    0 -0.15908463974E+02  0.78941991248E+01  0.36340490494E+02  0.40447853533E+02  0.51100000000E-03 0. -1.
         23    2    1    0    0    0  0.12489017999E+02  0.27687528789E+02 -0.48387834467E+01  0.94243071573E+02  0.89082927059E+02 0.  0.
         11    1    3    3    0    0  0.28397481972E+02  0.19793329664E+02 -0.41179273940E+02  0.53795218041E+02  0.51100000000E-03 0.  1.
         22    1    1    0    0    0 -0.12489017999E+02 -0.27687528789E+02  0.48387834467E+01  0.30756928427E+02  0.00000000000E+00 0.  1.
</event>
<event>
 5    1  0.8863861E-005  0.9118800E+02  0.7818608E-02  0.1130116E+00
         25   -1    0    0    0    0  0.00000000000E+00  0.00000000000E+00  0.99999998245E-14  0.12500000000E+03  0.12500000000E+03 0.  0.
        -11    1    3    3    0    0  0.23210039249E+02 -0.54229443221E+02  0.13681284215E+02  0.60553414207E+02  0.51100000000E-03 0. -1.
         23    2    1    0    0    0  0.19245249773E+02 -0.21222203668E+02  0.41245920744E+00  0.96348094480E+02  0.91989258177E+02 0.  0.
         11    1    3    3    0    0 -0.39647894767E+01  0.33007239553E+02 -0.13268825007E+02  0.35794680273E+02  0.51100000000E-03 0.  1.
         22    1    1    0    0    0 -0.19245249773E+02  0.21222203668E+02 -0.41245920744E+00  0.28651905520E+02  0.00000000000E+00 0. -1.
</event>
<event>
 5    1  0.8863861E-005  0.9118800E+02  0.7818608E-02  0.1130116E+00
         25   -1    0    0    0    0  0.00000000000E+00  0.00000000000E+00  0.99999998245E-14  0.12500000000E+03  0.12500000000E+03 0.  0.
        -11    1    3    3    0    0 -0.31473282955E+02  0.76197157814E+01 -0.53290601909E+02  0.62357965495E+02  0.51100000000E-03 0. -1.
         23    2    1    0    0    0 -0.13373185911E+02  0.15454675260E+01 -0.26765776472E+02  0.95039403186E+02  0.90193407722E+02 0.  0.
         11    1    3    3    0    0  0.18100097044E+02 -0.60742482554E+01  0.26524825436E+02  0.32681437691E+02  0.51100000000E-03 0.  1.
         22    1    1    0    0    0  0.13373185911E+02 -0.15454675260E+01  0.26765776472E+02  0.29960596814E+02  0.00000000000E+00 0. -1.
</event>
<event>
 5    1  0.8863861E-005  0.9118800E+02  0.7818608E-02  0.1130116E+00
         25   -1    0    0    0    0  0.00000000000E+00  0.00000000000E+00  0.99999998245E-14  0.12500000000E+03  0.12500000000E+03 0.  0.
        -11    1    3    3    0    0 -0.29832939462E+02 -0.26925813552E+02 -0.10418668095E+02  0.41515688089E+02  0.51100000000E-03 0.  1.
         23    2    1    0    0    0  0.22953758782E+02 -0.93760937424E+01 -0.12602594334E+02  0.97186126483E+02  0.93121058954E+02 0.  0.
         11    1    3    3    0    0  0.52786698244E+02  0.17549719809E+02 -0.21839262394E+01  0.55670438394E+02  0.51100000000E-03 0. -1.
         22    1    1    0    0    0 -0.22953758782E+02  0.93760937424E+01  0.12602594334E+02  0.27813873517E+02  0.00000000000E+00 0.  1.
</event>
<event>
 5    1  0.8863861E-005  0.9118800E+02  0.7818608E-02  0.1130116E+00
         25   -1    0    0    0    0  0.00000000000E+00  0.00000000000E+00  0.99999998245E-14  0.12500000000E+03  0.12500000000E+03 0.  0.
        -11    1    3    3    0    0 -0.97821407227E+01  0.53386825022E+02  0.50778351616E+01  0.54512638656E+02  0.51100000000E-03 0.  1.
         23    2    1    0    0    0 -0.21890990137E+02  0.14251050096E+02  0.12328775403E+02  0.96115634316E+02  0.91672834465E+02 0.  0.
         11    1    3    3    0    0 -0.12108849415E+02 -0.39135774926E+02  0.72509402414E+01  0.41602995659E+02  0.51100000000E-03 0. -1.
         22    1    1    0    0    0  0.21890990137E+02 -0.14251050096E+02 -0.12328775403E+02  0.28884365684E+02  0.00000000000E+00 0.  1.
</event>
<event>
 5    1  0.8863861E-005  0.9118800E+02  0.7818608E-02  0.1130116E+00
         25   -1    0    0    0    0  0.00000000000E+00  0.00000000000E+00  0.99999998245E-14  0.12500000000E+03  0.12500000000E+03 0.  0.
        -11    1    3    3    0    0  0.53825346176E+01  0.20634791743E+02  0.48498547231E+02  0.52979952746E+02  0.51100000000E-03 0.  1.
         23    2    1    0    0    0 -0.10796422154E+02 -0.11077866617E+02  0.24879914137E+02  0.95703379247E+02  0.91108972180E+02 0.  0.
         11    1    3    3    0    0 -0.16178956772E+02 -0.31712658360E+02 -0.23618633094E+02  0.42723426501E+02  0.51100000000E-03 0. -1.
         22    1    1    0    0    0  0.10796422154E+02  0.11077866617E+02 -0.24879914137E+02  0.29296620753E+02  0.00000000000E+00 0.  1.
</event>
<event>
 5    1  0.8863861E-005  0.9118800E+02  0.7818608E-02  0.1130116E+00
         25   -1    0    0    0    0  0.00000000000E+00  0.00000000000E+00  0.99999998245E-14  0.12500000000E+03  0.12500000000E+03 0.  0.
        -11    1    3    3    0    0 -0.51910003090E+02 -0.27065981500E+02  0.92865837828E+01  0.59274416184E+02  0.51100000000E-03 0.  1.
         23    2    1    0    0    0 -0.21290680388E+02 -0.11752273678E+02  0.18169282613E+02  0.94643257113E+02  0.89642703430E+02 0.  0.
         11    1    3    3    0    0  0.30619322701E+02  0.15313707821E+02  0.88826988306E+01  0.35368840930E+02  0.51100000000E-03 0. -1.
         22    1    1    0    0    0  0.21290680388E+02  0.11752273678E+02 -0.18169282613E+02  0.30356742887E+02  0.00000000000E+00 0.  1.
</event>
<event>
 5    1  0.8863861E-005  0.9118800E+02  0.7818608E-02  0.1130116E+00
         25   -1    0    0    0    0  0.00000000000E+00  0.00000000000E+00  0.99999998245E-14  0.12500000000E+03  0.12500000000E+03 0.  0.
        -11    1    3    3    0    0 -0.12276474021E+02  0.38797453958E+02  0.25527485464E+02  0.48037555750E+02  0.51100000000E-03 0. -1.
         23    2    1    0    0    0 -0.60014259009E+01 -0.57780023888E+01  0.30552447351E+02  0.93332122528E+02  0.87795390722E+02 0.  0.
         11    1    3    3    0    0  0.62750481200E+01 -0.44575456347E+02  0.50249618863E+01  0.45294566779E+02  0.51100000000E-03 0.  1.
         22    1    1    0    0    0  0.60014259009E+01  0.57780023888E+01 -0.30552447351E+02  0.31667877472E+02  0.00000000000E+00 0. -1.
</event>
<event>
 5    1  0.8863861E-005  0.9118800E+02  0.7818608E-02  0.1130116E+00
         25   -1    0    0    0    0  0.00000000000E+00  0.00000000000E+00  0.99999998245E-14  0.12500000000E+03  0.12500000000E+03 0.  0.
        -11    1    3    3    0    0 -0.47260691270E+02  0.20595752415E+02  0.22625958135E+02  0.56300017217E+02  0.51100000000E-03 0.  1.
         23    2    1    0    0    0 -0.28762755410E+02 -0.72765992996E+01  0.18573973303E+02  0.89996607587E+02  0.82910505347E+02 0.  0.
         11    1    3    3    0    0  0.18497935860E+02 -0.27872351715E+02 -0.40519848320E+01  0.33696590370E+02  0.51100000000E-03 0. -1.
         22    1    1    0    0    0  0.28762755410E+02  0.72765992996E+01 -0.18573973303E+02  0.35003392413E+02  0.00000000000E+00 0.  1.
</event>
<event>
 5    1  0.8863861E-005  0.9118800E+02  0.7818608E-02  0.1130116E+00
         25   -1    0    0    0    0  0.00000000000E+00  0.00000000000E+00  0.99999998245E-14  0.12500000000E+03  0.12500000000E+03 0.  0.
        -11    1    3    3    0    0  0.60894340675E+02  0.32552518331E+01 -0.86242574514E+01  0.61588109303E+02  0.51100000000E-03 0. -1.
         23    2    1    0    0    0  0.26188219362E+02  0.88793960772E+01 -0.32021472715E+01  0.97162610481E+02  0.93089487163E+02 0.  0.
         11    1    3    3    0    0 -0.34706121312E+02  0.56241442441E+01  0.54221101799E+01  0.35574501178E+02  0.51100000000E-03 0.  1.
         22    1    1    0    0    0 -0.26188219362E+02 -0.88793960772E+01  0.32021472715E+01  0.27837389519E+02  0.00000000000E+00 0. -1.
</event>
<event>
 4    1  0.8863861E-005  0.9118800E+02  0.7818608E-02  0.1130116E+00
         25   -1    0    0    0    0  0.00000000000E+00  0.00000000000E+00  0.99999998245E-14  0.12500000000E+03  0.12500000000E+03 0.  0.
        -11    1    1    0    0    0 -0.49096481293E+01 -0.14492399637E+02 -0.61948142646E+00  0.15313982156E+02  0.51100000000E-03 0. -1.
         11    1    1    0    0    0 -0.20220568657E+02  0.25370799977E+02 -0.45600029648E+02  0.55963484456E+02  0.51100000000E-03 0.  1.
         22    1    1    0    0    0  0.25130216786E+02 -0.10878400341E+02  0.46219511074E+02  0.53722533388E+02  0.00000000000E+00 0.  1.
</event>
<event>
 5    1  0.8863861E-005  0.9118800E+02  0.7818608E-02  0.1130116E+00
         25   -1    0    0    0    0  0.00000000000E+00  0.00000000000E+00  0.99999998245E-14  0.12500000000E+03  0.12500000000E+03 0.  0.
        -11    1    3    3    0    0 -0.29069349624E+02  0.18981454687E+02 -0.43292397647E+02  0.55493733015E+02  0.51100000000E-03 0. -1.
         23    2    1    0    0    0 -0.99450454482E+01  0.26814895470E+02 -0.99549784052E+01  0.94717263283E+02  0.89745840130E+02 0.  0.
         11    1    3    3    0    0  0.19124304176E+02  0.78334407829E+01  0.33337419242E+02  0.39223530268E+02  0.51100000000E-03 0.  1.
         22    1    1    0    0    0  0.99450454482E+01 -0.26814895470E+02  0.99549784052E+01  0.30282736717E+02  0.00000000000E+00 0. -1.
</event>
<event>
 5    1  0.8863861E-005  0.9118800E+02  0.7818608E-02  0.1130116E+00
         25   -1    0    0    0    0  0.00000000000E+00  0.00000000000E+00  0.99999998245E-14  0.12500000000E+03  0.12500000000E+03 0.  0.
        -11    1    3    3    0    0 -0.32720192529E+02  0.10903446675E+02 -0.36341059422E+02  0.50101584293E+02  0.51100000000E-03 0.  1.
         23    2    1    0    0    0  0.84654458655E+01  0.20445334159E+02 -0.19135687084E+02  0.95745086178E+02  0.91166175440E+02 0.  0.
         11    1    3    3    0    0  0.41185638394E+02  0.95418874839E+01  0.17205372338E+02  0.45643501884E+02  0.51100000000E-03 0. -1.
         22    1    1    0    0    0 -0.84654458655E+01 -0.20445334159E+02  0.19135687084E+02  0.29254913822E+02  0.00000000000E+00 0.  1.
</event>
<event>
 5    1  0.8863861E-005  0.9118800E+02  0.7818608E-02  0.1130116E+00
         25   -1    0    0    0    0  0.00000000000E+00  0.00000000000E+00  0.99999998245E-14  0.12500000000E+03  0.12500000000E+03 0.  0.
        -11    1    3    3    0    0 -0.10224511887E+02 -0.23789112545E+02  0.23051247538E+02  0.34667312159E+02  0.51100000000E-03 0.  1.
         23    2    1    0    0    0  0.19277902321E+02  0.70175216006E+01 -0.20759833826E+02  0.95813464957E+02  0.91259882968E+02 0.  0.
         11    1    3    3    0    0  0.29502414208E+02  0.30806634146E+02 -0.43811081364E+02  0.61146152798E+02  0.51100000000E-03 0. -1.
         22    1    1    0    0    0 -0.19277902321E+02 -0.70175216006E+01  0.20759833826E+02  0.29186535043E+02  0.00000000000E+00 0. -1.
</event>
<event>
 5    1  0.8863861E-005  0.9118800E+02  0.7818608E-02  0.1130116E+00
         25   -1    0    0    0    0  0.00000000000E+00  0.00000000000E+00  0.99999998245E-14  0.12500000000E+03  0.12500000000E+03 0.  0.
        -11    1    3    3    0    0  0.28622984515E+02  0.11685054443E+01 -0.36412167648E+02  0.46330191027E+02  0.51100000000E-03 0.  1.
         23    2    1    0    0    0  0.85967554880E+01  0.27156260284E+02  0.15105979819E+01  0.96475473995E+02  0.92162185840E+02 0.  0.
         11    1    3    3    0    0 -0.20026229027E+02  0.25987754839E+02  0.37922765630E+02  0.50145282968E+02  0.51100000000E-03 0. -1.
         22    1    1    0    0    0 -0.85967554880E+01 -0.27156260284E+02 -0.15105979819E+01  0.28524526005E+02  0.00000000000E+00 0. -1.
</event>
<event>
 5    1  0.8863861E-005  0.9118800E+02  0.7818608E-02  0.1130116E+00
         25   -1    0    0    0    0  0.00000000000E+00  0.00000000000E+00  0.99999998245E-14  0.12500000000E+03  0.12500000000E+03 0.  0.
        -11    1    3    3    0    0  0.41463499809E+02 -0.26030629035E+02 -0.20932606724E+02  0.53244619342E+02  0.51100000000E-03 0.  1.
         23    2    1    0    0    0  0.16629272780E+02 -0.13083194738E+01 -0.31080424435E+02  0.89726253444E+02  0.82501899136E+02 0.  0.
         11    1    3    3    0    0 -0.24834227029E+02  0.24722309562E+02 -0.10147817711E+02  0.36481634102E+02  0.51100000000E-03 0. -1.
         22    1    1    0    0    0 -0.16629272780E+02  0.13083194738E+01  0.31080424435E+02  0.35273746556E+02  0.00000000000E+00 0.  1.
</event>
<event>
 5    1  0.8863861E-005  0.9118800E+02  0.7818608E-02  0.1130116E+00
         25   -1    0    0    0    0  0.00000000000E+00  0.00000000000E+00  0.99999998245E-14  0.12500000000E+03  0.12500000000E+03 0.  0.
        -11    1    3    3    0    0  0.39450004681E+01 -0.59074684714E+02  0.84361646988E+00  0.59212271462E+02  0.51100000000E-03 0.  1.
         23    2    1    0    0    0  0.15490826885E+02 -0.25071353463E+02  0.39910828089E+01  0.95260006321E+02  0.90498627504E+02 0.  0.
         11    1    3    3    0    0  0.11545826417E+02  0.34003331251E+02  0.31474663390E+01  0.36047734858E+02  0.51100000000E-03 0. -1.
         22    1    1    0    0    0 -0.15490826885E+02  0.25071353463E+02 -0.39910828089E+01  0.29739993679E+02  0.00000000000E+00 0.  1.
</event>
<event>
 5    1  0.8863861E-005  0.9118800E+02  0.7818608E-02  0.1130116E+00
         25   -1    0    0    0    0  0.00000000000E+00  0.00000000000E+00  0.99999998245E-14  0.12500000000E+03  0.12500000000E+03 0.  0.
        -11    1    3    3    0    0 -0.21234124758E+02 -0.18563589181E+02  0.49166724572E+02  0.56682110960E+02  0.51100000000E-03 0.  1.
         23    2    1    0    0    0 -0.15013476679E+02 -0.21470943154E+02  0.92032316898E+01  0.97231216169E+02  0.93181564927E+02 0.  0.
         11    1    3    3    0    0  0.62206480786E+01 -0.29073539732E+01 -0.39963492882E+02  0.40549105209E+02  0.51100000000E-03 0. -1.
         22    1    1    0    0    0  0.15013476679E+02  0.21470943154E+02 -0.92032316898E+01  0.27768783831E+02  0.00000000000E+00 0.  1.
</event>
<event>
 5    1  0.8863861E-005  0.9118800E+02  0.7818608E-02  0.1130116E+00
         25   -1    0    0    0    0  0.00000000000E+00  0.00000000000E+00  0.99999998245E-14  0.12500000000E+03  0.12500000000E+03 0.  0.
        -11    1    3    3    0    0  0.26947858083E+02  0.29445407909E+02  0.43936623849E+00  0.39917566874E+02  0.51100000000E-03 0.  1.
         23    2    1    0    0    0 -0.41358675672E+01 -0.67603497302E+01 -0.28292606341E+02  0.95618384957E+02  0.90992286701E+02 0.  0.
         11    1    3    3    0    0 -0.31083725650E+02 -0.36205757639E+02 -0.28731972579E+02  0.55700818083E+02  0.51100000000E-03 0. -1.
         22    1    1    0    0    0  0.41358675672E+01  0.67603497302E+01  0.28292606341E+02  0.29381615043E+02  0.00000000000E+00 0. -1.
</event>
<event>
 5    1  0.8863861E-005  0.9118800E+02  0.7818608E-02  0.1130116E+00
         25   -1    0    0    0    0  0.00000000000E+00  0.00000000000E+00  0.99999998245E-14  0.12500000000E+03  0.12500000000E+03 0.  0.
        -11    1    3    3    0    0 -0.26077099849E+01  0.32277040415E+02  0.44912076640E+02  0.55368782881E+02  0.51100000000E-03 0. -1.
         23    2    1    0    0    0  0.16672746901E+02  0.35038347184E+01  0.23087031671E+02  0.96307346265E+02  0.91933870615E+02 0.  0.
         11    1    3    3    0    0  0.19280456886E+02 -0.28773205697E+02 -0.21825044969E+02  0.40938563384E+02  0.51100000000E-03 0.  1.
         22    1    1    0    0    0 -0.16672746901E+02 -0.35038347184E+01 -0.23087031671E+02  0.28692653735E+02  0.00000000000E+00 0.  1.
</event>
<event>
 5    1  0.8863861E-005  0.9118800E+02  0.7818608E-02  0.1130116E+00
         25   -1    0    0    0    0  0.00000000000E+00  0.00000000000E+00  0.99999998245E-14  0.12500000000E+03  0.12500000000E+03 0.  0.
        -11    1    3    3    0    0  0.54798003985E+02 -0.32959915371E+01 -0.15237995909E+02  0.56972636595E+02  0.51100000000E-03 0. -1.
         23    2    1    0    0    0  0.26273815694E+02 -0.11248454407E+02  0.87808996148E+01  0.95101081697E+02  0.90278848155E+02 0.  0.
         11    1    3    3    0    0 -0.28524188292E+02 -0.79524628701E+01  0.24018895524E+02  0.38128445102E+02  0.51100000000E-03 0.  1.
         22    1    1    0    0    0 -0.26273815694E+02  0.11248454407E+02 -0.87808996148E+01  0.29898918303E+02  0.00000000000E+00 0. -1.
</event>
<event>
 5    1  0.8863861E-005  0.9118800E+02  0.7818608E-02  0.1130116E+00
         25   -1    0    0    0    0  0.00000000000E+00  0.00000000000E+00  0.99999998245E-14  0.12500000000E+03  0.12500000000E+03 0.  0.
        -11    1    3    3    0    0  0.37691439356E+02 -0.43394107186E+02 -0.14644721485E+02  0.59314087760E+02  0.51100000000E-03 0. -1.
         23    2    1    0    0    0  0.53050466707E+01 -0.27280865084E+02 -0.78572186782E+01  0.96118777636E+02  0.91677120422E+02 0.  0.
         11    1    3    3    0    0 -0.32386392686E+02  0.16113242102E+02  0.67875028072E+01  0.36804689876E+02  0.51100000000E-03 0.  1.
         22    1    1    0    0    0 -0.53050466707E+01  0.27280865084E+02  0.78572186782E+01  0.28881222364E+02  0.00000000000E+00 0. -1.
</event>
<event>
 5    1  0.8863861E-005  0.9118800E+02  0.7818608E-02  0.1130116E+00
         25   -1    0    0    0    0  0.00000000000E+00  0.00000000000E+00  0.99999998245E-14  0.12500000000E+03  0.12500000000E+03 0.  0.
        -11    1    3    3    0    0  0.24037484556E+02 -0.15884953557E+02  0.37209209061E+02  0.47060149304E+02  0.51100000000E-03 0.  1.
         23    2    1    0    0    0 -0.16229157902E+02 -0.21446865791E+02  0.86158059633E+01  0.96758439652E+02  0.92545177687E+02 0.  0.
         11    1    3    3    0    0 -0.40266642458E+02 -0.55619122338E+01 -0.28593403098E+02  0.49698290348E+02  0.51100000000E-03 0. -1.
         22    1    1    0    0    0  0.16229157902E+02  0.21446865791E+02 -0.86158059633E+01  0.28241560348E+02  0.00000000000E+00 0. -1.
</event>
<event>
 5    1  0.8863861E-005  0.9118800E+02  0.7818608E-02  0.1130116E+00
         25   -1    0    0    0    0  0.00000000000E+00  0.00000000000E+00  0.99999998245E-14  0.12500000000E+03  0.12500000000E+03 0.  0.
        -11    1    3    3    0    0  0.30385427747E+02  0.66215388188E+01 -0.11852441011E+02  0.33280615287E+02  0.51100000000E-03 0. -1.
         23    2    1    0    0    0 -0.29329087064E+02 -0.45094208984E+01  0.74803742550E+00  0.95316843415E+02  0.90577098948E+02 0.  0.
         11    1    3    3    0    0 -0.59714514811E+02 -0.11130959717E+02  0.12600478437E+02  0.62036228128E+02  0.51100000000E-03 0.  1.
         22    1    1    0    0    0  0.29329087064E+02  0.45094208984E+01 -0.74803742550E+00  0.29683156585E+02  0.00000000000E+00 0.  1.
</event>
<event>
 5    1  0.8863861E-005  0.9118800E+02  0.7818608E-02  0.1130116E+00
         25   -1    0    0    0    0  0.00000000000E+00  0.00000000000E+00  0.99999998245E-14  0.12500000000E+03  0.12500000000E+03 0.  0.
        -11    1    3    3    0    0  0.20349501576E+02 -0.35627450264E+02 -0.31256006764E+02  0.51578633036E+02  0.51100000000E-03 0. -1.
         23    2    1    0    0    0 -0.95860702875E+01 -0.52277672263E+01 -0.28669424888E+02  0.94321697943E+02  0.89193186319E+02 0.  0.
         11    1    3    3    0    0 -0.29935571863E+02  0.30399683038E+02  0.25865818768E+01  0.42743064907E+02  0.51100000000E-03 0.  1.
         22    1    1    0    0    0  0.95860702875E+01  0.52277672263E+01  0.28669424888E+02  0.30678302057E+02  0.00000000000E+00 0. -1.
</event>
<event>
 5    1  0.8863861E-005  0.9118800E+02  0.7818608E-02  0.1130116E+00
         25   -1    0    0    0    0  0.00000000000E+00  0.00000000000E+00  0.99999998245E-14  0.12500000000E+03  0.12500000000E+03 0.  0.
        -11    1    3    3    0    0  0.22434248126E+02 -0.39724321909E+01  0.57277799115E+02  0.61642696065E+02  0.51100000000E-03 0.  1.
         23    2    1    0    0    0  0.57090659109E+01 -0.69199877935E+01  0.29159316104E+02  0.94491880092E+02  0.89431370464E+02 0.  0.
         11    1    3    3    0    0 -0.16725182215E+02 -0.29475556026E+01 -0.28118483011E+02  0.32849184027E+02  0.51100000000E-03 0. -1.
         22    1    1    0    0    0 -0.57090659109E+01  0.69199877935E+01 -0.29159316104E+02  0.30508119908E+02  0.00000000000E+00 0.  1.
</event>
<event>
 5    1  0.8863861E-005  0.9118800E+02  0.7818608E-02  0.1130116E+00
         25   -1    0    0    0    0  0.00000000000E+00  0.00000000000E+00  0.99999998245E-14  0.12500000000E+03  0.12500000000E+03 0.  0.
        -11    1    3    3    0    0  0.26300385804E+02 -0.22801196401E+02 -0.14281885802E+02  0.37624155978E+02  0.51100000000E-03 0.  1.
         23    2    1    0    0    0  0.57477156594E+01  0.19847457500E+02  0.20130507917E+02  0.96152207129E+02  0.91722689571E+02 0.  0.
         11    1    3    3    0    0 -0.20552670145E+02  0.42648653901E+02  0.34412393720E+02  0.58528051150E+02  0.51100000000E-03 0. -1.
         22    1    1    0    0    0 -0.57477156594E+01 -0.19847457500E+02 -0.20130507917E+02  0.28847792871E+02  0.00000000000E+00 0. -1.
</event>
<event>
 5    1  0.8863861E-005  0.9118800E+02  0.7818608E-02  0.1130116E+00
         25   -1    0    0    0    0  0.00000000000E+00  0.00000000000E+00  0.99999998245E-14  0.12500000000E+03  0.12500000000E+03 0.  0.
        -11    1    3    3    0    0  0.25130402836E+02  0.29803205946E+02 -0.65520295210E+01  0.39530966627E+02  0.51100000000E-03 0. -1.
         23    2    1    0    0    0 -0.97249160242E+01 -0.94436730092E+01 -0.26137840760E+02  0.95556092800E+02  0.90906673023E+02 0.  0.
         11    1    3    3    0    0 -0.34855318860E+02 -0.39246878955E+02 -0.19585811239E+02  0.56025126173E+02  0.51100000000E-03 0.  1.
         22    1    1    0    0    0  0.97249160242E+01  0.94436730092E+01  0.26137840760E+02  0.29443907200E+02  0.00000000000E+00 0. -1.
</event>
<event>
 5    1  0.8863861E-005  0.9118800E+02  0.7818608E-02  0.1130116E+00
         25   -1    0    0    0    0  0.00000000000E+00  0.00000000000E+00  0.99999998245E-14  0.12500000000E+03  0.12500000000E+03 0.  0.
        -11    1    3    3    0    0  0.91690716556E+01  0.44901927477E+02 -0.28520791917E+02  0.53978611857E+02  0.51100000000E-03 0. -1.
         23    2    1    0    0    0  0.24773421724E+02  0.10218284571E+02 -0.89784756114E+01  0.96737855923E+02  0.92517371238E+02 0.  0.
         11    1    3    3    0    0  0.15604350069E+02 -0.34683642906E+02  0.19542316306E+02  0.42759244066E+02  0.51100000000E-03 0.  1.
         22    1    1    0    0    0 -0.24773421724E+02 -0.10218284571E+02  0.89784756114E+01  0.28262144077E+02  0.00000000000E+00 0. -1.
</event>
<event>
 5    1  0.8863861E-005  0.9118800E+02  0.7818608E-02  0.1130116E+00
         25   -1    0    0    0    0  0.00000000000E+00  0.00000000000E+00  0.99999998245E-14  0.12500000000E+03  0.12500000000E+03 0.  0.
        -11    1    3    3    0    0  0.44304577791E+02 -0.54501889334E+01  0.16132220360E+02  0.47464183409E+02  0.51100000000E-03 0.  1.
         23    2    1    0    0    0  0.18400879487E+02 -0.80690951385E+01 -0.22995966519E+02  0.94462856413E+02  0.89390794288E+02 0.  0.
         11    1    3    3    0    0 -0.25903698303E+02 -0.26189062051E+01 -0.39128186879E+02  0.46998673005E+02  0.51100000000E-03 0. -1.
         22    1    1    0    0    0 -0.18400879487E+02  0.80690951385E+01  0.22995966519E+02  0.30537143587E+02  0.00000000000E+00 0. -1.
</event>
<event>
 5    1  0.8863861E-005  0.9118800E+02  0.7818608E-02  0.1130116E+00
         25   -1    0    0    0    0  0.00000000000E+00  0.00000000000E+00  0.99999998245E-14  0.12500000000E+03  0.12500000000E+03 0.  0.
        -11    1    3    3    0    0 -0.11981234664E+02  0.30238618055E+02 -0.12591028670E+02  0.34877758087E+02  0.51100000000E-03 0. -1.
         23    2    1    0    0    0 -0.10709533909E+02 -0.28497171918E+02 -0.29322398928E+01  0.94416001657E+02  0.89325250709E+02 0.  0.
         11    1    3    3    0    0  0.12717007548E+01 -0.58735789973E+02  0.96587887774E+01  0.59538243570E+02  0.51100000000E-03 0.  1.
         22    1    1    0    0    0  0.10709533909E+02  0.28497171918E+02  0.29322398928E+01  0.30583998343E+02  0.00000000000E+00 0.  1.
</event>
<event>
 5    1  0.8863861E-005  0.9118800E+02  0.7818608E-02  0.1130116E+00
         25   -1    0    0    0    0  0.00000000000E+00  0.00000000000E+00  0.99999998245E-14  0.12500000000E+03  0.12500000000E+03 0.  0.
        -11    1    3    3    0    0 -0.41343117206E+02  0.13059701984E+02 -0.25896899030E+02  0.50502064669E+02  0.51100000000E-03 0.  1.
         23    2    1    0    0    0 -0.65593747479E+01 -0.13906397535E+02 -0.26321814045E+02  0.94516378429E+02  0.89465605722E+02 0.  0.
         11    1    3    3    0    0  0.34783742458E+02 -0.26966099519E+02 -0.42491501496E+00  0.44014313759E+02  0.51100000000E-03 0. -1.
         22    1    1    0    0    0  0.65593747479E+01  0.13906397535E+02  0.26321814045E+02  0.30483621571E+02  0.00000000000E+00 0.  1.
</event>
<event>
 5    1  0.8863861E-005  0.9118800E+02  0.7818608E-02  0.1130116E+00
         25   -1    0    0    0    0  0.00000000000E+00  0.00000000000E+00  0.99999998245E-14  0.12500000000E+03  0.12500000000E+03 0.  0.
        -11    1    3    3    0    0 -0.26684915288E+02 -0.51203328047E+02 -0.16408301601E+02  0.60025810021E+02  0.51100000000E-03 0.  1.
         23    2    1    0    0    0 -0.32628432917E+00 -0.27140103773E+02 -0.60063532453E+01  0.97201295469E+02  0.93141418645E+02 0.  0.
         11    1    3    3    0    0  0.26358630959E+02  0.24063224273E+02  0.10401948355E+02  0.37175485448E+02  0.51100000000E-03 0. -1.
         22    1    1    0    0    0  0.32628432917E+00  0.27140103773E+02  0.60063532453E+01  0.27798704531E+02  0.00000000000E+00 0.  1.
</event>
<event>
 5    1  0.8863861E-005  0.9118800E+02  0.7818608E-02  0.1130116E+00
         25   -1    0    0    0    0  0.00000000000E+00  0.00000000000E+00  0.99999998245E-14  0.12500000000E+03  0.12500000000E+03 0.  0.
        -11    1    3    3    0    0 -0.12582475195E+02  0.50032953273E+02  0.18899745847E+02  0.54943748403E+02  0.51100000000E-03 0. -1.
         23    2    1    0    0    0 -0.12486777011E+02  0.11216162056E+02  0.25653134800E+02  0.94343757300E+02  0.89224096101E+02 0.  0.
         11    1    3    3    0    0  0.95698183885E-01 -0.38816791217E+02  0.67533889532E+01  0.39400008897E+02  0.51100000000E-03 0.  1.
         22    1    1    0    0    0  0.12486777011E+02 -0.11216162056E+02 -0.25653134800E+02  0.30656242700E+02  0.00000000000E+00 0. -1.
</event>
<event>
 5    1  0.8863861E-005  0.9118800E+02  0.7818608E-02  0.1130116E+00
         25   -1    0    0    0    0  0.00000000000E+00  0.00000000000E+00  0.99999998245E-14  0.12500000000E+03  0.12500000000E+03 0.  0.
        -11    1    3    3    0    0 -0.37527361297E+01  0.16946157297E+01  0.56295033694E+02  0.56445421159E+02  0.51100000000E-03 0.  1.
         23    2    1    0    0    0  0.15957027449E+02  0.87353607117E+01  0.26499850432E+02  0.92856955267E+02  0.87116237389E+02 0.  0.
         11    1    3    3    0    0  0.19709763579E+02  0.70407449819E+01 -0.29795183262E+02  0.36411534108E+02  0.51100000000E-03 0. -1.
         22    1    1    0    0    0 -0.15957027449E+02 -0.87353607117E+01 -0.26499850432E+02  0.32143044733E+02  0.00000000000E+00 0.  1.
</event>
<event>
 5    1  0.8863861E-005  0.9118800E+02  0.7818608E-02  0.1130116E+00
         25   -1    0    0    0    0  0.00000000000E+00  0.00000000000E+00  0.99999998245E-14  0.12500000000E+03  0.12500000000E+03 0.  0.
        -11    1    3    3    0    0 -0.39569734655E+02 -0.47135990080E+01  0.11078152419E+02  0.41360698466E+02  0.51100000000E-03 0. -1.
         23    2    1    0    0    0 -0.50642038845E+01  0.95941252747E+01 -0.27728733164E+02  0.95224573158E+02  0.90449672688E+02 0.  0.
         11    1    3    3    0    0  0.34505530771E+02  0.14307724283E+02 -0.38806885583E+02  0.53863874692E+02  0.51100000000E-03 0.  1.
         22    1    1    0    0    0  0.50642038845E+01 -0.95941252747E+01  0.27728733164E+02  0.29775426842E+02  0.00000000000E+00 0. -1.
</event>
<event>
 5    1  0.8863861E-005  0.9118800E+02  0.7818608E-02  0.1130116E+00
         25   -1    0    0    0    0  0.00000000000E+00  0.00000000000E+00  0.99999998245E-14  0.12500000000E+03  0.12500000000E+03 0.  0.
        -11    1    3    3    0    0  0.17964336233E+02  0.27601076946E+02  0.25247383094E+02  0.41496592368E+02  0.51100000000E-03 0.  1.
         23    2    1    0    0    0 -0.10035620515E+02 -0.19134316171E+02  0.18803046155E+02  0.96357544115E+02  0.92002097958E+02 0.  0.
         11    1    3    3    0    0 -0.27999956749E+02 -0.46735393116E+02 -0.64443369390E+01  0.54860951746E+02  0.51100000000E-03 0. -1.
         22    1    1    0    0    0  0.10035620515E+02  0.19134316171E+02 -0.18803046155E+02  0.28642455885E+02  0.00000000000E+00 0. -1.
</event>
<event>
 5    1  0.8863861E-005  0.9118800E+02  0.7818608E-02  0.1130116E+00
         25   -1    0    0    0    0  0.00000000000E+00  0.00000000000E+00  0.99999998245E-14  0.12500000000E+03  0.12500000000E+03 0.  0.
        -11    1    3    3    0    0  0.27353424894E+01  0.35248554596E+02  0.18860362360E+01  0.35404799570E+02  0.51100000000E-03 0.  1.
         23    2    1    0    0    0 -0.17587718793E+02 -0.22254644194E+02 -0.23287174332E+01  0.96539150304E+02  0.92248509885E+02 0.  0.
         11    1    3    3    0    0 -0.20323061283E+02 -0.57503198790E+02 -0.42147536692E+01  0.61134350734E+02  0.51100000000E-03 0. -1.
         22    1    1    0    0    0  0.17587718793E+02  0.22254644194E+02  0.23287174332E+01  0.28460849696E+02  0.00000000000E+00 0. -1.
</event>
<event>
 5    1  0.8863861E-005  0.9118800E+02  0.7818608E-02  0.1130116E+00
         25   -1    0    0    0    0  0.00000000000E+00  0.00000000000E+00  0.99999998245E-14  0.12500000000E+03  0.12500000000E+03 0.  0.
        -11    1    3    3    0    0 -0.12879510584E+02  0.25919335486E+02  0.19568036238E+00  0.28943600950E+02  0.51100000000E-03 0.  1.
         23    2    1    0    0    0 -0.65330434591E+01 -0.33312391151E+02 -0.10498611624E+02  0.89466678919E+02  0.82107671564E+02 0.  0.
         11    1    3    3    0    0  0.63464671245E+01 -0.59231726637E+02 -0.10694291986E+02  0.60523077968E+02  0.51100000000E-03 0. -1.
         22    1    1    0    0    0  0.65330434591E+01  0.33312391151E+02  0.10498611624E+02  0.35533321081E+02  0.00000000000E+00 0. -1.
</event>
<event>
 5    1  0.8863861E-005  0.9118800E+02  0.7818608E-02  0.1130116E+00
         25   -1    0    0    0    0  0.00000000000E+00  0.00000000000E+00  0.99999998245E-14  0.12500000000E+03  0.12500000000E+03 0.  0.
        -11    1    3    3    0    0 -0.11192344009E+02  0.14565315369E+00  0.48740939675E+02  0.50009688861E+02  0.51100000000E-03 0.  1.
         23    2    1    0    0    0 -0.17956246785E+02 -0.21167762317E+02  0.86316443215E+01  0.95931008896E+02  0.91420742854E+02 0.  0.
         11    1    3    3    0    0 -0.67639027755E+01 -0.21313415471E+02 -0.40109295354E+02  0.45921320035E+02  0.51100000000E-03 0. -1.
         22    1    1    0    0    0  0.17956246785E+02  0.21167762317E+02 -0.86316443215E+01  0.29068991104E+02  0.00000000000E+00 0. -1.
</event>
<event>
 5    1  0.8863861E-005  0.9118800E+02  0.7818608E-02  0.1130116E+00
         25   -1    0    0    0    0  0.00000000000E+00  0.00000000000E+00  0.99999998245E-14  0.12500000000E+03  0.12500000000E+03 0.  0.
        -11    1    3    3    0    0  0.11978223215E+02  0.11070351131E+02  0.59925133120E+02  0.62105169554E+02  0.51100000000E-03 0. -1.
         23    2    1    0    0    0  0.82468465660E+01  0.95875777734E+00  0.27421395813E+02  0.96349299431E+02  0.91990895516E+02 0.  0.
         11    1    3    3    0    0 -0.37313766493E+01 -0.10111593353E+02 -0.32503737308E+02  0.34244129877E+02  0.51100000000E-03 0.  1.
         22    1    1    0    0    0 -0.82468465660E+01 -0.95875777734E+00 -0.27421395813E+02  0.28650700569E+02  0.00000000000E+00 0. -1.
</event>
<event>
 5    1  0.8863861E-005  0.9118800E+02  0.7818608E-02  0.1130116E+00
         25   -1    0    0    0    0  0.00000000000E+00  0.00000000000E+00  0.99999998245E-14  0.12500000000E+03  0.12500000000E+03 0.  0.
        -11    1    3    3    0    0 -0.29028142243E+02  0.30325469271E+02 -0.57634638607E+01  0.42373159483E+02  0.51100000000E-03 0.  1.
         23    2    1    0    0    0  0.12358595815E+02  0.23662766944E+01 -0.25884122614E+02  0.96219416972E+02  0.91814237692E+02 0.  0.
         11    1    3    3    0    0  0.41386738058E+02 -0.27959192577E+02 -0.20120658754E+02  0.53846257489E+02  0.51100000000E-03 0. -1.
         22    1    1    0    0    0 -0.12358595815E+02 -0.23662766944E+01  0.25884122614E+02  0.28780583028E+02  0.00000000000E+00 0.  1.
</event>
<event>
 5    1  0.8863861E-005  0.9118800E+02  0.7818608E-02  0.1130116E+00
         25   -1    0    0    0    0  0.00000000000E+00  0.00000000000E+00  0.99999998245E-14  0.12500000000E+03  0.12500000000E+03 0.  0.
        -11    1    3    3    0    0  0.22199822426E+02  0.49633387135E+02 -0.29758082303E+00  0.54372730195E+02  0.51100000000E-03 0.  1.
         23    2    1    0    0    0  0.92825894488E+01  0.14734660636E+02 -0.21602195518E+02  0.97252359702E+02  0.93209923964E+02 0.  0.
         11    1    3    3    0    0 -0.12917232977E+02 -0.34898726499E+02 -0.21304614695E+02  0.42879629506E+02  0.51100000000E-03 0. -1.
         22    1    1    0    0    0 -0.92825894488E+01 -0.14734660636E+02  0.21602195518E+02  0.27747640298E+02  0.00000000000E+00 0.  1.
</event>
<event>
 5    1  0.8863861E-005  0.9118800E+02  0.7818608E-02  0.1130116E+00
         25   -1    0    0    0    0  0.00000000000E+00  0.00000000000E+00  0.99999998245E-14  0.12500000000E+03  0.12500000000E+03 0.  0.
        -11    1    3    3    0    0  0.14289050370E+02 -0.32677000702E+01 -0.42385114439E+02  0.44848107547E+02  0.51100000000E-03 0.  1.
         23    2    1    0    0    0 -0.17079163974E+01 -0.32654582750E+02 -0.11630825208E+02  0.90293878811E+02  0.83357481384E+02 0.  0.
         11    1    3    3    0    0 -0.15996966768E+02 -0.29386882679E+02  0.30754289231E+02  0.45445771264E+02  0.51100000000E-03 0. -1.
         22    1    1    0    0    0  0.17079163974E+01  0.32654582750E+02  0.11630825208E+02  0.34706121189E+02  0.00000000000E+00 0.  1.
</event>
<event>
 5    1  0.8863861E-005  0.9118800E+02  0.7818608E-02  0.1130116E+00
         25   -1    0    0    0    0  0.00000000000E+00  0.00000000000E+00  0.99999998245E-14  0.12500000000E+03  0.12500000000E+03 0.  0.
        -11    1    3    3    0    0 -0.20252746839E+01 -0.30439899350E+02 -0.18424980198E+02  0.35639431891E+02  0.51100000000E-03 0. -1.
         23    2    1    0    0    0  0.54681041334E+01  0.25945854833E+02  0.64324101187E+01  0.97715142556E+02  0.93828490550E+02 0.  0.
         11    1    3    3    0    0  0.74933788173E+01  0.56385754183E+02  0.24857390316E+02  0.62075710664E+02  0.51100000000E-03 0.  1.
         22    1    1    0    0    0 -0.54681041334E+01 -0.25945854833E+02 -0.64324101187E+01  0.27284857444E+02  0.00000000000E+00 0.  1.
</event>
<event>
 5    1  0.8863861E-005  0.9118800E+02  0.7818608E-02  0.1130116E+00
         25   -1    0    0    0    0  0.00000000000E+00  0.00000000000E+00  0.99999998245E-14  0.12500000000E+03  0.12500000000E+03 0.  0.
        -11    1    3    3    0    0 -0.34282930640E+02  0.26962655981E+02 -0.39540129047E+02  0.58870416646E+02  0.51100000000E-03 0.  1.
         23    2    1    0    0    0 -0.25780665632E+02  0.10188212074E+02 -0.70726549694E+01  0.96391175591E+02  0.92047780516E+02 0.  0.
         11    1    3    3    0    0  0.85022650071E+01 -0.16774443906E+02  0.32467474077E+02  0.37520758945E+02  0.51100000000E-03 0. -1.
         22    1    1    0    0    0  0.25780665632E+02 -0.10188212074E+02  0.70726549694E+01  0.28608824409E+02  0.00000000000E+00 0.  1.
</event>
<event>
 5    1  0.8863861E-005  0.9118800E+02  0.7818608E-02  0.1130116E+00
         25   -1    0    0    0    0  0.00000000000E+00  0.00000000000E+00  0.99999998245E-14  0.12500000000E+03  0.12500000000E+03 0.  0.
        -11    1    3    3    0    0 -0.40246294394E+02  0.14076899346E+02  0.31050522464E+02  0.52745220193E+02  0.51100000000E-03 0. -1.
         23    2    1    0    0    0 -0.25010843251E+02 -0.15206999715E+02  0.39323011491E+01  0.95465983802E+02  0.90782685301E+02 0.  0.
         11    1    3    3    0    0  0.15235451144E+02 -0.29283899061E+02 -0.27118221315E+02  0.42720763609E+02  0.51100000000E-03 0.  1.
         22    1    1    0    0    0  0.25010843251E+02  0.15206999715E+02 -0.39323011491E+01  0.29534016198E+02  0.00000000000E+00 0. -1.
</event>
<event>
 5    1  0.8863861E-005  0.9118800E+02  0.7818608E-02  0.1130116E+00
         25   -1    0    0    0    0  0.00000000000E+00  0.00000000000E+00  0.99999998245E-14  0.12500000000E+03  0.12500000000E+03 0.  0.
        -11    1    3    3    0    0  0.57514792913E+02  0.27636185294E+01 -0.22501531079E+02  0.61821581122E+02  0.51100000000E-03 0. -1.
         23    2    1    0    0    0  0.31346058819E+02  0.25360732993E+01 -0.53798531870E+01  0.93094672991E+02  0.87456664971E+02 0.  0.
         11    1    3    3    0    0 -0.26168734095E+02 -0.22754523006E+00  0.17121677892E+02  0.31273091869E+02  0.51100000000E-03 0.  1.
         22    1    1    0    0    0 -0.31346058819E+02 -0.25360732993E+01  0.53798531870E+01  0.31905327009E+02  0.00000000000E+00 0. -1.
</event>
<event>
 5    1  0.8863861E-005  0.9118800E+02  0.7818608E-02  0.1130116E+00
         25   -1    0    0    0    0  0.00000000000E+00  0.00000000000E+00  0.99999998245E-14  0.12500000000E+03  0.12500000000E+03 0.  0.
        -11    1    3    3    0    0  0.28205405465E+02  0.17155564772E+02  0.40547165853E+02  0.52287005642E+02  0.51100000000E-03 0. -1.
         23    2    1    0    0    0  0.14754109796E+02 -0.17575194721E+02  0.18105286658E+02  0.95770346729E+02  0.91200804176E+02 0.  0.
         11    1    3    3    0    0 -0.13451295669E+02 -0.34730759492E+02 -0.22441879194E+02  0.43483341087E+02  0.51100000000E-03 0.  1.
         22    1    1    0    0    0 -0.14754109796E+02  0.17575194721E+02 -0.18105286658E+02  0.29229653271E+02  0.00000000000E+00 0. -1.
</event>
<event>
 5    1  0.8863861E-005  0.9118800E+02  0.7818608E-02  0.1130116E+00
         25   -1    0    0    0    0  0.00000000000E+00  0.00000000000E+00  0.99999998245E-14  0.12500000000E+03  0.12500000000E+03 0.  0.
        -11    1    3    3    0    0 -0.17664806602E+02  0.25253592673E+02 -0.29133405750E+02  0.42409252128E+02  0.51100000000E-03 0.  1.
         23    2    1    0    0    0  0.73026077949E+00 -0.23551032836E+02 -0.16963527212E+02  0.95966473106E+02  0.91469220378E+02 0.  0.
         11    1    3    3    0    0  0.18395067382E+02 -0.48804625509E+02  0.12169878538E+02  0.53557220978E+02  0.51100000000E-03 0. -1.
         22    1    1    0    0    0 -0.73026077949E+00  0.23551032836E+02  0.16963527212E+02  0.29033526894E+02  0.00000000000E+00 0.  1.
</event>
<event>
 5    1  0.8863861E-005  0.9118800E+02  0.7818608E-02  0.1130116E+00
         25   -1    0    0    0    0  0.00000000000E+00  0.00000000000E+00  0.99999998245E-14  0.12500000000E+03  0.12500000000E+03 0.  0.
        -11    1    3    3    0    0 -0.82800012623E+01  0.30028482725E+02  0.17439734221E+02  0.35698914908E+02  0.51100000000E-03 0.  1.
         23    2    1    0    0    0 -0.77091371189E+01 -0.28177007217E+02  0.32867199597E+01  0.95603111408E+02  0.90971302354E+02 0.  0.
         11    1    3    3    0    0  0.57086414337E+00 -0.58205489942E+02 -0.14153014261E+02  0.59904196499E+02  0.51100000000E-03 0. -1.
         22    1    1    0    0    0  0.77091371189E+01  0.28177007217E+02 -0.32867199597E+01  0.29396888592E+02  0.00000000000E+00 0. -1.
</event>
<event>
 5    1  0.8863861E-005  0.9118800E+02  0.7818608E-02  0.1130116E+00
         25   -1    0    0    0    0  0.00000000000E+00  0.00000000000E+00  0.99999998245E-14  0.12500000000E+03  0.12500000000E+03 0.  0.
        -11    1    3    3    0    0 -0.45065549899E+02  0.91928935141E+01  0.81155932413E+01  0.46704131860E+02  0.51100000000E-03 0. -1.
         23    2    1    0    0    0 -0.12599934271E+02  0.18693953696E+02  0.30356571900E+02  0.87188048107E+02  0.78562153908E+02 0.  0.
         11    1    3    3    0    0  0.32465615628E+02  0.95010601823E+01  0.22240978659E+02  0.40483916247E+02  0.51100000000E-03 0.  1.
         22    1    1    0    0    0  0.12599934271E+02 -0.18693953696E+02 -0.30356571900E+02  0.37811951893E+02  0.00000000000E+00 0.  1.
</event>
<event>
 5    1  0.8863861E-005  0.9118800E+02  0.7818608E-02  0.1130116E+00
         25   -1    0    0    0    0  0.00000000000E+00  0.00000000000E+00  0.99999998245E-14  0.12500000000E+03  0.12500000000E+03 0.  0.
        -11    1    3    3    0    0  0.26217366142E+02  0.28955944379E+02 -0.39289883169E+02  0.55402995605E+02  0.51100000000E-03 0. -1.
         23    2    1    0    0    0  0.57740176466E+00  0.24082484468E+01 -0.31850800024E+02  0.93053067197E+02  0.87397178440E+02 0.  0.
         11    1    3    3    0    0 -0.25639964377E+02 -0.26547695932E+02  0.74390831454E+01  0.37650071592E+02  0.51100000000E-03 0.  1.
         22    1    1    0    0    0 -0.57740176466E+00 -0.24082484468E+01  0.31850800024E+02  0.31946932803E+02  0.00000000000E+00 0. -1.
</event>
<event>
 5    1  0.8863861E-005  0.9118800E+02  0.7818608E-02  0.1130116E+00
         25   -1    0    0    0    0  0.00000000000E+00  0.00000000000E+00  0.99999998245E-14  0.12500000000E+03  0.12500000000E+03 0.  0.
        -11    1    3    3    0    0  0.18954795506E+02  0.45009394165E+02 -0.18154048190E+02  0.52102776334E+02  0.51100000000E-03 0. -1.
         23    2    1    0    0    0 -0.13481703633E+02  0.24626773537E+02 -0.20115736270E+02  0.90461946301E+02  0.83609129736E+02 0.  0.
         11    1    3    3    0    0 -0.32436499139E+02 -0.20382620629E+02 -0.19616880804E+01  0.38359169966E+02  0.51100000000E-03 0.  1.
         22    1    1    0    0    0  0.13481703633E+02 -0.24626773537E+02  0.20115736270E+02  0.34538053699E+02  0.00000000000E+00 0.  1.
</event>
<event>
 5    1  0.8863861E-005  0.9118800E+02  0.7818608E-02  0.1130116E+00
         25   -1    0    0    0    0  0.00000000000E+00  0.00000000000E+00  0.99999998245E-14  0.12500000000E+03  0.12500000000E+03 0.  0.
        -11    1    3    3    0    0 -0.70562290662E+01 -0.12930342671E+02  0.41739491411E+02  0.44262504152E+02  0.51100000000E-03 0. -1.
         23    2    1    0    0    0  0.28658577902E+02 -0.10792565973E+02  0.82134616316E+01  0.93294251000E+02  0.87741454000E+02 0.  0.
         11    1    3    3    0    0  0.35714806968E+02  0.21377766981E+01 -0.33526029780E+02  0.49031746849E+02  0.51100000000E-03 0.  1.
         22    1    1    0    0    0 -0.28658577902E+02  0.10792565973E+02 -0.82134616316E+01  0.31705749000E+02  0.00000000000E+00 0.  1.
</event>
<event>
 5    1  0.8863861E-005  0.9118800E+02  0.7818608E-02  0.1130116E+00
         25   -1    0    0    0    0  0.00000000000E+00  0.00000000000E+00  0.99999998245E-14  0.12500000000E+03  0.12500000000E+03 0.  0.
        -11    1    3    3    0    0  0.38942031540E+02  0.44533045083E+02  0.48335438531E+00  0.59160016536E+02  0.51100000000E-03 0. -1.
         23    2    1    0    0    0  0.12676278535E+02  0.25284400544E+02  0.12772776683E+02  0.93965619507E+02  0.88692755493E+02 0.  0.
         11    1    3    3    0    0 -0.26265753005E+02 -0.19248644539E+02  0.12289422297E+02  0.34805602971E+02  0.51100000000E-03 0.  1.
         22    1    1    0    0    0 -0.12676278535E+02 -0.25284400544E+02 -0.12772776683E+02  0.31034380493E+02  0.00000000000E+00 0. -1.
</event>
<event>
 5    1  0.8863861E-005  0.9118800E+02  0.7818608E-02  0.1130116E+00
         25   -1    0    0    0    0  0.00000000000E+00  0.00000000000E+00  0.99999998245E-14  0.12500000000E+03  0.12500000000E+03 0.  0.
        -11    1    3    3    0    0 -0.71755759287E+01  0.52521258236E+02  0.18310994883E+02  0.56082653205E+02  0.51100000000E-03 0. -1.
         23    2    1    0    0    0  0.12382860656E+02  0.20998592741E+02  0.20362563207E+02  0.93236654530E+02  0.87659361351E+02 0.  0.
         11    1    3    3    0    0  0.19558436585E+02 -0.31522665496E+02  0.20515683237E+01  0.37154001325E+02  0.51100000000E-03 0.  1.
         22    1    1    0    0    0 -0.12382860656E+02 -0.20998592741E+02 -0.20362563207E+02  0.31763345470E+02  0.00000000000E+00 0. -1.
</event>
<event>
 5    1  0.8863861E-005  0.9118800E+02  0.7818608E-02  0.1130116E+00
         25   -1    0    0    0    0  0.00000000000E+00  0.00000000000E+00  0.99999998245E-14  0.12500000000E+03  0.12500000000E+03 0.  0.
        -11    1    3    3    0    0 -0.50961571011E+01  0.38766717858E+02 -0.11862648270E+02  0.40860147515E+02  0.51100000000E-03 0. -1.
         23    2    1    0    0    0  0.83364320229E+01 -0.18710889634E+02 -0.14432248133E+02  0.99942400835E+02  0.96750194877E+02 0.  0.
         11    1    3    3    0    0  0.13432589124E+02 -0.57477607492E+02 -0.25695998629E+01  0.59082253319E+02  0.51100000000E-03 0.  1.
         22    1    1    0    0    0 -0.83364320229E+01  0.18710889634E+02  0.14432248133E+02  0.25057599165E+02  0.00000000000E+00 0.  1.
</event>
<event>
 5    1  0.8863861E-005  0.9118800E+02  0.7818608E-02  0.1130116E+00
         25   -1    0    0    0    0  0.00000000000E+00  0.00000000000E+00  0.99999998245E-14  0.12500000000E+03  0.12500000000E+03 0.  0.
        -11    1    3    3    0    0  0.23579962972E+02 -0.23049295050E+02  0.23255690192E+02  0.40349867195E+02  0.51100000000E-03 0.  1.
         23    2    1    0    0    0  0.12273450617E+02  0.25647773510E+02 -0.22596450437E+01  0.96477169289E+02  0.92164485146E+02 0.  0.
         11    1    3    3    0    0 -0.11306512356E+02  0.48697068559E+02 -0.25515335236E+02  0.56127302094E+02  0.51100000000E-03 0. -1.
         22    1    1    0    0    0 -0.12273450617E+02 -0.25647773510E+02  0.22596450437E+01  0.28522830711E+02  0.00000000000E+00 0. -1.
</event>
<event>
 5    1  0.8863861E-005  0.9118800E+02  0.7818608E-02  0.1130116E+00
         25   -1    0    0    0    0  0.00000000000E+00  0.00000000000E+00  0.99999998245E-14  0.12500000000E+03  0.12500000000E+03 0.  0.
        -11    1    3    3    0    0 -0.22087212149E+02  0.19321761553E+02  0.19361022747E+02  0.35157141694E+02  0.51100000000E-03 0.  1.
         23    2    1    0    0    0  0.25337053987E+02 -0.14521116327E+02  0.31784323903E+01  0.95624303300E+02  0.91000416620E+02 0.  0.
         11    1    3    3    0    0  0.47424266136E+02 -0.33842877880E+02 -0.16182590357E+02  0.60467161606E+02  0.51100000000E-03 0. -1.
         22    1    1    0    0    0 -0.25337053987E+02  0.14521116327E+02 -0.31784323903E+01  0.29375696700E+02  0.00000000000E+00 0. -1.
</event>
<event>
 5    1  0.8863861E-005  0.9118800E+02  0.7818608E-02  0.1130116E+00
         25   -1    0    0    0    0  0.00000000000E+00  0.00000000000E+00  0.99999998245E-14  0.12500000000E+03  0.12500000000E+03 0.  0.
        -11    1    3    3    0    0  0.25580248201E+02  0.29871482346E+02 -0.72055346907E+01  0.39982174603E+02  0.51100000000E-03 0. -1.
         23    2    1    0    0    0 -0.20496232850E+02  0.95732312109E+01  0.17814892290E+02  0.96205682780E+02  0.91795537446E+02 0.  0.
         11    1    3    3    0    0 -0.46076481051E+02 -0.20298251135E+02  0.25020426981E+02  0.56223508177E+02  0.51100000000E-03 0.  1.
         22    1    1    0    0    0  0.20496232850E+02 -0.95732312109E+01 -0.17814892290E+02  0.28794317220E+02  0.00000000000E+00 0.  1.
</event>
<event>
 5    1  0.8863861E-005  0.9118800E+02  0.7818608E-02  0.1130116E+00
         25   -1    0    0    0    0  0.00000000000E+00  0.00000000000E+00  0.99999998245E-14  0.12500000000E+03  0.12500000000E+03 0.  0.
        -11    1    3    3    0    0 -0.36866133898E+02  0.50350664925E+02 -0.31260847020E+01  0.62482587117E+02  0.51100000000E-03 0.  1.
         23    2    1    0    0    0 -0.14693628909E+02  0.21705617665E+02 -0.95915363110E+00  0.98771074280E+02  0.95224831688E+02 0.  0.
         11    1    3    3    0    0  0.22172504989E+02 -0.28645047261E+02  0.21669310709E+01  0.36288487163E+02  0.51100000000E-03 0. -1.
         22    1    1    0    0    0  0.14693628909E+02 -0.21705617665E+02  0.95915363110E+00  0.26228925720E+02  0.00000000000E+00 0.  1.
</event>
<event>
 5    1  0.8863861E-005  0.9118800E+02  0.7818608E-02  0.1130116E+00
         25   -1    0    0    0    0  0.00000000000E+00  0.00000000000E+00  0.99999998245E-14  0.12500000000E+03  0.12500000000E+03 0.  0.
        -11    1    3    3    0    0 -0.97951716073E+01  0.34247966433E+02  0.50395476063E+01  0.35975903490E+02  0.51100000000E-03 0. -1.
         23    2    1    0    0    0  0.20821886050E+02 -0.13535390619E+02 -0.14794303962E+02  0.96092748875E+02  0.91641623833E+02 0.  0.
         11    1    3    3    0    0  0.30617057657E+02 -0.47783357052E+02 -0.19833851568E+02  0.60116845385E+02  0.51100000000E-03 0.  1.
         22    1    1    0    0    0 -0.20821886050E+02  0.13535390619E+02  0.14794303962E+02  0.28907251125E+02  0.00000000000E+00 0.  1.
</event>
<event>
 5    1  0.8863861E-005  0.9118800E+02  0.7818608E-02  0.1130116E+00
         25   -1    0    0    0    0  0.00000000000E+00  0.00000000000E+00  0.99999998245E-14  0.12500000000E+03  0.12500000000E+03 0.  0.
        -11    1    3    3    0    0  0.47399348871E+02  0.29795154749E+02 -0.27028950499E+02  0.62169234234E+02  0.51100000000E-03 0.  1.
         23    2    1    0    0    0  0.22858569256E+02  0.16364433604E+02 -0.88707571944E+01  0.95521207474E+02  0.90858691760E+02 0.  0.
         11    1    3    3    0    0 -0.24540779615E+02 -0.13430721145E+02  0.18158193305E+02  0.33351973239E+02  0.51100000000E-03 0. -1.
         22    1    1    0    0    0 -0.22858569256E+02 -0.16364433604E+02  0.88707571944E+01  0.29478792526E+02  0.00000000000E+00 0.  1.
</event>
<event>
 5    1  0.8863861E-005  0.9118800E+02  0.7818608E-02  0.1130116E+00
         25   -1    0    0    0    0  0.00000000000E+00  0.00000000000E+00  0.99999998245E-14  0.12500000000E+03  0.12500000000E+03 0.  0.
        -11    1    3    3    0    0 -0.25598989837E+01 -0.20049838388E+02 -0.33983369821E+02  0.39540087592E+02  0.51100000000E-03 0. -1.
         23    2    1    0    0    0 -0.27271024982E+02  0.13707064343E+02  0.15638991296E+01  0.94437961505E+02  0.89355975605E+02 0.  0.
         11    1    3    3    0    0 -0.24711125998E+02  0.33756902731E+02  0.35547268951E+02  0.54897873913E+02  0.51100000000E-03 0.  1.
         22    1    1    0    0    0  0.27271024982E+02 -0.13707064343E+02 -0.15638991296E+01  0.30562038495E+02  0.00000000000E+00 0.  1.
</event>
<event>
 5    1  0.8863861E-005  0.9118800E+02  0.7818608E-02  0.1130116E+00
         25   -1    0    0    0    0  0.00000000000E+00  0.00000000000E+00  0.99999998245E-14  0.12500000000E+03  0.12500000000E+03 0.  0.
        -11    1    3    3    0    0  0.22670039286E+01  0.23811062657E+02 -0.40254138920E+02  0.46824157357E+02  0.51100000000E-03 0. -1.
         23    2    1    0    0    0  0.14026432994E+02 -0.18014438626E+02 -0.19504575751E+02  0.94971858253E+02  0.90099747853E+02 0.  0.
         11    1    3    3    0    0  0.11759429066E+02 -0.41825501284E+02  0.20749563170E+02  0.48147700896E+02  0.51100000000E-03 0.  1.
         22    1    1    0    0    0 -0.14026432994E+02  0.18014438626E+02  0.19504575751E+02  0.30028141747E+02  0.00000000000E+00 0.  1.
</event>
<event>
 5    1  0.8863861E-005  0.9118800E+02  0.7818608E-02  0.1130116E+00
         25   -1    0    0    0    0  0.00000000000E+00  0.00000000000E+00  0.99999998245E-14  0.12500000000E+03  0.12500000000E+03 0.  0.
        -11    1    3    3    0    0 -0.20438716150E+02 -0.14910823489E+02 -0.39212161688E+02  0.46665484028E+02  0.51100000000E-03 0. -1.
         23    2    1    0    0    0 -0.25554044202E+02  0.18480446417E+02 -0.29505160631E+02  0.81813305536E+02  0.69486159658E+02 0.  0.
         11    1    3    3    0    0 -0.51153280518E+01  0.33391269906E+02  0.97070010571E+01  0.35147821508E+02  0.51100000000E-03 0.  1.
         22    1    1    0    0    0  0.25554044202E+02 -0.18480446417E+02  0.29505160631E+02  0.43186694464E+02  0.00000000000E+00 0. -1.
</event>
<event>
 5    1  0.8863861E-005  0.9118800E+02  0.7818608E-02  0.1130116E+00
         25   -1    0    0    0    0  0.00000000000E+00  0.00000000000E+00  0.99999998245E-14  0.12500000000E+03  0.12500000000E+03 0.  0.
        -11    1    3    3    0    0  0.26635166383E+02 -0.27113277913E+02  0.35572776502E+02  0.52057510080E+02  0.51100000000E-03 0.  1.
         23    2    1    0    0    0 -0.12330841726E+02 -0.19796565321E+02  0.18529221926E+02  0.95212658371E+02  0.90433205144E+02 0.  0.
         11    1    3    3    0    0 -0.38966008109E+02  0.73167125922E+01 -0.17043554576E+02  0.43155148290E+02  0.51100000000E-03 0. -1.
         22    1    1    0    0    0  0.12330841726E+02  0.19796565321E+02 -0.18529221926E+02  0.29787341629E+02  0.00000000000E+00 0.  1.
</event>
<event>
 5    1  0.8863861E-005  0.9118800E+02  0.7818608E-02  0.1130116E+00
         25   -1    0    0    0    0  0.00000000000E+00  0.00000000000E+00  0.99999998245E-14  0.12500000000E+03  0.12500000000E+03 0.  0.
        -11    1    3    3    0    0 -0.32383625513E+02 -0.23558868751E+02 -0.27894497631E+01  0.40143499205E+02  0.51100000000E-03 0. -1.
         23    2    1    0    0    0 -0.89706699824E+01  0.23358436713E+02  0.15371029972E+02  0.95634066540E+02  0.91013826614E+02 0.  0.
         11    1    3    3    0    0  0.23412955531E+02  0.46917305463E+02  0.18160479735E+02  0.55490567335E+02  0.51100000000E-03 0.  1.
         22    1    1    0    0    0  0.89706699824E+01 -0.23358436713E+02 -0.15371029972E+02  0.29365933460E+02  0.00000000000E+00 0.  1.
</event>
<event>
 5    1  0.8863861E-005  0.9118800E+02  0.7818608E-02  0.1130116E+00
         25   -1    0    0    0    0  0.00000000000E+00  0.00000000000E+00  0.99999998245E-14  0.12500000000E+03  0.12500000000E+03 0.  0.
        -11    1    3    3    0    0  0.29355827430E+02  0.29629647817E+02  0.17613998687E+02  0.45276192241E+02  0.51100000000E-03 0. -1.
         23    2    1    0    0    0  0.28857158025E+02 -0.13096010748E+02 -0.38225119544E+01  0.93080528444E+02  0.87436446125E+02 0.  0.
         11    1    3    3    0    0 -0.49866940501E+00 -0.42725658565E+02 -0.21436510642E+02  0.47804336202E+02  0.51100000000E-03 0.  1.
         22    1    1    0    0    0 -0.28857158025E+02  0.13096010748E+02  0.38225119544E+01  0.31919471556E+02  0.00000000000E+00 0.  1.
</event>
<event>
 5    1  0.8863861E-005  0.9118800E+02  0.7818608E-02  0.1130116E+00
         25   -1    0    0    0    0  0.00000000000E+00  0.00000000000E+00  0.99999998245E-14  0.12500000000E+03  0.12500000000E+03 0.  0.
        -11    1    3    3    0    0 -0.31482647906E+02 -0.35768865290E+01 -0.32307077799E+02  0.45251502877E+02  0.51100000000E-03 0. -1.
         23    2    1    0    0    0  0.15035367058E+02  0.10763211748E+02 -0.24111214014E+02  0.94614812310E+02  0.89603030516E+02 0.  0.
         11    1    3    3    0    0  0.46518014964E+02  0.14340098277E+02  0.81958637850E+01  0.49363309433E+02  0.51100000000E-03 0.  1.
         22    1    1    0    0    0 -0.15035367058E+02 -0.10763211748E+02  0.24111214014E+02  0.30385187690E+02  0.00000000000E+00 0.  1.
</event>
<event>
 5    1  0.8863861E-005  0.9118800E+02  0.7818608E-02  0.1130116E+00
         25   -1    0    0    0    0  0.00000000000E+00  0.00000000000E+00  0.99999998245E-14  0.12500000000E+03  0.12500000000E+03 0.  0.
        -11    1    3    3    0    0  0.95054485895E+01 -0.41536138007E+02  0.24079816570E+02  0.48943251626E+02  0.51100000000E-03 0.  1.
         23    2    1    0    0    0  0.31203368119E+02 -0.90414946323E+01  0.61396747694E+01  0.91938021634E+02  0.85787559754E+02 0.  0.
         11    1    3    3    0    0  0.21697919530E+02  0.32494643375E+02 -0.17940141800E+02  0.42994770008E+02  0.51100000000E-03 0. -1.
         22    1    1    0    0    0 -0.31203368119E+02  0.90414946323E+01 -0.61396747694E+01  0.33061978366E+02  0.00000000000E+00 0. -1.
</event>
<event>
 5    1  0.8863861E-005  0.9118800E+02  0.7818608E-02  0.1130116E+00
         25   -1    0    0    0    0  0.00000000000E+00  0.00000000000E+00  0.99999998245E-14  0.12500000000E+03  0.12500000000E+03 0.  0.
        -11    1    3    3    0    0  0.39855715257E+02 -0.36752974202E+02 -0.35028442656E+01  0.54327976858E+02  0.51100000000E-03 0.  1.
         23    2    1    0    0    0 -0.30506614158E+01 -0.20391056309E+02  0.98496223822E+01  0.10215012531E+03  0.99561696080E+02 0.  0.
         11    1    3    3    0    0 -0.42906376672E+02  0.16361917892E+02  0.13352466648E+02  0.47822148447E+02  0.51100000000E-03 0. -1.
         22    1    1    0    0    0  0.30506614158E+01  0.20391056309E+02 -0.98496223822E+01  0.22849874695E+02  0.00000000000E+00 0.  1.
</event>
<event>
 5    1  0.8863861E-005  0.9118800E+02  0.7818608E-02  0.1130116E+00
         25   -1    0    0    0    0  0.00000000000E+00  0.00000000000E+00  0.99999998245E-14  0.12500000000E+03  0.12500000000E+03 0.  0.
        -11    1    3    3    0    0  0.59210830341E+01  0.15662738862E+02  0.28738143685E+02  0.33260509853E+02  0.51100000000E-03 0.  1.
         23    2    1    0    0    0  0.15613592076E+02  0.28926865364E+01 -0.28322081907E+02  0.92530133716E+02  0.86646023735E+02 0.  0.
         11    1    3    3    0    0  0.96925090418E+01 -0.12770052326E+02 -0.57060225593E+02  0.59269623863E+02  0.51100000000E-03 0. -1.
         22    1    1    0    0    0 -0.15613592076E+02 -0.28926865364E+01  0.28322081907E+02  0.32469866284E+02  0.00000000000E+00 0. -1.
</event>
<event>
 5    1  0.8863861E-005  0.9118800E+02  0.7818608E-02  0.1130116E+00
         25   -1    0    0    0    0  0.00000000000E+00  0.00000000000E+00  0.99999998245E-14  0.12500000000E+03  0.12500000000E+03 0.  0.
        -11    1    3    3    0    0  0.93345476420E+01  0.66969163079E+00 -0.40755415431E+02  0.41816099217E+02  0.51100000000E-03 0.  1.
         23    2    1    0    0    0 -0.25985486951E+02 -0.13390314381E+02 -0.26408337903E+01  0.95648338132E+02  0.91033425361E+02 0.  0.
         11    1    3    3    0    0 -0.35320034593E+02 -0.14060006011E+02  0.38114581640E+02  0.53832238915E+02  0.51100000000E-03 0. -1.
         22    1    1    0    0    0  0.25985486951E+02  0.13390314381E+02  0.26408337903E+01  0.29351661868E+02  0.00000000000E+00 0.  1.
</event>
<event>
 5    1  0.8863861E-005  0.9118800E+02  0.7818608E-02  0.1130116E+00
         25   -1    0    0    0    0  0.00000000000E+00  0.00000000000E+00  0.99999998245E-14  0.12500000000E+03  0.12500000000E+03 0.  0.
        -11    1    3    3    0    0 -0.26695093168E+02  0.95161845507E+01 -0.31232819508E+02  0.42174337960E+02  0.51100000000E-03 0. -1.
         23    2    1    0    0    0  0.23823298308E+02  0.21438381816E+01 -0.18416760134E+02  0.94811879187E+02  0.89877526650E+02 0.  0.
         11    1    3    3    0    0  0.50518391476E+02 -0.73723463691E+01  0.12816059374E+02  0.52637541227E+02  0.51100000000E-03 0.  1.
         22    1    1    0    0    0 -0.23823298308E+02 -0.21438381816E+01  0.18416760134E+02  0.30188120813E+02  0.00000000000E+00 0.  1.
</event>
<event>
 5    1  0.8863861E-005  0.9118800E+02  0.7818608E-02  0.1130116E+00
         25   -1    0    0    0    0  0.00000000000E+00  0.00000000000E+00  0.99999998245E-14  0.12500000000E+03  0.12500000000E+03 0.  0.
        -11    1    3    3    0    0  0.15442089742E+02  0.33282287886E+02  0.10498913602E+02  0.38162756840E+02  0.51100000000E-03 0.  1.
         23    2    1    0    0    0 -0.25418113492E+02 -0.69220493597E+01  0.13168941149E+02  0.95548068454E+02  0.90895638583E+02 0.  0.
         11    1    3    3    0    0 -0.40860203233E+02 -0.40204337246E+02  0.26700275468E+01  0.57385311614E+02  0.51100000000E-03 0. -1.
         22    1    1    0    0    0  0.25418113492E+02  0.69220493597E+01 -0.13168941149E+02  0.29451931546E+02  0.00000000000E+00 0. -1.
</event>
<event>
 5    1  0.8863861E-005  0.9118800E+02  0.7818608E-02  0.1130116E+00
         25   -1    0    0    0    0  0.00000000000E+00  0.00000000000E+00  0.99999998245E-14  0.12500000000E+03  0.12500000000E+03 0.  0.
        -11    1    3    3    0    0  0.18229897272E+02  0.52267872854E+02  0.12481276468E+02  0.56745413469E+02  0.51100000000E-03 0. -1.
         23    2    1    0    0    0 -0.10809833715E+02  0.14601794483E+02 -0.26158916465E+01  0.10664495175E+03  0.10505350036E+03 0.  0.
         11    1    3    3    0    0 -0.29039730987E+02 -0.37666078371E+02 -0.15097168114E+02  0.49899538284E+02  0.51100000000E-03 0.  1.
         22    1    1    0    0    0  0.10809833715E+02 -0.14601794483E+02  0.26158916465E+01  0.18355048248E+02  0.00000000000E+00 0.  1.
</event>
<event>
 5    1  0.8863861E-005  0.9118800E+02  0.7818608E-02  0.1130116E+00
         25   -1    0    0    0    0  0.00000000000E+00  0.00000000000E+00  0.99999998245E-14  0.12500000000E+03  0.12500000000E+03 0.  0.
        -11    1    3    3    0    0  0.26178745806E+02 -0.19365705413E+02 -0.77320910612E+01  0.33468530152E+02  0.51100000000E-03 0.  1.
         23    2    1    0    0    0 -0.20356406434E+02  0.14913968681E+02  0.15076485299E+02  0.95604249394E+02  0.90972866002E+02 0.  0.
         11    1    3    3    0    0 -0.46535152239E+02  0.34279674094E+02  0.22808576360E+02  0.62135719242E+02  0.51100000000E-03 0. -1.
         22    1    1    0    0    0  0.20356406434E+02 -0.14913968681E+02 -0.15076485299E+02  0.29395750606E+02  0.00000000000E+00 0. -1.
</event>
<event>
 5    1  0.8863861E-005  0.9118800E+02  0.7818608E-02  0.1130116E+00
         25   -1    0    0    0    0  0.00000000000E+00  0.00000000000E+00  0.99999998245E-14  0.12500000000E+03  0.12500000000E+03 0.  0.
        -11    1    3    3    0    0  0.33322337229E+01 -0.33961011743E+02 -0.15383554693E+02  0.37431375281E+02  0.51100000000E-03 0. -1.
         23    2    1    0    0    0 -0.13846935580E+02  0.22576366561E+02 -0.97048343274E+01  0.96793373804E+02  0.92592350931E+02 0.  0.
         11    1    3    3    0    0 -0.17179169303E+02  0.56537378304E+02  0.56787203654E+01  0.59361998523E+02  0.51100000000E-03 0.  1.
         22    1    1    0    0    0  0.13846935580E+02 -0.22576366561E+02  0.97048343274E+01  0.28206626196E+02  0.00000000000E+00 0.  1.
</event>
<event>
 5    1  0.8863861E-005  0.9118800E+02  0.7818608E-02  0.1130116E+00
         25   -1    0    0    0    0  0.00000000000E+00  0.00000000000E+00  0.99999998245E-14  0.12500000000E+03  0.12500000000E+03 0.  0.
        -11    1    3    3    0    0  0.82508305098E+01  0.90956518816E+01  0.50303815424E+02  0.51781086641E+02  0.51100000000E-03 0.  1.
         23    2    1    0    0    0  0.18451873325E+01  0.26296703771E+02  0.87231044711E+01  0.97232863001E+02  0.93183774072E+02 0.  0.
         11    1    3    3    0    0 -0.64056431773E+01  0.17201051889E+02 -0.41580710953E+02  0.45451776360E+02  0.51100000000E-03 0. -1.
         22    1    1    0    0    0 -0.18451873325E+01 -0.26296703771E+02 -0.87231044711E+01  0.27767136999E+02  0.00000000000E+00 0.  1.
</event>
<event>
 5    1  0.8863861E-005  0.9118800E+02  0.7818608E-02  0.1130116E+00
         25   -1    0    0    0    0  0.00000000000E+00  0.00000000000E+00  0.99999998245E-14  0.12500000000E+03  0.12500000000E+03 0.  0.
        -11    1    3    3    0    0 -0.17685013833E+02 -0.45942036788E+02  0.20842305702E+02  0.53458695886E+02  0.51100000000E-03 0.  1.
         23    2    1    0    0    0 -0.57489535584E+01 -0.54928446671E+01  0.27695770641E+02  0.96185463375E+02  0.91768000107E+02 0.  0.
         11    1    3    3    0    0  0.11936060275E+02  0.40449192121E+02  0.68534649383E+01  0.42726767489E+02  0.51100000000E-03 0. -1.
         22    1    1    0    0    0  0.57489535584E+01  0.54928446671E+01 -0.27695770641E+02  0.28814536625E+02  0.00000000000E+00 0.  1.
</event>
<event>
 5    1  0.8863861E-005  0.9118800E+02  0.7818608E-02  0.1130116E+00
         25   -1    0    0    0    0  0.00000000000E+00  0.00000000000E+00  0.99999998245E-14  0.12500000000E+03  0.12500000000E+03 0.  0.
        -11    1    3    3    0    0  0.29920161467E+02 -0.38985828425E+02  0.28286029566E+02  0.56702824877E+02  0.51100000000E-03 0.  1.
         23    2    1    0    0    0 -0.31180966739E+01 -0.25552417104E+02  0.17159560963E+02  0.94062982057E+02  0.88829868368E+02 0.  0.
         11    1    3    3    0    0 -0.33038258141E+02  0.13433411321E+02 -0.11126468603E+02  0.37360157180E+02  0.51100000000E-03 0. -1.
         22    1    1    0    0    0  0.31180966739E+01  0.25552417104E+02 -0.17159560963E+02  0.30937017943E+02  0.00000000000E+00 0.  1.
</event>
<event>
 5    1  0.8863861E-005  0.9118800E+02  0.7818608E-02  0.1130116E+00
         25   -1    0    0    0    0  0.00000000000E+00  0.00000000000E+00  0.99999998245E-14  0.12500000000E+03  0.12500000000E+03 0.  0.
        -11    1    3    3    0    0 -0.35921928635E+00  0.11461618646E+02 -0.33744426645E+02  0.35639641838E+02  0.51100000000E-03 0. -1.
         23    2    1    0    0    0 -0.21013096424E+02 -0.67159595773E+01  0.19489696238E+02  0.95563583883E+02  0.90916972952E+02 0.  0.
         11    1    3    3    0    0 -0.20653877138E+02 -0.18177578224E+02  0.53234122882E+02  0.59923942045E+02  0.51100000000E-03 0.  1.
         22    1    1    0    0    0  0.21013096424E+02  0.67159595773E+01 -0.19489696238E+02  0.29436416117E+02  0.00000000000E+00 0.  1.
</event>
<event>
 5    1  0.8863861E-005  0.9118800E+02  0.7818608E-02  0.1130116E+00
         25   -1    0    0    0    0  0.00000000000E+00  0.00000000000E+00  0.99999998245E-14  0.12500000000E+03  0.12500000000E+03 0.  0.
        -11    1    3    3    0    0 -0.13700885394E+02 -0.36496046803E+02  0.33666057529E+02  0.51508049105E+02  0.51100000000E-03 0.  1.
         23    2    1    0    0    0 -0.27180330209E+02 -0.87762511497E+01  0.10005404598E+01  0.96420391610E+02  0.92087447041E+02 0.  0.
         11    1    3    3    0    0 -0.13479444815E+02  0.27719795653E+02 -0.32665517070E+02  0.44912342505E+02  0.51100000000E-03 0. -1.
         22    1    1    0    0    0  0.27180330209E+02  0.87762511497E+01 -0.10005404598E+01  0.28579608390E+02  0.00000000000E+00 0. -1.
</event>
<event>
 5    1  0.8863861E-005  0.9118800E+02  0.7818608E-02  0.1130116E+00
         25   -1    0    0    0    0  0.00000000000E+00  0.00000000000E+00  0.99999998245E-14  0.12500000000E+03  0.12500000000E+03 0.  0.
        -11    1    3    3    0    0  0.99577438384E+01  0.40080097723E+02 -0.11798303580E+01  0.41315407486E+02  0.51100000000E-03 0. -1.
         23    2    1    0    0    0  0.22391655595E+02 -0.12325285406E+02  0.11998077377E+02  0.96764335294E+02  0.92553140539E+02 0.  0.
         11    1    3    3    0    0  0.12433911756E+02 -0.52405383129E+02  0.13177907736E+02  0.55448927808E+02  0.51100000000E-03 0.  1.
         22    1    1    0    0    0 -0.22391655595E+02  0.12325285406E+02 -0.11998077377E+02  0.28235664706E+02  0.00000000000E+00 0.  1.
</event>
<event>
 5    1  0.8863861E-005  0.9118800E+02  0.7818608E-02  0.1130116E+00
         25   -1    0    0    0    0  0.00000000000E+00  0.00000000000E+00  0.99999998245E-14  0.12500000000E+03  0.12500000000E+03 0.  0.
        -11    1    3    3    0    0  0.35406673885E+01 -0.44428526247E+02  0.16354259762E+02  0.47475173329E+02  0.51100000000E-03 0.  1.
         23    2    1    0    0    0  0.21994695108E+02 -0.14715473933E+02 -0.15113896211E+02  0.94524737168E+02  0.89477283665E+02 0.  0.
         11    1    3    3    0    0  0.18454027720E+02  0.29713052314E+02 -0.31468155973E+02  0.47049563839E+02  0.51100000000E-03 0. -1.
         22    1    1    0    0    0 -0.21994695108E+02  0.14715473933E+02  0.15113896211E+02  0.30475262832E+02  0.00000000000E+00 0.  1.
</event>
<event>
 5    1  0.8863861E-005  0.9118800E+02  0.7818608E-02  0.1130116E+00
         25   -1    0    0    0    0  0.00000000000E+00  0.00000000000E+00  0.99999998245E-14  0.12500000000E+03  0.12500000000E+03 0.  0.
        -11    1    3    3    0    0 -0.26894627477E+02 -0.19524881913E+02 -0.87860148231E+01  0.34376388082E+02  0.51100000000E-03 0.  1.
         23    2    1    0    0    0  0.16935061804E+02  0.23293358884E+02 -0.50319266863E+01  0.95764795664E+02  0.91193195557E+02 0.  0.
         11    1    3    3    0    0  0.43829689281E+02  0.42818240797E+02  0.37540881368E+01  0.61388407582E+02  0.51100000000E-03 0. -1.
         22    1    1    0    0    0 -0.16935061804E+02 -0.23293358884E+02  0.50319266863E+01  0.29235204336E+02  0.00000000000E+00 0. -1.
</event>
<event>
 5    1  0.8863861E-005  0.9118800E+02  0.7818608E-02  0.1130116E+00
         25   -1    0    0    0    0  0.00000000000E+00  0.00000000000E+00  0.99999998245E-14  0.12500000000E+03  0.12500000000E+03 0.  0.
        -11    1    3    3    0    0  0.26133285290E+02  0.17195124584E+02  0.19275739667E+02  0.36744728186E+02  0.51100000000E-03 0. -1.
         23    2    1    0    0    0  0.22390990378E+02 -0.26896320905E+02 -0.84948059574E+01  0.88987082087E+02  0.81374262035E+02 0.  0.
         11    1    3    3    0    0 -0.37422949116E+01 -0.44091445490E+02 -0.27770545624E+02  0.52242353901E+02  0.51100000000E-03 0.  1.
         22    1    1    0    0    0 -0.22390990378E+02  0.26896320905E+02  0.84948059574E+01  0.36012917913E+02  0.00000000000E+00 0.  1.
</event>
<event>
 5    1  0.8863861E-005  0.9118800E+02  0.7818608E-02  0.1130116E+00
         25   -1    0    0    0    0  0.00000000000E+00  0.00000000000E+00  0.99999998245E-14  0.12500000000E+03  0.12500000000E+03 0.  0.
        -11    1    3    3    0    0 -0.82405133685E+01 -0.56915060299E+02  0.89268413198E+01  0.58197239158E+02  0.51100000000E-03 0.  1.
         23    2    1    0    0    0  0.84678217516E+01 -0.28035342547E+02 -0.65709143892E+01  0.94985647552E+02  0.90118876424E+02 0.  0.
         11    1    3    3    0    0  0.16708335120E+02  0.28879717751E+02 -0.15497755709E+02  0.36788408394E+02  0.51100000000E-03 0. -1.
         22    1    1    0    0    0 -0.84678217516E+01  0.28035342547E+02  0.65709143892E+01  0.30014352448E+02  0.00000000000E+00 0.  1.
</event>
<event>
 5    1  0.8863861E-005  0.9118800E+02  0.7818608E-02  0.1130116E+00
         25   -1    0    0    0    0  0.00000000000E+00  0.00000000000E+00  0.99999998245E-14  0.12500000000E+03  0.12500000000E+03 0.  0.
        -11    1    3    3    0    0 -0.21551963999E+02 -0.58065241234E+02  0.77872511930E+01  0.62423558639E+02  0.51100000000E-03 0. -1.
         23    2    1    0    0    0 -0.10376425081E+02 -0.28021133218E+02  0.59590181450E+01  0.94530933694E+02  0.89485939810E+02 0.  0.
         11    1    3    3    0    0  0.11175538918E+02  0.30044108016E+02 -0.18282330479E+01  0.32107375055E+02  0.51100000000E-03 0.  1.
         22    1    1    0    0    0  0.10376425081E+02  0.28021133218E+02 -0.59590181450E+01  0.30469066306E+02  0.00000000000E+00 0. -1.
</event>
<event>
 5    1  0.8863861E-005  0.9118800E+02  0.7818608E-02  0.1130116E+00
         25   -1    0    0    0    0  0.00000000000E+00  0.00000000000E+00  0.99999998245E-14  0.12500000000E+03  0.12500000000E+03 0.  0.
        -11    1    3    3    0    0 -0.85906650815E+01 -0.60403634514E+02 -0.47754463711E+01  0.61198067595E+02  0.51100000000E-03 0. -1.
         23    2    1    0    0    0 -0.12661903947E+02 -0.26286383129E+02 -0.53463740445E+00  0.95818094875E+02  0.91266224414E+02 0.  0.
         11    1    3    3    0    0 -0.40712388657E+01  0.34117251385E+02  0.42408089667E+01  0.34620027281E+02  0.51100000000E-03 0.  1.
         22    1    1    0    0    0  0.12661903947E+02  0.26286383129E+02  0.53463740445E+00  0.29181905125E+02  0.00000000000E+00 0. -1.
</event>
<event>
 5    1  0.8863861E-005  0.9118800E+02  0.7818608E-02  0.1130116E+00
         25   -1    0    0    0    0  0.00000000000E+00  0.00000000000E+00  0.99999998245E-14  0.12500000000E+03  0.12500000000E+03 0.  0.
        -11    1    3    3    0    0  0.24143905360E+02  0.46313746370E+02 -0.32341089224E+02  0.61431566164E+02  0.51100000000E-03 0.  1.
         23    2    1    0    0    0  0.79739113842E+01  0.30711435761E+02 -0.14543926350E+02  0.90095826282E+02  0.83059957685E+02 0.  0.
         11    1    3    3    0    0 -0.16169993976E+02 -0.15602310610E+02  0.17797162874E+02  0.28664260119E+02  0.51100000000E-03 0. -1.
         22    1    1    0    0    0 -0.79739113842E+01 -0.30711435761E+02  0.14543926350E+02  0.34904173718E+02  0.00000000000E+00 0.  1.
</event>
<event>
 5    1  0.8863861E-005  0.9118800E+02  0.7818608E-02  0.1130116E+00
         25   -1    0    0    0    0  0.00000000000E+00  0.00000000000E+00  0.99999998245E-14  0.12500000000E+03  0.12500000000E+03 0.  0.
        -11    1    3    3    0    0  0.29846151555E+02  0.14071296372E+02  0.22888625924E+02  0.40158228811E+02  0.51100000000E-03 0.  1.
         23    2    1    0    0    0 -0.17817728847E+02 -0.13931962170E+02 -0.46344271962E+01  0.10191214721E+03  0.99262464213E+02 0.  0.
         11    1    3    3    0    0 -0.47663880402E+02 -0.28003258542E+02 -0.27523053121E+02  0.61753918396E+02  0.51100000000E-03 0. -1.
         22    1    1    0    0    0  0.17817728847E+02  0.13931962170E+02  0.46344271962E+01  0.23087852793E+02  0.00000000000E+00 0. -1.
</event>
<event>
 5    1  0.8863861E-005  0.9118800E+02  0.7818608E-02  0.1130116E+00
         25   -1    0    0    0    0  0.00000000000E+00  0.00000000000E+00  0.99999998245E-14  0.12500000000E+03  0.12500000000E+03 0.  0.
        -11    1    3    3    0    0 -0.12695974957E+02 -0.14672389679E+02  0.46486961333E+02  0.50373647607E+02  0.51100000000E-03 0.  1.
         23    2    1    0    0    0 -0.68743384690E+01 -0.27874190315E+02  0.30679911414E+01  0.96127182598E+02  0.91688579711E+02 0.  0.
         11    1    3    3    0    0  0.58216364885E+01 -0.13201800636E+02 -0.43418970191E+02  0.45753534991E+02  0.51100000000E-03 0. -1.
         22    1    1    0    0    0  0.68743384690E+01  0.27874190315E+02 -0.30679911414E+01  0.28872817402E+02  0.00000000000E+00 0.  1.
</event>
<event>
 5    1  0.8863861E-005  0.9118800E+02  0.7818608E-02  0.1130116E+00
         25   -1    0    0    0    0  0.00000000000E+00  0.00000000000E+00  0.99999998245E-14  0.12500000000E+03  0.12500000000E+03 0.  0.
        -11    1    3    3    0    0  0.12983942049E+02 -0.54719897422E+01 -0.42003478888E+02  0.44303698060E+02  0.51100000000E-03 0.  1.
         23    2    1    0    0    0 -0.93022107035E+01  0.26727060591E+02 -0.96468596283E+01  0.95101358016E+02  0.90279230746E+02 0.  0.
         11    1    3    3    0    0 -0.22286152753E+02  0.32199050333E+02  0.32356619259E+02  0.50797659956E+02  0.51100000000E-03 0. -1.
         22    1    1    0    0    0  0.93022107035E+01 -0.26727060591E+02  0.96468596283E+01  0.29898641984E+02  0.00000000000E+00 0.  1.
</event>
<event>
 4    1  0.8863861E-005  0.9118800E+02  0.7818608E-02  0.1130116E+00
         25   -1    0    0    0    0  0.00000000000E+00  0.00000000000E+00  0.99999998245E-14  0.12500000000E+03  0.12500000000E+03 0.  0.
        -11    1    1    0    0    0  0.13815325329E+02 -0.49035177078E+01  0.11950034963E+02  0.18913250269E+02  0.51100000000E-03 0.  1.
         11    1    1    0    0    0 -0.32313174710E+02  0.89887629501E+01  0.39171128218E+02  0.51568560241E+02  0.51100000000E-03 0. -1.
         22    1    1    0    0    0  0.18497849381E+02 -0.40852452423E+01 -0.51121163180E+02  0.54518189490E+02  0.00000000000E+00 0. -1.
</event>
<event>
 5    1  0.8863861E-005  0.9118800E+02  0.7818608E-02  0.1130116E+00
         25   -1    0    0    0    0  0.00000000000E+00  0.00000000000E+00  0.99999998245E-14  0.12500000000E+03  0.12500000000E+03 0.  0.
        -11    1    3    3    0    0 -0.65825283599E+01  0.60771732462E+02 -0.97455303766E+01  0.61899180194E+02  0.51100000000E-03 0.  1.
         23    2    1    0    0    0 -0.88562090692E+01  0.27686892528E+02 -0.26670006900E+01  0.95809087894E+02  0.91253887443E+02 0.  0.
         11    1    3    3    0    0 -0.22736807093E+01 -0.33084839935E+02  0.70785296866E+01  0.33909907700E+02  0.51100000000E-03 0. -1.
         22    1    1    0    0    0  0.88562090692E+01 -0.27686892528E+02  0.26670006900E+01  0.29190912106E+02  0.00000000000E+00 0.  1.
</event>
<event>
 5    1  0.8863861E-005  0.9118800E+02  0.7818608E-02  0.1130116E+00
         25   -1    0    0    0    0  0.00000000000E+00  0.00000000000E+00  0.99999998245E-14  0.12500000000E+03  0.12500000000E+03 0.  0.
        -11    1    3    3    0    0  0.18684284056E+02  0.48770676525E+02 -0.12004936524E+02  0.53589176711E+02  0.51100000000E-03 0. -1.
         23    2    1    0    0    0  0.21905038414E+02  0.71775730385E+01 -0.18024145160E+02  0.95738795798E+02  0.91157550150E+02 0.  0.
         11    1    3    3    0    0  0.32207543581E+01 -0.41593103487E+02 -0.60192086357E+01  0.42149619087E+02  0.51100000000E-03 0.  1.
         22    1    1    0    0    0 -0.21905038414E+02 -0.71775730385E+01  0.18024145160E+02  0.29261204202E+02  0.00000000000E+00 0. -1.
</event>
<event>
 5    1  0.8863861E-005  0.9118800E+02  0.7818608E-02  0.1130116E+00
         25   -1    0    0    0    0  0.00000000000E+00  0.00000000000E+00  0.99999998245E-14  0.12500000000E+03  0.12500000000E+03 0.  0.
        -11    1    3    3    0    0 -0.23783562310E+02 -0.88286108293E+01 -0.56585151628E+02  0.62011947158E+02  0.51100000000E-03 0.  1.
         23    2    1    0    0    0 -0.64236717710E+01 -0.69469245667E+01 -0.27289191106E+02  0.96117076478E+02  0.91674800897E+02 0.  0.
         11    1    3    3    0    0  0.17359890539E+02  0.18816862626E+01  0.29295960522E+02  0.34105129320E+02  0.51100000000E-03 0. -1.
         22    1    1    0    0    0  0.64236717710E+01  0.69469245667E+01  0.27289191106E+02  0.28882923522E+02  0.00000000000E+00 0.  1.
</event>
<event>
 5    1  0.8863861E-005  0.9118800E+02  0.7818608E-02  0.1130116E+00
         25   -1    0    0    0    0  0.00000000000E+00  0.00000000000E+00  0.99999998245E-14  0.12500000000E+03  0.12500000000E+03 0.  0.
        -11    1    3    3    0    0  0.71862603063E+01  0.20056126072E+02  0.30883642053E+02  0.37519193447E+02  0.51100000000E-03 0.  1.
         23    2    1    0    0    0 -0.14943281001E+02 -0.26328535411E+02  0.86556217688E+01  0.93513285148E+02  0.88052945930E+02 0.  0.
         11    1    3    3    0    0 -0.22129541307E+02 -0.46384661483E+02 -0.22228020284E+02  0.55994091701E+02  0.51100000000E-03 0. -1.
         22    1    1    0    0    0  0.14943281001E+02  0.26328535411E+02 -0.86556217688E+01  0.31486714852E+02  0.00000000000E+00 0. -1.
</event>
<event>
 5    1  0.8863861E-005  0.9118800E+02  0.7818608E-02  0.1130116E+00
         25   -1    0    0    0    0  0.00000000000E+00  0.00000000000E+00  0.99999998245E-14  0.12500000000E+03  0.12500000000E+03 0.  0.
        -11    1    3    3    0    0 -0.26205709771E+02  0.51443885844E+02  0.60190436638E+01  0.58046890547E+02  0.51100000000E-03 0.  1.
         23    2    1    0    0    0  0.21633523721E+01  0.29820962106E+02 -0.33135122390E+01  0.94917625796E+02  0.90024476944E+02 0.  0.
         11    1    3    3    0    0  0.28369062143E+02 -0.21622923738E+02 -0.93325559028E+01  0.36870735249E+02  0.51100000000E-03 0. -1.
         22    1    1    0    0    0 -0.21633523721E+01 -0.29820962106E+02  0.33135122390E+01  0.30082374204E+02  0.00000000000E+00 0.  1.
</event>
<event>
 5    1  0.8863861E-005  0.9118800E+02  0.7818608E-02  0.1130116E+00
         25   -1    0    0    0    0  0.00000000000E+00  0.00000000000E+00  0.99999998245E-14  0.12500000000E+03  0.12500000000E+03 0.  0.
        -11    1    3    3    0    0 -0.36730786307E+00 -0.42965920821E+02 -0.36671741759E+02  0.56489130910E+02  0.51100000000E-03 0. -1.
         23    2    1    0    0    0 -0.10072359083E+02 -0.25347683902E+02 -0.68494776270E+00  0.97715816851E+02  0.93829388854E+02 0.  0.
         11    1    3    3    0    0 -0.97050512196E+01  0.17618236919E+02  0.35986793996E+02  0.41226685941E+02  0.51100000000E-03 0.  1.
         22    1    1    0    0    0  0.10072359083E+02  0.25347683902E+02  0.68494776270E+00  0.27284183149E+02  0.00000000000E+00 0. -1.
</event>
<event>
 5    1  0.8863861E-005  0.9118800E+02  0.7818608E-02  0.1130116E+00
         25   -1    0    0    0    0  0.00000000000E+00  0.00000000000E+00  0.99999998245E-14  0.12500000000E+03  0.12500000000E+03 0.  0.
        -11    1    3    3    0    0  0.94938198674E+01  0.62250043111E+01  0.36418845304E+02  0.38147288080E+02  0.51100000000E-03 0. -1.
         23    2    1    0    0    0 -0.26469758962E+02 -0.14247104667E+02 -0.23435959722E+01  0.94848373627E+02  0.89928268118E+02 0.  0.
         11    1    3    3    0    0 -0.35963578829E+02 -0.20472108978E+02 -0.38762441276E+02  0.56701085546E+02  0.51100000000E-03 0.  1.
         22    1    1    0    0    0  0.26469758962E+02  0.14247104667E+02  0.23435959722E+01  0.30151626373E+02  0.00000000000E+00 0.  1.
</event>
<event>
 5    1  0.8863861E-005  0.9118800E+02  0.7818608E-02  0.1130116E+00
         25   -1    0    0    0    0  0.00000000000E+00  0.00000000000E+00  0.99999998245E-14  0.12500000000E+03  0.12500000000E+03 0.  0.
        -11    1    3    3    0    0 -0.57337561794E+02  0.79531930784E+01 -0.17552103450E+02  0.60489053625E+02  0.51100000000E-03 0.  1.
         23    2    1    0    0    0 -0.28515765378E+02  0.86133021630E+01  0.17124553442E+01  0.95162601445E+02  0.90363988187E+02 0.  0.
         11    1    3    3    0    0  0.28821796416E+02  0.66010908456E+00  0.19264558794E+02  0.34673547820E+02  0.51100000000E-03 0. -1.
         22    1    1    0    0    0  0.28515765378E+02 -0.86133021630E+01 -0.17124553442E+01  0.29837398555E+02  0.00000000000E+00 0.  1.
</event>
<event>
 5    1  0.8863861E-005  0.9118800E+02  0.7818608E-02  0.1130116E+00
         25   -1    0    0    0    0  0.00000000000E+00  0.00000000000E+00  0.99999998245E-14  0.12500000000E+03  0.12500000000E+03 0.  0.
        -11    1    3    3    0    0 -0.26691924426E+02  0.99322709523E+01  0.31502673859E+02  0.42467956112E+02  0.51100000000E-03 0. -1.
         23    2    1    0    0    0 -0.11088459510E+02  0.18523457671E+02 -0.19137902962E+02  0.96149839719E+02  0.91719463201E+02 0.  0.
         11    1    3    3    0    0  0.15603464916E+02  0.85911867191E+01 -0.50640576821E+02  0.53681883607E+02  0.51100000000E-03 0.  1.
         22    1    1    0    0    0  0.11088459510E+02 -0.18523457671E+02  0.19137902962E+02  0.28850160281E+02  0.00000000000E+00 0.  1.
</event>
<event>
 5    1  0.8863861E-005  0.9118800E+02  0.7818608E-02  0.1130116E+00
         25   -1    0    0    0    0  0.00000000000E+00  0.00000000000E+00  0.99999998245E-14  0.12500000000E+03  0.12500000000E+03 0.  0.
        -11    1    3    3    0    0  0.96177137428E+01 -0.21989759418E+02  0.54647210439E+02  0.59685572343E+02  0.51100000000E-03 0.  1.
         23    2    1    0    0    0  0.11855347145E+02  0.94958038311E+00  0.25649404858E+02  0.96727346633E+02  0.92503171072E+02 0.  0.
         11    1    3    3    0    0  0.22376334026E+01  0.22939339801E+02 -0.28997805581E+02  0.37041774290E+02  0.51100000000E-03 0. -1.
         22    1    1    0    0    0 -0.11855347145E+02 -0.94958038311E+00 -0.25649404858E+02  0.28272653367E+02  0.00000000000E+00 0.  1.
</event>
<event>
 5    1  0.8863861E-005  0.9118800E+02  0.7818608E-02  0.1130116E+00
         25   -1    0    0    0    0  0.00000000000E+00  0.00000000000E+00  0.99999998245E-14  0.12500000000E+03  0.12500000000E+03 0.  0.
        -11    1    3    3    0    0  0.49444020264E+02 -0.90330796664E+01  0.18363633320E+02  0.53511967793E+02  0.51100000000E-03 0. -1.
         23    2    1    0    0    0  0.25022506865E+02  0.71854675895E+01 -0.12535458546E+02  0.96105458730E+02  0.91658958550E+02 0.  0.
         11    1    3    3    0    0 -0.24421513399E+02  0.16218547256E+02 -0.30899091866E+02  0.42593490937E+02  0.51100000000E-03 0.  1.
         22    1    1    0    0    0 -0.25022506865E+02 -0.71854675895E+01  0.12535458546E+02  0.28894541270E+02  0.00000000000E+00 0. -1.
</event>
<event>
 5    1  0.8863861E-005  0.9118800E+02  0.7818608E-02  0.1130116E+00
         25   -1    0    0    0    0  0.00000000000E+00  0.00000000000E+00  0.99999998245E-14  0.12500000000E+03  0.12500000000E+03 0.  0.
        -11    1    3    3    0    0 -0.38238223113E+02 -0.38623725808E+01  0.36427024640E+01  0.38605037370E+02  0.51100000000E-03 0.  1.
         23    2    1    0    0    0  0.14511108192E+02 -0.25422618952E+02 -0.29047906801E+00  0.95726015074E+02  0.91140022869E+02 0.  0.
         11    1    3    3    0    0  0.52749331305E+02 -0.21560246371E+02 -0.39331815320E+01  0.57120977705E+02  0.51100000000E-03 0. -1.
         22    1    1    0    0    0 -0.14511108192E+02  0.25422618952E+02  0.29047906801E+00  0.29273984926E+02  0.00000000000E+00 0. -1.
</event>
<event>
 5    1  0.8863861E-005  0.9118800E+02  0.7818608E-02  0.1130116E+00
         25   -1    0    0    0    0  0.00000000000E+00  0.00000000000E+00  0.99999998245E-14  0.12500000000E+03  0.12500000000E+03 0.  0.
        -11    1    3    3    0    0 -0.67505224490E+01 -0.38028082857E+01  0.36496812528E+02  0.37310162545E+02  0.51100000000E-03 0. -1.
         23    2    1    0    0    0  0.20786272682E+02 -0.17615744671E+02 -0.12369599502E+02  0.95076922214E+02  0.90245390760E+02 0.  0.
         11    1    3    3    0    0  0.27536795131E+02 -0.13812936386E+02 -0.48866412030E+02  0.57766759669E+02  0.51100000000E-03 0.  1.
         22    1    1    0    0    0 -0.20786272682E+02  0.17615744671E+02  0.12369599502E+02  0.29923077786E+02  0.00000000000E+00 0.  1.
</event>
<event>
 5    1  0.8863861E-005  0.9118800E+02  0.7818608E-02  0.1130116E+00
         25   -1    0    0    0    0  0.00000000000E+00  0.00000000000E+00  0.99999998245E-14  0.12500000000E+03  0.12500000000E+03 0.  0.
        -11    1    3    3    0    0 -0.13835614270E+02 -0.44489890773E+02 -0.95456158418E+00  0.46601349672E+02  0.51100000000E-03 0. -1.
         23    2    1    0    0    0 -0.23680647207E+02 -0.16936896708E+01  0.18763700182E+02  0.94739165884E+02  0.89776341377E+02 0.  0.
         11    1    3    3    0    0 -0.98450329372E+01  0.42796201102E+02  0.19718261766E+02  0.48137816212E+02  0.51100000000E-03 0.  1.
         22    1    1    0    0    0  0.23680647207E+02  0.16936896708E+01 -0.18763700182E+02  0.30260834116E+02  0.00000000000E+00 0. -1.
</event>
<event>
 5    1  0.8863861E-005  0.9118800E+02  0.7818608E-02  0.1130116E+00
         25   -1    0    0    0    0  0.00000000000E+00  0.00000000000E+00  0.99999998245E-14  0.12500000000E+03  0.12500000000E+03 0.  0.
        -11    1    3    3    0    0 -0.27057789209E+01  0.37637561332E+02 -0.12143069371E+02  0.39640401065E+02  0.51100000000E-03 0.  1.
         23    2    1    0    0    0  0.13988174091E+02 -0.17772727973E+02 -0.15456781365E+02  0.97605639920E+02  0.93682495591E+02 0.  0.
         11    1    3    3    0    0  0.16693953012E+02 -0.55410289305E+02 -0.33137119934E+01  0.57965238855E+02  0.51100000000E-03 0. -1.
         22    1    1    0    0    0 -0.13988174091E+02  0.17772727973E+02  0.15456781365E+02  0.27394360080E+02  0.00000000000E+00 0. -1.
</event>
<event>
 5    1  0.8863861E-005  0.9118800E+02  0.7818608E-02  0.1130116E+00
         25   -1    0    0    0    0  0.00000000000E+00  0.00000000000E+00  0.99999998245E-14  0.12500000000E+03  0.12500000000E+03 0.  0.
        -11    1    3    3    0    0 -0.12317237064E+02 -0.21192657314E+02 -0.23384184897E+02  0.33877177516E+02  0.51100000000E-03 0. -1.
         23    2    1    0    0    0  0.95422995495E+01  0.21825475340E+02  0.16119152557E+02  0.96238325263E+02  0.91839976675E+02 0.  0.
         11    1    3    3    0    0  0.21859536614E+02  0.43018132654E+02  0.39503337454E+02  0.62361147747E+02  0.51100000000E-03 0.  1.
         22    1    1    0    0    0 -0.95422995495E+01 -0.21825475340E+02 -0.16119152557E+02  0.28761674737E+02  0.00000000000E+00 0.  1.
</event>
<event>
 5    1  0.8863861E-005  0.9118800E+02  0.7818608E-02  0.1130116E+00
         25   -1    0    0    0    0  0.00000000000E+00  0.00000000000E+00  0.99999998245E-14  0.12500000000E+03  0.12500000000E+03 0.  0.
        -11    1    3    3    0    0 -0.91394940647E+01  0.18560376010E+02 -0.36095776644E+02  0.41604362767E+02  0.51100000000E-03 0.  1.
         23    2    1    0    0    0  0.79276423195E+01  0.22646112129E+02  0.15722634426E+02  0.96313851067E+02  0.91942714593E+02 0.  0.
         11    1    3    3    0    0  0.17067136384E+02  0.40857361192E+01  0.51818411070E+02  0.54709488300E+02  0.51100000000E-03 0. -1.
         22    1    1    0    0    0 -0.79276423195E+01 -0.22646112129E+02 -0.15722634426E+02  0.28686148933E+02  0.00000000000E+00 0. -1.
</event>
<event>
 5    1  0.8863861E-005  0.9118800E+02  0.7818608E-02  0.1130116E+00
         25   -1    0    0    0    0  0.00000000000E+00  0.00000000000E+00  0.99999998245E-14  0.12500000000E+03  0.12500000000E+03 0.  0.
        -11    1    3    3    0    0  0.15408377564E+02  0.51664822192E+02 -0.21434641165E+02  0.58018236731E+02  0.51100000000E-03 0.  1.
         23    2    1    0    0    0 -0.95368360935E+01  0.25886297962E+02 -0.91955340800E+01  0.95920634260E+02  0.91406556466E+02 0.  0.
         11    1    3    3    0    0 -0.24945213658E+02 -0.25778524230E+02  0.12239107085E+02  0.37902397528E+02  0.51100000000E-03 0. -1.
         22    1    1    0    0    0  0.95368360935E+01 -0.25886297962E+02  0.91955340800E+01  0.29079365740E+02  0.00000000000E+00 0.  1.
</event>
<event>
 5    1  0.8863861E-005  0.9118800E+02  0.7818608E-02  0.1130116E+00
         25   -1    0    0    0    0  0.00000000000E+00  0.00000000000E+00  0.99999998245E-14  0.12500000000E+03  0.12500000000E+03 0.  0.
        -11    1    3    3    0    0 -0.35561626205E+02  0.26942346463E+02  0.42714848545E+02  0.61766314264E+02  0.51100000000E-03 0. -1.
         23    2    1    0    0    0 -0.98280571903E+01  0.15375884450E+02  0.19393589963E+02  0.98370695420E+02  0.94697802799E+02 0.  0.
         11    1    3    3    0    0  0.25733569015E+02 -0.11566462013E+02 -0.23321258582E+02  0.36604381156E+02  0.51100000000E-03 0.  1.
         22    1    1    0    0    0  0.98280571903E+01 -0.15375884450E+02 -0.19393589963E+02  0.26629304580E+02  0.00000000000E+00 0. -1.
</event>
<event>
 5    1  0.8863861E-005  0.9118800E+02  0.7818608E-02  0.1130116E+00
         25   -1    0    0    0    0  0.00000000000E+00  0.00000000000E+00  0.99999998245E-14  0.12500000000E+03  0.12500000000E+03 0.  0.
        -11    1    3    3    0    0 -0.43039073424E+02 -0.21841147213E+02 -0.12267409876E+02  0.49798462809E+02  0.51100000000E-03 0. -1.
         23    2    1    0    0    0 -0.27171563707E+02  0.16676133326E+02 -0.38799956511E+00  0.93116809434E+02  0.87488298409E+02 0.  0.
         11    1    3    3    0    0  0.15867509717E+02  0.38517280539E+02  0.11879410311E+02  0.43318346625E+02  0.51100000000E-03 0.  1.
         22    1    1    0    0    0  0.27171563707E+02 -0.16676133326E+02  0.38799956511E+00  0.31883190566E+02  0.00000000000E+00 0.  1.
</event>
<event>
 5    1  0.8863861E-005  0.9118800E+02  0.7818608E-02  0.1130116E+00
         25   -1    0    0    0    0  0.00000000000E+00  0.00000000000E+00  0.99999998245E-14  0.12500000000E+03  0.12500000000E+03 0.  0.
        -11    1    3    3    0    0 -0.23205851495E+02  0.39921252444E+02  0.27437658473E+02  0.53712596689E+02  0.51100000000E-03 0. -1.
         23    2    1    0    0    0 -0.13692058611E+02  0.24169740375E+02 -0.10038802133E+02  0.95463135456E+02  0.90778763288E+02 0.  0.
         11    1    3    3    0    0  0.95137928842E+01 -0.15751512069E+02 -0.37476460606E+02  0.41750538767E+02  0.51100000000E-03 0.  1.
         22    1    1    0    0    0  0.13692058611E+02 -0.24169740375E+02  0.10038802133E+02  0.29536864544E+02  0.00000000000E+00 0. -1.
</event>
<event>
 5    1  0.8863861E-005  0.9118800E+02  0.7818608E-02  0.1130116E+00
         25   -1    0    0    0    0  0.00000000000E+00  0.00000000000E+00  0.99999998245E-14  0.12500000000E+03  0.12500000000E+03 0.  0.
        -11    1    3    3    0    0  0.12566018997E+01  0.14457945127E+02 -0.38234828646E+02  0.40896373280E+02  0.51100000000E-03 0. -1.
         23    2    1    0    0    0  0.33180134171E+02  0.34857212623E+01 -0.35414021315E+00  0.91635393429E+02  0.85345464773E+02 0.  0.
         11    1    3    3    0    0  0.31923532272E+02 -0.10972223864E+02  0.37880688433E+02  0.50739020149E+02  0.51100000000E-03 0.  1.
         22    1    1    0    0    0 -0.33180134171E+02 -0.34857212623E+01  0.35414021315E+00  0.33364606571E+02  0.00000000000E+00 0.  1.
</event>
<event>
 5    1  0.8863861E-005  0.9118800E+02  0.7818608E-02  0.1130116E+00
         25   -1    0    0    0    0  0.00000000000E+00  0.00000000000E+00  0.99999998245E-14  0.12500000000E+03  0.12500000000E+03 0.  0.
        -11    1    3    3    0    0  0.21495091720E+02 -0.32038712720E+02 -0.28649819619E+02  0.48055491312E+02  0.51100000000E-03 0.  1.
         23    2    1    0    0    0  0.26075713472E+02 -0.84035731204E+01  0.11834065401E+02  0.95156944222E+02  0.90356162244E+02 0.  0.
         11    1    3    3    0    0  0.45806217522E+01  0.23635139599E+02  0.40483885021E+02  0.47101452909E+02  0.51100000000E-03 0. -1.
         22    1    1    0    0    0 -0.26075713472E+02  0.84035731204E+01 -0.11834065401E+02  0.29843055778E+02  0.00000000000E+00 0.  1.
</event>
<event>
 5    1  0.8863861E-005  0.9118800E+02  0.7818608E-02  0.1130116E+00
         25   -1    0    0    0    0  0.00000000000E+00  0.00000000000E+00  0.99999998245E-14  0.12500000000E+03  0.12500000000E+03 0.  0.
        -11    1    3    3    0    0  0.22469885427E+02 -0.34376861821E+02  0.81718935384E+01  0.41874147442E+02  0.51100000000E-03 0.  1.
         23    2    1    0    0    0 -0.18537402536E+02 -0.12513540498E+02 -0.18953930684E+02  0.95683187811E+02  0.91081265651E+02 0.  0.
         11    1    3    3    0    0 -0.41007287963E+02  0.21863321323E+02 -0.27125824222E+02  0.53809040368E+02  0.51100000000E-03 0. -1.
         22    1    1    0    0    0  0.18537402536E+02  0.12513540498E+02  0.18953930684E+02  0.29316812189E+02  0.00000000000E+00 0.  1.
</event>
<event>
 5    1  0.8863861E-005  0.9118800E+02  0.7818608E-02  0.1130116E+00
         25   -1    0    0    0    0  0.00000000000E+00  0.00000000000E+00  0.99999998245E-14  0.12500000000E+03  0.12500000000E+03 0.  0.
        -11    1    3    3    0    0 -0.29500629628E+02  0.34512103213E+02  0.24561116453E+02  0.51619965694E+02  0.51100000000E-03 0. -1.
         23    2    1    0    0    0 -0.19632665377E+02 -0.23247102735E+01 -0.97839720094E+01  0.10294162436E+03  0.10055051511E+03 0.  0.
         11    1    3    3    0    0  0.98679642509E+01 -0.36836813487E+02 -0.34345088462E+02  0.51321658664E+02  0.51100000000E-03 0.  1.
         22    1    1    0    0    0  0.19632665377E+02  0.23247102735E+01  0.97839720094E+01  0.22058375641E+02  0.00000000000E+00 0.  1.
</event>
<event>
 5    1  0.8863861E-005  0.9118800E+02  0.7818608E-02  0.1130116E+00
         25   -1    0    0    0    0  0.00000000000E+00  0.00000000000E+00  0.99999998245E-14  0.12500000000E+03  0.12500000000E+03 0.  0.
        -11    1    3    3    0    0  0.20677893432E+01 -0.10887026185E+01  0.44841882038E+02  0.44902732780E+02  0.51100000000E-03 0. -1.
         23    2    1    0    0    0 -0.17034031176E+02 -0.22270891411E+02  0.13300294407E+01  0.96930090832E+02  0.92776735813E+02 0.  0.
         11    1    3    3    0    0 -0.19101820520E+02 -0.21182188793E+02 -0.43511852597E+02  0.52027358052E+02  0.51100000000E-03 0.  1.
         22    1    1    0    0    0  0.17034031176E+02  0.22270891411E+02 -0.13300294407E+01  0.28069909168E+02  0.00000000000E+00 0.  1.
</event>
<event>
 5    1  0.8863861E-005  0.9118800E+02  0.7818608E-02  0.1130116E+00
         25   -1    0    0    0    0  0.00000000000E+00  0.00000000000E+00  0.99999998245E-14  0.12500000000E+03  0.12500000000E+03 0.  0.
        -11    1    3    3    0    0 -0.19567158279E+02 -0.38409812952E+02  0.43578629627E+02  0.61296691384E+02  0.51100000000E-03 0. -1.
         23    2    1    0    0    0 -0.48502349990E+01 -0.23956507235E+02  0.15803837478E+02  0.95893294630E+02  0.91369161415E+02 0.  0.
         11    1    3    3    0    0  0.14716923280E+02  0.14453305718E+02 -0.27774792149E+02  0.34596603246E+02  0.51100000000E-03 0.  1.
         22    1    1    0    0    0  0.48502349990E+01  0.23956507235E+02 -0.15803837478E+02  0.29106705370E+02  0.00000000000E+00 0. -1.
</event>
<event>
 5    1  0.8863861E-005  0.9118800E+02  0.7818608E-02  0.1130116E+00
         25   -1    0    0    0    0  0.00000000000E+00  0.00000000000E+00  0.99999998245E-14  0.12500000000E+03  0.12500000000E+03 0.  0.
        -11    1    3    3    0    0  0.13813445449E+02 -0.21480520486E+02  0.30320192219E+02  0.39642629731E+02  0.51100000000E-03 0.  1.
         23    2    1    0    0    0 -0.27464411968E+02  0.71445830927E+01  0.40355985651E+01  0.96335997347E+02  0.91972818467E+02 0.  0.
         11    1    3    3    0    0 -0.41277857417E+02  0.28625103579E+02 -0.26284593654E+02  0.56693367616E+02  0.51100000000E-03 0. -1.
         22    1    1    0    0    0  0.27464411968E+02 -0.71445830927E+01 -0.40355985651E+01  0.28664002653E+02  0.00000000000E+00 0. -1.
</event>
<event>
 5    1  0.8863861E-005  0.9118800E+02  0.7818608E-02  0.1130116E+00
         25   -1    0    0    0    0  0.00000000000E+00  0.00000000000E+00  0.99999998245E-14  0.12500000000E+03  0.12500000000E+03 0.  0.
        -11    1    3    3    0    0 -0.21389183950E+02  0.81444364184E+01 -0.22975416632E+02  0.32429906017E+02  0.51100000000E-03 0.  1.
         23    2    1    0    0    0  0.16581691552E+02  0.27882528523E+01  0.25633630738E+02  0.94343681344E+02  0.89223989690E+02 0.  0.
         11    1    3    3    0    0  0.37970875502E+02 -0.53561835661E+01  0.48609047370E+02  0.61913775327E+02  0.51100000000E-03 0. -1.
         22    1    1    0    0    0 -0.16581691552E+02 -0.27882528523E+01 -0.25633630738E+02  0.30656318656E+02  0.00000000000E+00 0. -1.
</event>
<event>
 5    1  0.8863861E-005  0.9118800E+02  0.7818608E-02  0.1130116E+00
         25   -1    0    0    0    0  0.00000000000E+00  0.00000000000E+00  0.99999998245E-14  0.12500000000E+03  0.12500000000E+03 0.  0.
        -11    1    3    3    0    0  0.14081176255E+02  0.66064325422E+01  0.31484188572E+02  0.35116642863E+02  0.51100000000E-03 0.  1.
         23    2    1    0    0    0  0.21324073797E+02 -0.11037213277E+01 -0.24735601528E+02  0.92323030938E+02  0.86346729727E+02 0.  0.
         11    1    3    3    0    0  0.72428975418E+01 -0.77101538699E+01 -0.56219790100E+02  0.57206388076E+02  0.51100000000E-03 0. -1.
         22    1    1    0    0    0 -0.21324073797E+02  0.11037213277E+01  0.24735601528E+02  0.32676969062E+02  0.00000000000E+00 0. -1.
</event>
<event>
 5    1  0.8863861E-005  0.9118800E+02  0.7818608E-02  0.1130116E+00
         25   -1    0    0    0    0  0.00000000000E+00  0.00000000000E+00  0.99999998245E-14  0.12500000000E+03  0.12500000000E+03 0.  0.
        -11    1    3    3    0    0 -0.31901252307E+02 -0.48162456252E+02  0.26364210759E+00  0.57770075284E+02  0.51100000000E-03 0. -1.
         23    2    1    0    0    0 -0.19905040163E+02 -0.16548752136E+02 -0.15232456939E+02  0.94965027625E+02  0.90090270875E+02 0.  0.
         11    1    3    3    0    0  0.11996212143E+02  0.31613704116E+02 -0.15496099046E+02  0.37194952341E+02  0.51100000000E-03 0.  1.
         22    1    1    0    0    0  0.19905040163E+02  0.16548752136E+02  0.15232456939E+02  0.30034972375E+02  0.00000000000E+00 0. -1.
</event>
<event>
 5    1  0.8863861E-005  0.9118800E+02  0.7818608E-02  0.1130116E+00
         25   -1    0    0    0    0  0.00000000000E+00  0.00000000000E+00  0.99999998245E-14  0.12500000000E+03  0.12500000000E+03 0.  0.
        -11    1    3    3    0    0 -0.17154643750E+02  0.55505410381E+01  0.54937108667E+02  0.57820205957E+02  0.51100000000E-03 0.  1.
         23    2    1    0    0    0 -0.19639170309E+02  0.12979684657E+02  0.18583968382E+02  0.95007782592E+02  0.90149573754E+02 0.  0.
         11    1    3    3    0    0 -0.24845265589E+01  0.74291436192E+01 -0.36353140285E+02  0.37187576635E+02  0.51100000000E-03 0. -1.
         22    1    1    0    0    0  0.19639170309E+02 -0.12979684657E+02 -0.18583968382E+02  0.29992217408E+02  0.00000000000E+00 0.  1.
</event>
<event>
 5    1  0.8863861E-005  0.9118800E+02  0.7818608E-02  0.1130116E+00
         25   -1    0    0    0    0  0.00000000000E+00  0.00000000000E+00  0.99999998245E-14  0.12500000000E+03  0.12500000000E+03 0.  0.
        -11    1    3    3    0    0 -0.52546437049E+02 -0.92139045336E+01 -0.30159457922E+02  0.61283088905E+02  0.51100000000E-03 0. -1.
         23    2    1    0    0    0 -0.27414216478E+02 -0.87708482729E+01 -0.71920856321E+01  0.95331950851E+02  0.90597945412E+02 0.  0.
         11    1    3    3    0    0  0.25132220571E+02  0.44305626071E+00  0.22967372290E+02  0.34048861946E+02  0.51100000000E-03 0.  1.
         22    1    1    0    0    0  0.27414216478E+02  0.87708482729E+01  0.71920856321E+01  0.29668049149E+02  0.00000000000E+00 0. -1.
</event>
<event>
 5    1  0.8863861E-005  0.9118800E+02  0.7818608E-02  0.1130116E+00
         25   -1    0    0    0    0  0.00000000000E+00  0.00000000000E+00  0.99999998245E-14  0.12500000000E+03  0.12500000000E+03 0.  0.
        -11    1    3    3    0    0 -0.43579910877E+02  0.14793566119E+02  0.32241862733E+02  0.56192490097E+02  0.51100000000E-03 0.  1.
         23    2    1    0    0    0 -0.28187323930E+02 -0.79576983771E+01  0.42620752795E+01  0.95402441326E+02  0.90695150540E+02 0.  0.
         11    1    3    3    0    0  0.15392586947E+02 -0.22751264496E+02 -0.27979787454E+02  0.39209951228E+02  0.51100000000E-03 0. -1.
         22    1    1    0    0    0  0.28187323930E+02  0.79576983771E+01 -0.42620752795E+01  0.29597558674E+02  0.00000000000E+00 0.  1.
</event>
<event>
 5    1  0.8863861E-005  0.9118800E+02  0.7818608E-02  0.1130116E+00
         25   -1    0    0    0    0  0.00000000000E+00  0.00000000000E+00  0.99999998245E-14  0.12500000000E+03  0.12500000000E+03 0.  0.
        -11    1    3    3    0    0 -0.33030048595E+02 -0.58964872378E+01  0.11594155358E+02  0.35498973374E+02  0.51100000000E-03 0. -1.
         23    2    1    0    0    0  0.19607270802E+02 -0.19484156069E+02 -0.12130903790E+02  0.94813310337E+02  0.89879517045E+02 0.  0.
         11    1    3    3    0    0  0.52637319397E+02 -0.13587668832E+02 -0.23725059148E+02  0.59314336963E+02  0.51100000000E-03 0.  1.
         22    1    1    0    0    0 -0.19607270802E+02  0.19484156069E+02  0.12130903790E+02  0.30186689663E+02  0.00000000000E+00 0.  1.
</event>
<event>
 5    1  0.8863861E-005  0.9118800E+02  0.7818608E-02  0.1130116E+00
         25   -1    0    0    0    0  0.00000000000E+00  0.00000000000E+00  0.99999998245E-14  0.12500000000E+03  0.12500000000E+03 0.  0.
        -11    1    3    3    0    0  0.20677480634E+02  0.37719699079E+02 -0.20661115186E+02  0.47720180060E+02  0.51100000000E-03 0.  1.
         23    2    1    0    0    0  0.27026322525E+02 -0.80765624025E+01 -0.88044972713E+01  0.95450513682E+02  0.90761381768E+02 0.  0.
         11    1    3    3    0    0  0.63488418914E+01 -0.45796261481E+02  0.11856617915E+02  0.47730333622E+02  0.51100000000E-03 0. -1.
         22    1    1    0    0    0 -0.27026322525E+02  0.80765624025E+01  0.88044972713E+01  0.29549486318E+02  0.00000000000E+00 0.  1.
</event>
<event>
 5    1  0.8863861E-005  0.9118800E+02  0.7818608E-02  0.1130116E+00
         25   -1    0    0    0    0  0.00000000000E+00  0.00000000000E+00  0.99999998245E-14  0.12500000000E+03  0.12500000000E+03 0.  0.
        -11    1    3    3    0    0 -0.50175219654E+02  0.31424954260E+02 -0.25130792886E+01  0.59257033214E+02  0.51100000000E-03 0.  1.
         23    2    1    0    0    0 -0.17236563025E+02  0.23752893155E+02 -0.10182070819E+02  0.93935975722E+02  0.88650966890E+02 0.  0.
         11    1    3    3    0    0  0.32938656629E+02 -0.76720611052E+01 -0.76689915300E+01  0.34678942508E+02  0.51100000000E-03 0. -1.
         22    1    1    0    0    0  0.17236563025E+02 -0.23752893155E+02  0.10182070819E+02  0.31064024278E+02  0.00000000000E+00 0.  1.
</event>
<event>
 5    1  0.8863861E-005  0.9118800E+02  0.7818608E-02  0.1130116E+00
         25   -1    0    0    0    0  0.00000000000E+00  0.00000000000E+00  0.99999998245E-14  0.12500000000E+03  0.12500000000E+03 0.  0.
        -11    1    3    3    0    0  0.40691990091E+02  0.39007163423E+02  0.22820584558E+02  0.60812629739E+02  0.51100000000E-03 0.  1.
         23    2    1    0    0    0  0.18977468646E+02  0.22437051893E+02  0.13030702791E+01  0.95584636565E+02  0.90945913273E+02 0.  0.
         11    1    3    3    0    0 -0.21714521445E+02 -0.16570111529E+02 -0.21517514279E+02  0.34772006826E+02  0.51100000000E-03 0. -1.
         22    1    1    0    0    0 -0.18977468646E+02 -0.22437051893E+02 -0.13030702791E+01  0.29415363435E+02  0.00000000000E+00 0.  1.
</event>
<event>
 5    1  0.8863861E-005  0.9118800E+02  0.7818608E-02  0.1130116E+00
         25   -1    0    0    0    0  0.00000000000E+00  0.00000000000E+00  0.99999998245E-14  0.12500000000E+03  0.12500000000E+03 0.  0.
        -11    1    3    3    0    0 -0.35591784909E+02  0.32660612244E+02 -0.53369827532E+00  0.48309166618E+02  0.51100000000E-03 0. -1.
         23    2    1    0    0    0 -0.24226819134E+02 -0.13190701380E+02  0.79246126452E+01  0.96299253428E+02  0.91922866344E+02 0.  0.
         11    1    3    3    0    0  0.11364965775E+02 -0.45851313624E+02  0.84583109205E+01  0.47990086810E+02  0.51100000000E-03 0.  1.
         22    1    1    0    0    0  0.24226819134E+02  0.13190701380E+02 -0.79246126452E+01  0.28700746572E+02  0.00000000000E+00 0. -1.
</event>
<event>
 5    1  0.8863861E-005  0.9118800E+02  0.7818608E-02  0.1130116E+00
         25   -1    0    0    0    0  0.00000000000E+00  0.00000000000E+00  0.99999998245E-14  0.12500000000E+03  0.12500000000E+03 0.  0.
        -11    1    3    3    0    0  0.37706529552E+02  0.14495536534E+01 -0.33468050101E+02  0.50438020921E+02  0.51100000000E-03 0.  1.
         23    2    1    0    0    0 -0.75365094217E+00 -0.17801501718E+02 -0.25044326662E+02  0.94264356992E+02  0.89112789475E+02 0.  0.
         11    1    3    3    0    0 -0.38460180494E+02 -0.19251055371E+02  0.84237234390E+01  0.43826336070E+02  0.51100000000E-03 0. -1.
         22    1    1    0    0    0  0.75365094217E+00  0.17801501718E+02  0.25044326662E+02  0.30735643008E+02  0.00000000000E+00 0. -1.
</event>
<event>
 5    1  0.8863861E-005  0.9118800E+02  0.7818608E-02  0.1130116E+00
         25   -1    0    0    0    0  0.00000000000E+00  0.00000000000E+00  0.99999998245E-14  0.12500000000E+03  0.12500000000E+03 0.  0.
        -11    1    3    3    0    0  0.22229603738E+02 -0.21011705309E+02 -0.44365583553E+02  0.53888329410E+02  0.51100000000E-03 0.  1.
         23    2    1    0    0    0  0.11163217495E+02  0.12603248536E+02 -0.26682135608E+02  0.93450108413E+02  0.87963214490E+02 0.  0.
         11    1    3    3    0    0 -0.11066386242E+02  0.33614953845E+02  0.17683447945E+02  0.39561779003E+02  0.51100000000E-03 0. -1.
         22    1    1    0    0    0 -0.11163217495E+02 -0.12603248536E+02  0.26682135608E+02  0.31549891587E+02  0.00000000000E+00 0. -1.
</event>
<event>
 5    1  0.8863861E-005  0.9118800E+02  0.7818608E-02  0.1130116E+00
         25   -1    0    0    0    0  0.00000000000E+00  0.00000000000E+00  0.99999998245E-14  0.12500000000E+03  0.12500000000E+03 0.  0.
        -11    1    3    3    0    0 -0.28075194043E+02  0.11734644866E+02 -0.22534939467E+02  0.37864784533E+02  0.51100000000E-03 0. -1.
         23    2    1    0    0    0  0.50398822521E+01 -0.28926484855E+02  0.16046303629E+01  0.95593932977E+02  0.90958689767E+02 0.  0.
         11    1    3    3    0    0  0.33115076295E+02 -0.40661129721E+02  0.24139569830E+02  0.57729148444E+02  0.51100000000E-03 0.  1.
         22    1    1    0    0    0 -0.50398822521E+01  0.28926484855E+02 -0.16046303629E+01  0.29406067023E+02  0.00000000000E+00 0.  1.
</event>
<event>
 5    1  0.8863861E-005  0.9118800E+02  0.7818608E-02  0.1130116E+00
         25   -1    0    0    0    0  0.00000000000E+00  0.00000000000E+00  0.99999998245E-14  0.12500000000E+03  0.12500000000E+03 0.  0.
        -11    1    3    3    0    0 -0.25607678955E+02  0.27005661860E+02  0.40203289518E+01  0.37432900490E+02  0.51100000000E-03 0.  1.
         23    2    1    0    0    0  0.11649904734E+02  0.33681599814E+02 -0.21772294527E+02  0.83236340494E+02  0.72000591132E+02 0.  0.
         11    1    3    3    0    0  0.37257583689E+02  0.66759379543E+01 -0.25792623479E+02  0.45803440003E+02  0.51100000000E-03 0. -1.
         22    1    1    0    0    0 -0.11649904734E+02 -0.33681599814E+02  0.21772294527E+02  0.41763659506E+02  0.00000000000E+00 0. -1.
</event>
<event>
 5    1  0.8863861E-005  0.9118800E+02  0.7818608E-02  0.1130116E+00
         25   -1    0    0    0    0  0.00000000000E+00  0.00000000000E+00  0.99999998245E-14  0.12500000000E+03  0.12500000000E+03 0.  0.
        -11    1    3    3    0    0  0.30051020102E+02 -0.16528659477E+02 -0.21659582552E+02  0.40563504655E+02  0.51100000000E-03 0. -1.
         23    2    1    0    0    0  0.15804859856E+02  0.29072668686E+02 -0.32991080699E+01  0.91744958673E+02  0.85505787338E+02 0.  0.
         11    1    3    3    0    0 -0.14246160246E+02  0.45601328163E+02  0.18360474482E+02  0.51181454018E+02  0.51100000000E-03 0.  1.
         22    1    1    0    0    0 -0.15804859856E+02 -0.29072668686E+02  0.32991080699E+01  0.33255041327E+02  0.00000000000E+00 0. -1.
</event>
<event>
 5    1  0.8863861E-005  0.9118800E+02  0.7818608E-02  0.1130116E+00
         25   -1    0    0    0    0  0.00000000000E+00  0.00000000000E+00  0.99999998245E-14  0.12500000000E+03  0.12500000000E+03 0.  0.
        -11    1    3    3    0    0 -0.41281390646E+02 -0.32899463896E+02  0.18429607897E+02  0.55912238247E+02  0.51100000000E-03 0. -1.
         23    2    1    0    0    0 -0.16821044524E+02 -0.35444666163E+01  0.24976626923E+02  0.94679335843E+02  0.89692998393E+02 0.  0.
         11    1    3    3    0    0  0.24460346122E+02  0.29354997279E+02  0.65470190262E+01  0.38767097596E+02  0.51100000000E-03 0.  1.
         22    1    1    0    0    0  0.16821044524E+02  0.35444666163E+01 -0.24976626923E+02  0.30320664157E+02  0.00000000000E+00 0. -1.
</event>
<event>
 5    1  0.8863861E-005  0.9118800E+02  0.7818608E-02  0.1130116E+00
         25   -1    0    0    0    0  0.00000000000E+00  0.00000000000E+00  0.99999998245E-14  0.12500000000E+03  0.12500000000E+03 0.  0.
        -11    1    3    3    0    0 -0.88043650787E+01 -0.51045761886E+02  0.12620312067E+02  0.53314715866E+02  0.51100000000E-03 0. -1.
         23    2    1    0    0    0  0.84352832826E+01 -0.22599590833E+02 -0.15037941719E+02  0.96574040016E+02  0.92295774573E+02 0.  0.
         11    1    3    3    0    0  0.17239648361E+02  0.28446171053E+02 -0.27658253786E+02  0.43259324150E+02  0.51100000000E-03 0.  1.
         22    1    1    0    0    0 -0.84352832826E+01  0.22599590833E+02  0.15037941719E+02  0.28425959984E+02  0.00000000000E+00 0. -1.
</event>
<event>
 5    1  0.8863861E-005  0.9118800E+02  0.7818608E-02  0.1130116E+00
         25   -1    0    0    0    0  0.00000000000E+00  0.00000000000E+00  0.99999998245E-14  0.12500000000E+03  0.12500000000E+03 0.  0.
        -11    1    3    3    0    0  0.16602952915E+02 -0.27344477632E+02 -0.10955724578E+02  0.33814292892E+02  0.51100000000E-03 0. -1.
         23    2    1    0    0    0 -0.11264069186E+02  0.16044201533E+02 -0.30317862572E+02  0.88896420560E+02  0.81234876377E+02 0.  0.
         11    1    3    3    0    0 -0.27867022101E+02  0.43388679165E+02 -0.19362137994E+02  0.55082127668E+02  0.51100000000E-03 0.  1.
         22    1    1    0    0    0  0.11264069186E+02 -0.16044201533E+02  0.30317862572E+02  0.36103579440E+02  0.00000000000E+00 0.  1.
</event>
<event>
 5    1  0.8863861E-005  0.9118800E+02  0.7818608E-02  0.1130116E+00
         25   -1    0    0    0    0  0.00000000000E+00  0.00000000000E+00  0.99999998245E-14  0.12500000000E+03  0.12500000000E+03 0.  0.
        -11    1    3    3    0    0 -0.21172488469E+01 -0.25499356626E+02 -0.28105643940E+02  0.38008251111E+02  0.51100000000E-03 0. -1.
         23    2    1    0    0    0 -0.14733003144E+02  0.24797365091E+02 -0.19391186368E+01  0.96090989671E+02  0.91639224232E+02 0.  0.
         11    1    3    3    0    0 -0.12615754297E+02  0.50296721716E+02  0.26166525303E+02  0.58082738560E+02  0.51100000000E-03 0.  1.
         22    1    1    0    0    0  0.14733003144E+02 -0.24797365091E+02  0.19391186368E+01  0.28909010329E+02  0.00000000000E+00 0.  1.
</event>
<event>
 5    1  0.8863861E-005  0.9118800E+02  0.7818608E-02  0.1130116E+00
         25   -1    0    0    0    0  0.00000000000E+00  0.00000000000E+00  0.99999998245E-14  0.12500000000E+03  0.12500000000E+03 0.  0.
        -11    1    3    3    0    0  0.34970897755E+02 -0.32015900670E+02 -0.26601946425E+02  0.54365845339E+02  0.51100000000E-03 0.  1.
         23    2    1    0    0    0  0.16431372486E+02 -0.22681221144E+02  0.90042503431E+01  0.95580545236E+02  0.90940289801E+02 0.  0.
         11    1    3    3    0    0 -0.18539525269E+02  0.93346795259E+01  0.35606196768E+02  0.41214699897E+02  0.51100000000E-03 0. -1.
         22    1    1    0    0    0 -0.16431372486E+02  0.22681221144E+02 -0.90042503431E+01  0.29419454764E+02  0.00000000000E+00 0.  1.
</event>
<event>
 5    1  0.8863861E-005  0.9118800E+02  0.7818608E-02  0.1130116E+00
         25   -1    0    0    0    0  0.00000000000E+00  0.00000000000E+00  0.99999998245E-14  0.12500000000E+03  0.12500000000E+03 0.  0.
        -11    1    3    3    0    0  0.22105219624E+02 -0.17156612160E+02  0.18027713749E+02  0.33286461793E+02  0.51100000000E-03 0. -1.
         23    2    1    0    0    0 -0.16779547244E+02  0.88490920343E+01 -0.22774303602E+02  0.95360017880E+02  0.90636661842E+02 0.  0.
         11    1    3    3    0    0 -0.38884766869E+02  0.26005704194E+02 -0.40802017351E+02  0.62073556086E+02  0.51100000000E-03 0.  1.
         22    1    1    0    0    0  0.16779547244E+02 -0.88490920343E+01  0.22774303602E+02  0.29639982120E+02  0.00000000000E+00 0.  1.
</event>
<event>
 5    1  0.8863861E-005  0.9118800E+02  0.7818608E-02  0.1130116E+00
         25   -1    0    0    0    0  0.00000000000E+00  0.00000000000E+00  0.99999998245E-14  0.12500000000E+03  0.12500000000E+03 0.  0.
        -11    1    3    3    0    0  0.38355745407E+02  0.14123551289E+02  0.54239450990E+01  0.41231748537E+02  0.51100000000E-03 0. -1.
         23    2    1    0    0    0 -0.94890193003E+01  0.16225134870E+02 -0.21716823686E+02  0.96278633044E+02  0.91894821731E+02 0.  0.
         11    1    3    3    0    0 -0.47844764707E+02  0.21015835807E+01 -0.27140768785E+02  0.55046884507E+02  0.51100000000E-03 0.  1.
         22    1    1    0    0    0  0.94890193003E+01 -0.16225134870E+02  0.21716823686E+02  0.28721366956E+02  0.00000000000E+00 0.  1.
</event>
<event>
 5    1  0.8863861E-005  0.9118800E+02  0.7818608E-02  0.1130116E+00
         25   -1    0    0    0    0  0.00000000000E+00  0.00000000000E+00  0.99999998245E-14  0.12500000000E+03  0.12500000000E+03 0.  0.
        -11    1    3    3    0    0 -0.22789347964E+00 -0.22869686091E+02 -0.31530957720E+02  0.38952224228E+02  0.51100000000E-03 0. -1.
         23    2    1    0    0    0 -0.91571704776E+01  0.26777624749E+02 -0.40039470889E+01  0.96418073007E+02  0.92084299703E+02 0.  0.
         11    1    3    3    0    0 -0.89292769979E+01  0.49647310840E+02  0.27527010631E+02  0.57465848779E+02  0.51100000000E-03 0.  1.
         22    1    1    0    0    0  0.91571704776E+01 -0.26777624749E+02  0.40039470889E+01  0.28581926993E+02  0.00000000000E+00 0.  1.
</event>
<event>
 5    1  0.8863861E-005  0.9118800E+02  0.7818608E-02  0.1130116E+00
         25   -1    0    0    0    0  0.00000000000E+00  0.00000000000E+00  0.99999998245E-14  0.12500000000E+03  0.12500000000E+03 0.  0.
        -11    1    3    3    0    0  0.39404171016E+02  0.33864068256E+02  0.17972095607E+02  0.54976904542E+02  0.51100000000E-03 0. -1.
         23    2    1    0    0    0  0.22896681182E+01  0.91432788365E+01  0.23278857232E+02  0.99885316606E+02  0.96676414660E+02 0.  0.
         11    1    3    3    0    0 -0.37114502898E+02 -0.24720789419E+02  0.53067616242E+01  0.44908412063E+02  0.51100000000E-03 0.  1.
         22    1    1    0    0    0 -0.22896681182E+01 -0.91432788365E+01 -0.23278857232E+02  0.25114683394E+02  0.00000000000E+00 0.  1.
</event>
<event>
 5    1  0.8863861E-005  0.9118800E+02  0.7818608E-02  0.1130116E+00
         25   -1    0    0    0    0  0.00000000000E+00  0.00000000000E+00  0.99999998245E-14  0.12500000000E+03  0.12500000000E+03 0.  0.
        -11    1    3    3    0    0 -0.39790377403E+02 -0.83318686446E+01 -0.30887470850E+02  0.51056145808E+02  0.51100000000E-03 0.  1.
         23    2    1    0    0    0 -0.18603970268E+02  0.22230431551E+02 -0.72536877247E+01  0.95118303558E+02  0.90302690378E+02 0.  0.
         11    1    3    3    0    0  0.21186407135E+02  0.30562300195E+02  0.23633783125E+02  0.44062157750E+02  0.51100000000E-03 0. -1.
         22    1    1    0    0    0  0.18603970268E+02 -0.22230431551E+02  0.72536877247E+01  0.29881696442E+02  0.00000000000E+00 0.  1.
</event>
<event>
 5    1  0.8863861E-005  0.9118800E+02  0.7818608E-02  0.1130116E+00
         25   -1    0    0    0    0  0.00000000000E+00  0.00000000000E+00  0.99999998245E-14  0.12500000000E+03  0.12500000000E+03 0.  0.
        -11    1    3    3    0    0  0.18045473054E+02  0.20844401194E+02  0.23714573922E+02  0.36366319245E+02  0.51100000000E-03 0.  1.
         23    2    1    0    0    0 -0.17737712656E+02  0.78067279959E+01 -0.21878288571E+02  0.95772770178E+02  0.91204125699E+02 0.  0.
         11    1    3    3    0    0 -0.35783185710E+02 -0.13037673198E+02 -0.45592862492E+02  0.59406450933E+02  0.51100000000E-03 0. -1.
         22    1    1    0    0    0  0.17737712656E+02 -0.78067279959E+01  0.21878288571E+02  0.29227229822E+02  0.00000000000E+00 0. -1.
</event>
<event>
 5    1  0.8863861E-005  0.9118800E+02  0.7818608E-02  0.1130116E+00
         25   -1    0    0    0    0  0.00000000000E+00  0.00000000000E+00  0.99999998245E-14  0.12500000000E+03  0.12500000000E+03 0.  0.
        -11    1    3    3    0    0  0.15548466539E+02  0.30507124766E+02 -0.47161591938E+02  0.58280830704E+02  0.51100000000E-03 0.  1.
         23    2    1    0    0    0  0.81637985435E+01  0.28922759893E+01 -0.34294972275E+02  0.89628288275E+02  0.82353336719E+02 0.  0.
         11    1    3    3    0    0 -0.73846679954E+01 -0.27614848776E+02  0.12866619663E+02  0.31347457571E+02  0.51100000000E-03 0. -1.
         22    1    1    0    0    0 -0.81637985435E+01 -0.28922759893E+01  0.34294972275E+02  0.35371711725E+02  0.00000000000E+00 0.  1.
</event>
<event>
 5    1  0.8863861E-005  0.9118800E+02  0.7818608E-02  0.1130116E+00
         25   -1    0    0    0    0  0.00000000000E+00  0.00000000000E+00  0.99999998245E-14  0.12500000000E+03  0.12500000000E+03 0.  0.
        -11    1    3    3    0    0  0.15132957383E+02 -0.33929251804E+02 -0.48685900484E+02  0.61241468249E+02  0.51100000000E-03 0. -1.
         23    2    1    0    0    0  0.15658917734E+02 -0.14500992820E+02 -0.21081141532E+02  0.95001749623E+02  0.90141208145E+02 0.  0.
         11    1    3    3    0    0  0.52596035098E+00  0.19428258984E+02  0.27604758951E+02  0.33760281374E+02  0.51100000000E-03 0.  1.
         22    1    1    0    0    0 -0.15658917734E+02  0.14500992820E+02  0.21081141532E+02  0.29998250377E+02  0.00000000000E+00 0. -1.
</event>
<event>
 5    1  0.8863861E-005  0.9118800E+02  0.7818608E-02  0.1130116E+00
         25   -1    0    0    0    0  0.00000000000E+00  0.00000000000E+00  0.99999998245E-14  0.12500000000E+03  0.12500000000E+03 0.  0.
        -11    1    3    3    0    0 -0.26495490649E+02 -0.42610059232E+02 -0.48439761055E+01  0.50409247933E+02  0.51100000000E-03 0.  1.
         23    2    1    0    0    0  0.38632767279E+01 -0.22015500253E+02  0.20236602752E+02  0.94848262912E+02  0.89928114225E+02 0.  0.
         11    1    3    3    0    0  0.30358767376E+02  0.20594558979E+02  0.25080578858E+02  0.44439014979E+02  0.51100000000E-03 0. -1.
         22    1    1    0    0    0 -0.38632767279E+01  0.22015500253E+02 -0.20236602752E+02  0.30151737088E+02  0.00000000000E+00 0. -1.
</event>
<event>
 5    1  0.8863861E-005  0.9118800E+02  0.7818608E-02  0.1130116E+00
         25   -1    0    0    0    0  0.00000000000E+00  0.00000000000E+00  0.99999998245E-14  0.12500000000E+03  0.12500000000E+03 0.  0.
        -11    1    3    3    0    0  0.27028373012E+02 -0.45274660270E+02  0.24792341839E+02  0.58266525762E+02  0.51100000000E-03 0.  1.
         23    2    1    0    0    0 -0.18613241200E+01 -0.23082828954E+02  0.18770986683E+02  0.95190077809E+02  0.90401988099E+02 0.  0.
         11    1    3    3    0    0 -0.28889697132E+02  0.22191831316E+02 -0.60213551564E+01  0.36923552047E+02  0.51100000000E-03 0. -1.
         22    1    1    0    0    0  0.18613241200E+01  0.23082828954E+02 -0.18770986683E+02  0.29809922191E+02  0.00000000000E+00 0.  1.
</event>
<event>
 5    1  0.8863861E-005  0.9118800E+02  0.7818608E-02  0.1130116E+00
         25   -1    0    0    0    0  0.00000000000E+00  0.00000000000E+00  0.99999998245E-14  0.12500000000E+03  0.12500000000E+03 0.  0.
        -11    1    3    3    0    0  0.15315284743E+02 -0.41141707217E+02  0.39489626070E+02  0.59047680623E+02  0.51100000000E-03 0. -1.
         23    2    1    0    0    0  0.64776896874E+01 -0.28294604649E+02  0.69166779447E+01  0.95160671092E+02  0.90361317902E+02 0.  0.
         11    1    3    3    0    0 -0.88375950560E+01  0.12847102568E+02 -0.32572948126E+02  0.36112990469E+02  0.51100000000E-03 0.  1.
         22    1    1    0    0    0 -0.64776896874E+01  0.28294604649E+02 -0.69166779447E+01  0.29839328908E+02  0.00000000000E+00 0. -1.
</event>
<event>
 5    1  0.8863861E-005  0.9118800E+02  0.7818608E-02  0.1130116E+00
         25   -1    0    0    0    0  0.00000000000E+00  0.00000000000E+00  0.99999998245E-14  0.12500000000E+03  0.12500000000E+03 0.  0.
        -11    1    3    3    0    0 -0.15323655552E+02 -0.53266200431E+02  0.21348078403E+02  0.59395647817E+02  0.51100000000E-03 0.  1.
         23    2    1    0    0    0 -0.18571277429E+02 -0.23244742690E+02  0.21681242916E+01  0.95168621034E+02  0.90372314668E+02 0.  0.
         11    1    3    3    0    0 -0.32476218777E+01  0.30021457741E+02 -0.19179954112E+02  0.35772973217E+02  0.51100000000E-03 0. -1.
         22    1    1    0    0    0  0.18571277429E+02  0.23244742690E+02 -0.21681242916E+01  0.29831378966E+02  0.00000000000E+00 0.  1.
</event>
<event>
 5    1  0.8863861E-005  0.9118800E+02  0.7818608E-02  0.1130116E+00
         25   -1    0    0    0    0  0.00000000000E+00  0.00000000000E+00  0.99999998245E-14  0.12500000000E+03  0.12500000000E+03 0.  0.
        -11    1    3    3    0    0  0.11401914230E+02 -0.60921951211E+02  0.64144923486E+01  0.62310781569E+02  0.51100000000E-03 0.  1.
         23    2    1    0    0    0  0.54525853798E+01 -0.27880495935E+02  0.63806445317E+01  0.95883589412E+02  0.91355882969E+02 0.  0.
         11    1    3    3    0    0 -0.59493288498E+01  0.33041455276E+02 -0.33847816900E-01  0.33572807843E+02  0.51100000000E-03 0. -1.
         22    1    1    0    0    0 -0.54525853798E+01  0.27880495935E+02 -0.63806445317E+01  0.29116410588E+02  0.00000000000E+00 0.  1.
</event>
<event>
 5    1  0.8863861E-005  0.9118800E+02  0.7818608E-02  0.1130116E+00
         25   -1    0    0    0    0  0.00000000000E+00  0.00000000000E+00  0.99999998245E-14  0.12500000000E+03  0.12500000000E+03 0.  0.
        -11    1    3    3    0    0  0.28837063848E+02 -0.19584061396E+02 -0.31059343424E+02  0.46688269686E+02  0.51100000000E-03 0.  1.
         23    2    1    0    0    0 -0.12802700629E+02  0.72873081051E+01 -0.24131123740E+02  0.96727661296E+02  0.92503596276E+02 0.  0.
         11    1    3    3    0    0 -0.41639764476E+02  0.26871369501E+02  0.69282196833E+01  0.50039391610E+02  0.51100000000E-03 0. -1.
         22    1    1    0    0    0  0.12802700629E+02 -0.72873081051E+01  0.24131123740E+02  0.28272338704E+02  0.00000000000E+00 0. -1.
</event>
<event>
 5    1  0.8863861E-005  0.9118800E+02  0.7818608E-02  0.1130116E+00
         25   -1    0    0    0    0  0.00000000000E+00  0.00000000000E+00  0.99999998245E-14  0.12500000000E+03  0.12500000000E+03 0.  0.
        -11    1    3    3    0    0  0.10908836437E+02 -0.28603153722E+02 -0.38379646613E+02  0.49093180684E+02  0.51100000000E-03 0. -1.
         23    2    1    0    0    0 -0.22347808936E+02 -0.17053676968E+02 -0.75419577881E+01  0.95894440571E+02  0.91370729136E+02 0.  0.
         11    1    3    3    0    0 -0.33256645373E+02  0.11549476753E+02  0.30837688825E+02  0.46801259888E+02  0.51100000000E-03 0.  1.
         22    1    1    0    0    0  0.22347808936E+02  0.17053676968E+02  0.75419577881E+01  0.29105559429E+02  0.00000000000E+00 0. -1.
</event>
<event>
 5    1  0.8863861E-005  0.9118800E+02  0.7818608E-02  0.1130116E+00
         25   -1    0    0    0    0  0.00000000000E+00  0.00000000000E+00  0.99999998245E-14  0.12500000000E+03  0.12500000000E+03 0.  0.
        -11    1    3    3    0    0  0.11739193357E+02  0.22135080840E+02  0.35749797986E+02  0.43655681426E+02  0.51100000000E-03 0. -1.
         23    2    1    0    0    0  0.14355590689E+02  0.21265502240E+02 -0.15529360944E+02  0.95008907641E+02  0.90151133716E+02 0.  0.
         11    1    3    3    0    0  0.26163973318E+01 -0.86957860063E+00 -0.51279158930E+02  0.51353226215E+02  0.51100000000E-03 0.  1.
         22    1    1    0    0    0 -0.14355590689E+02 -0.21265502240E+02  0.15529360944E+02  0.29991092359E+02  0.00000000000E+00 0.  1.
</event>
<event>
 5    1  0.8863861E-005  0.9118800E+02  0.7818608E-02  0.1130116E+00
         25   -1    0    0    0    0  0.00000000000E+00  0.00000000000E+00  0.99999998245E-14  0.12500000000E+03  0.12500000000E+03 0.  0.
        -11    1    3    3    0    0  0.80954659770E+01  0.12258290681E+02  0.47595742631E+02  0.49811213363E+02  0.51100000000E-03 0.  1.
         23    2    1    0    0    0  0.29559694794E+00  0.24610030168E+02 -0.81163721708E+00  0.10037481538E+03  0.97307265123E+02 0.  0.
         11    1    3    3    0    0 -0.77998690291E+01  0.12351739488E+02 -0.48407379848E+02  0.50563602020E+02  0.51100000000E-03 0. -1.
         22    1    1    0    0    0 -0.29559694794E+00 -0.24610030168E+02  0.81163721708E+00  0.24625184617E+02  0.00000000000E+00 0.  1.
</event>
<event>
 5    1  0.8863861E-005  0.9118800E+02  0.7818608E-02  0.1130116E+00
         25   -1    0    0    0    0  0.00000000000E+00  0.00000000000E+00  0.99999998245E-14  0.12500000000E+03  0.12500000000E+03 0.  0.
        -11    1    3    3    0    0  0.48187428080E+02  0.17326874343E+01  0.20505334673E+02  0.52397511210E+02  0.51100000000E-03 0.  1.
         23    2    1    0    0    0  0.12383681768E+02  0.24106649293E+02  0.11459612918E+02  0.95575370138E+02  0.90933176203E+02 0.  0.
         11    1    3    3    0    0 -0.35803746312E+02  0.22373961859E+02 -0.90457217551E+01  0.43177858927E+02  0.51100000000E-03 0. -1.
         22    1    1    0    0    0 -0.12383681768E+02 -0.24106649293E+02 -0.11459612918E+02  0.29424629862E+02  0.00000000000E+00 0.  1.
</event>
<event>
 5    1  0.8863861E-005  0.9118800E+02  0.7818608E-02  0.1130116E+00
         25   -1    0    0    0    0  0.00000000000E+00  0.00000000000E+00  0.99999998245E-14  0.12500000000E+03  0.12500000000E+03 0.  0.
        -11    1    3    3    0    0 -0.58447428341E+02  0.20923309733E+02 -0.68053920378E+01  0.62451582293E+02  0.51100000000E-03 0. -1.
         23    2    1    0    0    0 -0.27837052679E+02  0.89644156664E+01 -0.17374162121E+01  0.95703569071E+02  0.91109232615E+02 0.  0.
         11    1    3    3    0    0  0.30610375662E+02 -0.11958894067E+02  0.50679758257E+01  0.33251986778E+02  0.51100000000E-03 0.  1.
         22    1    1    0    0    0  0.27837052679E+02 -0.89644156664E+01  0.17374162121E+01  0.29296430929E+02  0.00000000000E+00 0. -1.
</event>
<event>
 5    1  0.8863861E-005  0.9118800E+02  0.7818608E-02  0.1130116E+00
         25   -1    0    0    0    0  0.00000000000E+00  0.00000000000E+00  0.99999998245E-14  0.12500000000E+03  0.12500000000E+03 0.  0.
        -11    1    3    3    0    0 -0.47866399222E+02  0.21718742635E+02  0.22596672215E+02  0.57214557165E+02  0.51100000000E-03 0. -1.
         23    2    1    0    0    0 -0.30383432916E+02  0.60440484479E+00 -0.26672775694E+01  0.94493727356E+02  0.89433952384E+02 0.  0.
         11    1    3    3    0    0  0.17482966305E+02 -0.21114337790E+02 -0.25263949785E+02  0.37279170191E+02  0.51100000000E-03 0.  1.
         22    1    1    0    0    0  0.30383432916E+02 -0.60440484479E+00  0.26672775694E+01  0.30506272644E+02  0.00000000000E+00 0. -1.
</event>
<event>
 5    1  0.8863861E-005  0.9118800E+02  0.7818608E-02  0.1130116E+00
         25   -1    0    0    0    0  0.00000000000E+00  0.00000000000E+00  0.99999998245E-14  0.12500000000E+03  0.12500000000E+03 0.  0.
        -11    1    3    3    0    0  0.28835838185E+02  0.76671527042E+01  0.25562604155E+02  0.39290425372E+02  0.51100000000E-03 0.  1.
         23    2    1    0    0    0  0.72932418919E+00 -0.27722742917E+02 -0.86243346739E+01  0.95957590713E+02  0.91457081073E+02 0.  0.
         11    1    3    3    0    0 -0.28106513996E+02 -0.35389895621E+02 -0.34186938829E+02  0.56667165342E+02  0.51100000000E-03 0. -1.
         22    1    1    0    0    0 -0.72932418919E+00  0.27722742917E+02  0.86243346739E+01  0.29042409287E+02  0.00000000000E+00 0. -1.
</event>
<event>
 5    1  0.8863861E-005  0.9118800E+02  0.7818608E-02  0.1130116E+00
         25   -1    0    0    0    0  0.00000000000E+00  0.00000000000E+00  0.99999998245E-14  0.12500000000E+03  0.12500000000E+03 0.  0.
        -11    1    3    3    0    0 -0.16858478975E+02 -0.35926745543E+02 -0.44837918545E+02  0.59878028511E+02  0.51100000000E-03 0. -1.
         23    2    1    0    0    0 -0.29471718773E+00 -0.89041550231E+01 -0.27684850871E+02  0.95916984292E+02  0.91401564938E+02 0.  0.
         11    1    3    3    0    0  0.16563761787E+02  0.27022590520E+02  0.17153067674E+02  0.36038955781E+02  0.51100000000E-03 0.  1.
         22    1    1    0    0    0  0.29471718773E+00  0.89041550231E+01  0.27684850871E+02  0.29083015708E+02  0.00000000000E+00 0. -1.
</event>
<event>
 5    1  0.8863861E-005  0.9118800E+02  0.7818608E-02  0.1130116E+00
         25   -1    0    0    0    0  0.00000000000E+00  0.00000000000E+00  0.99999998245E-14  0.12500000000E+03  0.12500000000E+03 0.  0.
        -11    1    3    3    0    0  0.25959060872E+02 -0.16586736075E+02  0.12321354870E+02  0.33178433373E+02  0.51100000000E-03 0. -1.
         23    2    1    0    0    0 -0.18396574394E+02  0.12021823047E+02 -0.20179951061E+02  0.95163971383E+02  0.90365883196E+02 0.  0.
         11    1    3    3    0    0 -0.44355635266E+02  0.28608559122E+02 -0.32501305932E+02  0.61985538010E+02  0.51100000000E-03 0.  1.
         22    1    1    0    0    0  0.18396574394E+02 -0.12021823047E+02  0.20179951061E+02  0.29836028617E+02  0.00000000000E+00 0.  1.
</event>
<event>
 5    1  0.8863861E-005  0.9118800E+02  0.7818608E-02  0.1130116E+00
         25   -1    0    0    0    0  0.00000000000E+00  0.00000000000E+00  0.99999998245E-14  0.12500000000E+03  0.12500000000E+03 0.  0.
        -11    1    3    3    0    0 -0.60797448493E+01  0.32779222309E+02  0.23370316478E+02  0.40713786426E+02  0.51100000000E-03 0. -1.
         23    2    1    0    0    0 -0.15501067649E+02 -0.19755638383E+02 -0.19993503295E+01  0.99809411521E+02  0.96578221563E+02 0.  0.
         11    1    3    3    0    0 -0.94213227993E+01 -0.52534860692E+02 -0.25369666808E+02  0.59095625095E+02  0.51100000000E-03 0.  1.
         22    1    1    0    0    0  0.15501067649E+02  0.19755638383E+02  0.19993503295E+01  0.25190588479E+02  0.00000000000E+00 0.  1.
</event>
<event>
 5    1  0.8863861E-005  0.9118800E+02  0.7818608E-02  0.1130116E+00
         25   -1    0    0    0    0  0.00000000000E+00  0.00000000000E+00  0.99999998245E-14  0.12500000000E+03  0.12500000000E+03 0.  0.
        -11    1    3    3    0    0  0.16840871466E+02 -0.11399525325E+02  0.57958234814E+02  0.61422480514E+02  0.51100000000E-03 0. -1.
         23    2    1    0    0    0  0.97006079171E+01  0.26523515611E+01  0.27527655098E+02  0.95692858243E+02  0.91094536393E+02 0.  0.
         11    1    3    3    0    0 -0.71402635490E+01  0.14051876887E+02 -0.30430579716E+02  0.34270377729E+02  0.51100000000E-03 0.  1.
         22    1    1    0    0    0 -0.97006079171E+01 -0.26523515611E+01 -0.27527655098E+02  0.29307141757E+02  0.00000000000E+00 0. -1.
</event>
<event>
 5    1  0.8863861E-005  0.9118800E+02  0.7818608E-02  0.1130116E+00
         25   -1    0    0    0    0  0.00000000000E+00  0.00000000000E+00  0.99999998245E-14  0.12500000000E+03  0.12500000000E+03 0.  0.
        -11    1    3    3    0    0 -0.56273971274E+02 -0.15472633737E+02 -0.20262058807E+02  0.61779553779E+02  0.51100000000E-03 0.  1.
         23    2    1    0    0    0 -0.22644139696E+02 -0.35952714990E+01 -0.16411587377E+01  0.10201355961E+03  0.99390089561E+02 0.  0.
         11    1    3    3    0    0  0.33629831578E+02  0.11877362238E+02  0.18620900069E+02  0.40234005833E+02  0.51100000000E-03 0. -1.
         22    1    1    0    0    0  0.22644139696E+02  0.35952714990E+01  0.16411587377E+01  0.22986440388E+02  0.00000000000E+00 0.  1.
</event>
<event>
 5    1  0.8863861E-005  0.9118800E+02  0.7818608E-02  0.1130116E+00
         25   -1    0    0    0    0  0.00000000000E+00  0.00000000000E+00  0.99999998245E-14  0.12500000000E+03  0.12500000000E+03 0.  0.
        -11    1    3    3    0    0  0.95999769766E+01 -0.42153388934E+01  0.52122983335E+02  0.53167038962E+02  0.51100000000E-03 0.  1.
         23    2    1    0    0    0  0.46917808666E+01  0.21874384206E+02  0.18759159638E+02  0.95803980367E+02  0.91246890861E+02 0.  0.
         11    1    3    3    0    0 -0.49081961100E+01  0.26089723099E+02 -0.33363823698E+02  0.42636941406E+02  0.51100000000E-03 0. -1.
         22    1    1    0    0    0 -0.46917808666E+01 -0.21874384206E+02 -0.18759159638E+02  0.29196019633E+02  0.00000000000E+00 0.  1.
</event>
<event>
 5    1  0.8863861E-005  0.9118800E+02  0.7818608E-02  0.1130116E+00
         25   -1    0    0    0    0  0.00000000000E+00  0.00000000000E+00  0.99999998245E-14  0.12500000000E+03  0.12500000000E+03 0.  0.
        -11    1    3    3    0    0  0.40629454598E+02  0.16911412644E+02  0.30148491378E+02  0.53344915326E+02  0.51100000000E-03 0.  1.
         23    2    1    0    0    0  0.85980339339E+00  0.23329118246E+02  0.18305680149E+02  0.95333774327E+02  0.90600461266E+02 0.  0.
         11    1    3    3    0    0 -0.39769651204E+02  0.64177056021E+01 -0.11842811229E+02  0.41988859001E+02  0.51100000000E-03 0. -1.
         22    1    1    0    0    0 -0.85980339339E+00 -0.23329118246E+02 -0.18305680149E+02  0.29666225673E+02  0.00000000000E+00 0.  1.
</event>
<event>
 5    1  0.8863861E-005  0.9118800E+02  0.7818608E-02  0.1130116E+00
         25   -1    0    0    0    0  0.00000000000E+00  0.00000000000E+00  0.99999998245E-14  0.12500000000E+03  0.12500000000E+03 0.  0.
        -11    1    3    3    0    0  0.56784277330E+01  0.25133426440E+02  0.23812695943E+02  0.35085298267E+02  0.51100000000E-03 0.  1.
         23    2    1    0    0    0 -0.12235005739E+02 -0.21103816979E+02 -0.13479532798E+02  0.97129509137E+02  0.93045028261E+02 0.  0.
         11    1    3    3    0    0 -0.17913433472E+02 -0.46237243419E+02 -0.37292228741E+02  0.62044210870E+02  0.51100000000E-03 0. -1.
         22    1    1    0    0    0  0.12235005739E+02  0.21103816979E+02  0.13479532798E+02  0.27870490863E+02  0.00000000000E+00 0. -1.
</event>
<event>
 5    1  0.8863861E-005  0.9118800E+02  0.7818608E-02  0.1130116E+00
         25   -1    0    0    0    0  0.00000000000E+00  0.00000000000E+00  0.99999998245E-14  0.12500000000E+03  0.12500000000E+03 0.  0.
        -11    1    3    3    0    0  0.46002548466E+02  0.25038247173E+02  0.94021789996E+01  0.53212303625E+02  0.51100000000E-03 0.  1.
         23    2    1    0    0    0  0.24892356582E+02 -0.32269853772E+01 -0.14675409352E+02  0.95924056498E+02  0.91411236315E+02 0.  0.
         11    1    3    3    0    0 -0.21110191883E+02 -0.28265232550E+02 -0.24077588352E+02  0.42711752874E+02  0.51100000000E-03 0. -1.
         22    1    1    0    0    0 -0.24892356582E+02  0.32269853772E+01  0.14675409352E+02  0.29075943502E+02  0.00000000000E+00 0.  1.
</event>
<event>
 5    1  0.8863861E-005  0.9118800E+02  0.7818608E-02  0.1130116E+00
         25   -1    0    0    0    0  0.00000000000E+00  0.00000000000E+00  0.99999998245E-14  0.12500000000E+03  0.12500000000E+03 0.  0.
        -11    1    3    3    0    0 -0.36870416118E+02  0.13619397832E+02 -0.46896595527E+02  0.61189919548E+02  0.51100000000E-03 0.  1.
         23    2    1    0    0    0 -0.23597293752E+02  0.28152705224E+01 -0.16514964464E+02  0.96060371948E+02  0.91597450767E+02 0.  0.
         11    1    3    3    0    0  0.13273122366E+02 -0.10804127309E+02  0.30381631063E+02  0.34870452400E+02  0.51100000000E-03 0. -1.
         22    1    1    0    0    0  0.23597293752E+02 -0.28152705224E+01  0.16514964464E+02  0.28939628052E+02  0.00000000000E+00 0.  1.
</event>
<event>
 5    1  0.8863861E-005  0.9118800E+02  0.7818608E-02  0.1130116E+00
         25   -1    0    0    0    0  0.00000000000E+00  0.00000000000E+00  0.99999998245E-14  0.12500000000E+03  0.12500000000E+03 0.  0.
        -11    1    3    3    0    0 -0.18774553848E+02  0.28779910521E+02  0.32785308617E+02  0.47493616236E+02  0.51100000000E-03 0. -1.
         23    2    1    0    0    0  0.11425486228E+02  0.24643883022E+02 -0.63546745475E+01  0.97102964413E+02  0.93009360299E+02 0.  0.
         11    1    3    3    0    0  0.30200040077E+02 -0.41360274998E+01 -0.39139983165E+02  0.49609348177E+02  0.51100000000E-03 0.  1.
         22    1    1    0    0    0 -0.11425486228E+02 -0.24643883022E+02  0.63546745475E+01  0.27897035587E+02  0.00000000000E+00 0.  1.
</event>
<event>
 5    1  0.8863861E-005  0.9118800E+02  0.7818608E-02  0.1130116E+00
         25   -1    0    0    0    0  0.00000000000E+00  0.00000000000E+00  0.99999998245E-14  0.12500000000E+03  0.12500000000E+03 0.  0.
        -11    1    3    3    0    0 -0.39070982682E+02  0.70431419860E+01  0.40608440334E+01  0.39907868790E+02  0.51100000000E-03 0. -1.
         23    2    1    0    0    0  0.14238548573E+02  0.21794345095E+02  0.12938915822E+02  0.95928617400E+02  0.91417472892E+02 0.  0.
         11    1    3    3    0    0  0.53309531256E+02  0.14751203109E+02  0.88780717890E+01  0.56020748610E+02  0.51100000000E-03 0.  1.
         22    1    1    0    0    0 -0.14238548573E+02 -0.21794345095E+02 -0.12938915822E+02  0.29071382600E+02  0.00000000000E+00 0.  1.
</event>
<event>
 5    1  0.8863861E-005  0.9118800E+02  0.7818608E-02  0.1130116E+00
         25   -1    0    0    0    0  0.00000000000E+00  0.00000000000E+00  0.99999998245E-14  0.12500000000E+03  0.12500000000E+03 0.  0.
        -11    1    3    3    0    0  0.21414369722E+02  0.12972319857E+02 -0.29964210307E+02  0.39047537857E+02  0.51100000000E-03 0. -1.
         23    2    1    0    0    0 -0.10016340347E+02 -0.13663301115E+02  0.16641481247E+02  0.10125233129E+03  0.98428059116E+02 0.  0.
         11    1    3    3    0    0 -0.31430710069E+02 -0.26635620972E+02  0.46605691554E+02  0.62204793429E+02  0.51100000000E-03 0.  1.
         22    1    1    0    0    0  0.10016340347E+02  0.13663301115E+02 -0.16641481247E+02  0.23747668715E+02  0.00000000000E+00 0.  1.
</event>
<event>
 5    1  0.8863861E-005  0.9118800E+02  0.7818608E-02  0.1130116E+00
         25   -1    0    0    0    0  0.00000000000E+00  0.00000000000E+00  0.99999998245E-14  0.12500000000E+03  0.12500000000E+03 0.  0.
        -11    1    3    3    0    0  0.41180207370E+02 -0.54414546239E+01  0.89950075320E+01  0.42500930204E+02  0.51100000000E-03 0. -1.
         23    2    1    0    0    0 -0.48143540562E+01  0.18844650122E+02  0.21512391947E+02  0.95998588819E+02  0.91513098543E+02 0.  0.
         11    1    3    3    0    0 -0.45994561426E+02  0.24286104746E+02  0.12517384415E+02  0.53497658615E+02  0.51100000000E-03 0.  1.
         22    1    1    0    0    0  0.48143540562E+01 -0.18844650122E+02 -0.21512391947E+02  0.29001411181E+02  0.00000000000E+00 0.  1.
</event>
<event>
 5    1  0.8863861E-005  0.9118800E+02  0.7818608E-02  0.1130116E+00
         25   -1    0    0    0    0  0.00000000000E+00  0.00000000000E+00  0.99999998245E-14  0.12500000000E+03  0.12500000000E+03 0.  0.
        -11    1    3    3    0    0 -0.18915189893E+02 -0.40249181921E+02  0.42273248629E+02  0.61358036180E+02  0.51100000000E-03 0. -1.
         23    2    1    0    0    0 -0.15950167850E+02 -0.23590528286E+02  0.16805762404E+02  0.91934088108E+02  0.85781828070E+02 0.  0.
         11    1    3    3    0    0  0.29650220421E+01  0.16658653635E+02 -0.25467486225E+02  0.30576051928E+02  0.51100000000E-03 0.  1.
         22    1    1    0    0    0  0.15950167850E+02  0.23590528286E+02 -0.16805762404E+02  0.33065911892E+02  0.00000000000E+00 0. -1.
</event>
<event>
 5    1  0.8863861E-005  0.9118800E+02  0.7818608E-02  0.1130116E+00
         25   -1    0    0    0    0  0.00000000000E+00  0.00000000000E+00  0.99999998245E-14  0.12500000000E+03  0.12500000000E+03 0.  0.
        -11    1    3    3    0    0 -0.10794411944E+02  0.31796684883E+02 -0.84812793981E+01  0.34633518436E+02  0.51100000000E-03 0.  1.
         23    2    1    0    0    0  0.11227809123E+02 -0.16860816849E+02  0.21151860600E+02  0.95712595722E+02  0.91121616153E+02 0.  0.
         11    1    3    3    0    0  0.22022221067E+02 -0.48657501733E+02  0.29633139998E+02  0.61079077285E+02  0.51100000000E-03 0. -1.
         22    1    1    0    0    0 -0.11227809123E+02  0.16860816849E+02 -0.21151860600E+02  0.29287404278E+02  0.00000000000E+00 0. -1.
</event>
<event>
 5    1  0.8863861E-005  0.9118800E+02  0.7818608E-02  0.1130116E+00
         25   -1    0    0    0    0  0.00000000000E+00  0.00000000000E+00  0.99999998245E-14  0.12500000000E+03  0.12500000000E+03 0.  0.
        -11    1    3    3    0    0  0.20496785118E+02 -0.43846628632E+01  0.27359119263E+02  0.34465415647E+02  0.51100000000E-03 0.  1.
         23    2    1    0    0    0 -0.70512822015E+01  0.60898011481E+01 -0.27075415477E+02  0.96366376723E+02  0.92014097728E+02 0.  0.
         11    1    3    3    0    0 -0.27548067320E+02  0.10474464011E+02 -0.54434534741E+02  0.61900961076E+02  0.51100000000E-03 0. -1.
         22    1    1    0    0    0  0.70512822015E+01 -0.60898011481E+01  0.27075415477E+02  0.28633623277E+02  0.00000000000E+00 0. -1.
</event>
<event>
 5    1  0.8863861E-005  0.9118800E+02  0.7818608E-02  0.1130116E+00
         25   -1    0    0    0    0  0.00000000000E+00  0.00000000000E+00  0.99999998245E-14  0.12500000000E+03  0.12500000000E+03 0.  0.
        -11    1    3    3    0    0  0.72496792338E+01  0.82912641929E+01  0.52267317420E+02  0.53415123153E+02  0.51100000000E-03 0. -1.
         23    2    1    0    0    0 -0.20356084633E+01 -0.19488133191E+02  0.19745759266E+02  0.97182271011E+02  0.93115883461E+02 0.  0.
         11    1    3    3    0    0 -0.92852876971E+01 -0.27779397384E+02 -0.32521558154E+02  0.43767147858E+02  0.51100000000E-03 0.  1.
         22    1    1    0    0    0  0.20356084633E+01  0.19488133191E+02 -0.19745759266E+02  0.27817728989E+02  0.00000000000E+00 0. -1.
</event>
<event>
 5    1  0.8863861E-005  0.9118800E+02  0.7818608E-02  0.1130116E+00
         25   -1    0    0    0    0  0.00000000000E+00  0.00000000000E+00  0.99999998245E-14  0.12500000000E+03  0.12500000000E+03 0.  0.
        -11    1    3    3    0    0  0.29325957341E+02  0.24081734777E+02 -0.40437604790E+02  0.55453959328E+02  0.51100000000E-03 0.  1.
         23    2    1    0    0    0 -0.52431698239E+01  0.20934512558E+02 -0.18959753678E+02  0.96273411177E+02  0.91887718408E+02 0.  0.
         11    1    3    3    0    0 -0.34569127164E+02 -0.31472222184E+01  0.21477851112E+02  0.40819451849E+02  0.51100000000E-03 0. -1.
         22    1    1    0    0    0  0.52431698239E+01 -0.20934512558E+02  0.18959753678E+02  0.28726588823E+02  0.00000000000E+00 0.  1.
</event>
<event>
 5    1  0.8863861E-005  0.9118800E+02  0.7818608E-02  0.1130116E+00
         25   -1    0    0    0    0  0.00000000000E+00  0.00000000000E+00  0.99999998245E-14  0.12500000000E+03  0.12500000000E+03 0.  0.
        -11    1    3    3    0    0  0.33302631714E+02  0.63954534113E+01  0.93146550561E+01  0.35167170806E+02  0.51100000000E-03 0. -1.
         23    2    1    0    0    0 -0.26595810319E+02 -0.68296346300E+01  0.75015839059E+01  0.96535025087E+02  0.92242919900E+02 0.  0.
         11    1    3    3    0    0 -0.59898442034E+02 -0.13225088041E+02 -0.18130711502E+01  0.61367854281E+02  0.51100000000E-03 0.  1.
         22    1    1    0    0    0  0.26595810319E+02  0.68296346300E+01 -0.75015839059E+01  0.28464974913E+02  0.00000000000E+00 0.  1.
</event>
<event>
 5    1  0.8863861E-005  0.9118800E+02  0.7818608E-02  0.1130116E+00
         25   -1    0    0    0    0  0.00000000000E+00  0.00000000000E+00  0.99999998245E-14  0.12500000000E+03  0.12500000000E+03 0.  0.
        -11    1    3    3    0    0 -0.51981367881E+02 -0.25384010339E+02  0.24528389643E+01  0.57900146865E+02  0.51100000000E-03 0. -1.
         23    2    1    0    0    0 -0.28752885367E+02  0.50654812601E+00 -0.95533725730E+01  0.94697327916E+02  0.89718069411E+02 0.  0.
         11    1    3    3    0    0  0.23228482514E+02  0.25890558465E+02 -0.12006211537E+02  0.36797181051E+02  0.51100000000E-03 0.  1.
         22    1    1    0    0    0  0.28752885367E+02 -0.50654812601E+00  0.95533725730E+01  0.30302672084E+02  0.00000000000E+00 0.  1.
</event>
<event>
 5    1  0.8863861E-005  0.9118800E+02  0.7818608E-02  0.1130116E+00
         25   -1    0    0    0    0  0.00000000000E+00  0.00000000000E+00  0.99999998245E-14  0.12500000000E+03  0.12500000000E+03 0.  0.
        -11    1    3    3    0    0  0.18539902136E+02 -0.22175304117E+02 -0.46475491535E+02  0.54730644045E+02  0.51100000000E-03 0.  1.
         23    2    1    0    0    0 -0.44408987091E+01 -0.26293881799E+02 -0.13563802981E+02  0.95082337112E+02  0.90252890690E+02 0.  0.
         11    1    3    3    0    0 -0.22980800845E+02 -0.41185776823E+01  0.32911688554E+02  0.40351693067E+02  0.51100000000E-03 0. -1.
         22    1    1    0    0    0  0.44408987091E+01  0.26293881799E+02  0.13563802981E+02  0.29917662888E+02  0.00000000000E+00 0.  1.
</event>
<event>
 5    1  0.8863861E-005  0.9118800E+02  0.7818608E-02  0.1130116E+00
         25   -1    0    0    0    0  0.00000000000E+00  0.00000000000E+00  0.99999998245E-14  0.12500000000E+03  0.12500000000E+03 0.  0.
        -11    1    3    3    0    0 -0.47117052007E+02  0.10005760752E+02  0.39609030907E+02  0.62361904780E+02  0.51100000000E-03 0.  1.
         23    2    1    0    0    0 -0.21790335595E+02  0.72287822003E+01  0.20662611832E+02  0.94112825556E+02  0.88899979690E+02 0.  0.
         11    1    3    3    0    0  0.25326716412E+02 -0.27769785518E+01 -0.18946419075E+02  0.31750920776E+02  0.51100000000E-03 0. -1.
         22    1    1    0    0    0  0.21790335595E+02 -0.72287822003E+01 -0.20662611832E+02  0.30887174444E+02  0.00000000000E+00 0.  1.
</event>
<event>
 5    1  0.8863861E-005  0.9118800E+02  0.7818608E-02  0.1130116E+00
         25   -1    0    0    0    0  0.00000000000E+00  0.00000000000E+00  0.99999998245E-14  0.12500000000E+03  0.12500000000E+03 0.  0.
        -11    1    3    3    0    0 -0.73484407474E+01  0.26055733480E+02  0.28285962821E+02  0.39153499481E+02  0.51100000000E-03 0.  1.
         23    2    1    0    0    0  0.16789033330E+01  0.88931654992E+01 -0.26355457924E+02  0.97133940512E+02  0.93050981338E+02 0.  0.
         11    1    3    3    0    0  0.90273440803E+01 -0.17162567981E+02 -0.54641420745E+02  0.57980441031E+02  0.51100000000E-03 0. -1.
         22    1    1    0    0    0 -0.16789033330E+01 -0.88931654992E+01  0.26355457924E+02  0.27866059488E+02  0.00000000000E+00 0. -1.
</event>
<event>
 5    1  0.8863861E-005  0.9118800E+02  0.7818608E-02  0.1130116E+00
         25   -1    0    0    0    0  0.00000000000E+00  0.00000000000E+00  0.99999998245E-14  0.12500000000E+03  0.12500000000E+03 0.  0.
        -11    1    3    3    0    0 -0.18770964685E+02  0.49142553305E+01  0.57197408753E+02  0.60399028046E+02  0.51100000000E-03 0.  1.
         23    2    1    0    0    0  0.22642665951E+01  0.42144424848E+01  0.29122879064E+02  0.95486773920E+02  0.90811307006E+02 0.  0.
         11    1    3    3    0    0  0.21035231280E+02 -0.69981284570E+00 -0.28074529689E+02  0.35087745874E+02  0.51100000000E-03 0. -1.
         22    1    1    0    0    0 -0.22642665951E+01 -0.42144424848E+01 -0.29122879064E+02  0.29513226080E+02  0.00000000000E+00 0.  1.
</event>
<event>
 5    1  0.8863861E-005  0.9118800E+02  0.7818608E-02  0.1130116E+00
         25   -1    0    0    0    0  0.00000000000E+00  0.00000000000E+00  0.99999998245E-14  0.12500000000E+03  0.12500000000E+03 0.  0.
        -11    1    3    3    0    0 -0.97986101005E+01  0.14473205571E+02  0.30124235933E+02  0.34827518289E+02  0.51100000000E-03 0.  1.
         23    2    1    0    0    0  0.26244518933E+02 -0.72426572032E+01 -0.12781028838E+02  0.94923671176E+02  0.90032870631E+02 0.  0.
         11    1    3    3    0    0  0.36043129033E+02 -0.21715862774E+02 -0.42905264770E+02  0.60096152887E+02  0.51100000000E-03 0. -1.
         22    1    1    0    0    0 -0.26244518933E+02  0.72426572032E+01  0.12781028838E+02  0.30076328824E+02  0.00000000000E+00 0. -1.
</event>
<event>
 5    1  0.8863861E-005  0.9118800E+02  0.7818608E-02  0.1130116E+00
         25   -1    0    0    0    0  0.00000000000E+00  0.00000000000E+00  0.99999998245E-14  0.12500000000E+03  0.12500000000E+03 0.  0.
        -11    1    3    3    0    0 -0.32800142816E+02  0.45795460570E+02  0.60465022651E+01  0.56653629782E+02  0.51100000000E-03 0. -1.
         23    2    1    0    0    0 -0.13955449872E+02  0.19609675240E+02 -0.16328817494E+02  0.95915223486E+02  0.91399156842E+02 0.  0.
         11    1    3    3    0    0  0.18844692945E+02 -0.26185785331E+02 -0.22375319759E+02  0.39261593704E+02  0.51100000000E-03 0.  1.
         22    1    1    0    0    0  0.13955449872E+02 -0.19609675240E+02  0.16328817494E+02  0.29084776514E+02  0.00000000000E+00 0. -1.
</event>
<event>
 5    1  0.8863861E-005  0.9118800E+02  0.7818608E-02  0.1130116E+00
         25   -1    0    0    0    0  0.00000000000E+00  0.00000000000E+00  0.99999998245E-14  0.12500000000E+03  0.12500000000E+03 0.  0.
        -11    1    3    3    0    0  0.21785455439E+02  0.13951427514E+02 -0.49034961526E+02  0.55440741792E+02  0.51100000000E-03 0.  1.
         23    2    1    0    0    0  0.16904933695E+02 -0.13159147153E+02 -0.25698419597E+02  0.91543330907E+02  0.85210520047E+02 0.  0.
         11    1    3    3    0    0 -0.48805217437E+01 -0.27110574667E+02  0.23336541929E+02  0.36102589114E+02  0.51100000000E-03 0. -1.
         22    1    1    0    0    0 -0.16904933695E+02  0.13159147153E+02  0.25698419597E+02  0.33456669093E+02  0.00000000000E+00 0.  1.
</event>
<event>
 5    1  0.8863861E-005  0.9118800E+02  0.7818608E-02  0.1130116E+00
         25   -1    0    0    0    0  0.00000000000E+00  0.00000000000E+00  0.99999998245E-14  0.12500000000E+03  0.12500000000E+03 0.  0.
        -11    1    3    3    0    0  0.32926021489E+02  0.40423095226E+02 -0.97691591852E+01  0.53043246414E+02  0.51100000000E-03 0.  1.
         23    2    1    0    0    0  0.27088075531E+02 -0.10268204308E+01  0.50074540261E+01  0.97433846986E+02  0.93452992176E+02 0.  0.
         11    1    3    3    0    0 -0.58379459580E+01 -0.41449915656E+02  0.14776613211E+02  0.44390600573E+02  0.51100000000E-03 0. -1.
         22    1    1    0    0    0 -0.27088075531E+02  0.10268204308E+01 -0.50074540261E+01  0.27566153014E+02  0.00000000000E+00 0. -1.
</event>
<event>
 5    1  0.8863861E-005  0.9118800E+02  0.7818608E-02  0.1130116E+00
         25   -1    0    0    0    0  0.00000000000E+00  0.00000000000E+00  0.99999998245E-14  0.12500000000E+03  0.12500000000E+03 0.  0.
        -11    1    3    3    0    0 -0.16185198966E+02  0.73128850482E+01 -0.30855407557E+02  0.35601897829E+02  0.51100000000E-03 0.  1.
         23    2    1    0    0    0  0.21024734994E+02 -0.14937216740E+02  0.11992405835E+02  0.96557466301E+02  0.92273325372E+02 0.  0.
         11    1    3    3    0    0  0.37209933960E+02 -0.22250101788E+02  0.42847813392E+02  0.60955568471E+02  0.51100000000E-03 0. -1.
         22    1    1    0    0    0 -0.21024734994E+02  0.14937216740E+02 -0.11992405835E+02  0.28442533699E+02  0.00000000000E+00 0. -1.
</event>
<event>
 5    1  0.8863861E-005  0.9118800E+02  0.7818608E-02  0.1130116E+00
         25   -1    0    0    0    0  0.00000000000E+00  0.00000000000E+00  0.99999998245E-14  0.12500000000E+03  0.12500000000E+03 0.  0.
        -11    1    3    3    0    0 -0.33972709303E+02  0.30353310258E+01  0.14152205612E+01  0.34137385098E+02  0.51100000000E-03 0. -1.
         23    2    1    0    0    0  0.17893871773E+02 -0.25883529257E+02  0.70493336379E+00  0.93525491825E+02  0.88070272830E+02 0.  0.
         11    1    3    3    0    0  0.51866581076E+02 -0.28918860282E+02 -0.71028719743E+00  0.59388106728E+02  0.51100000000E-03 0.  1.
         22    1    1    0    0    0 -0.17893871773E+02  0.25883529257E+02 -0.70493336379E+00  0.31474508175E+02  0.00000000000E+00 0.  1.
</event>
<event>
 5    1  0.8863861E-005  0.9118800E+02  0.7818608E-02  0.1130116E+00
         25   -1    0    0    0    0  0.00000000000E+00  0.00000000000E+00  0.99999998245E-14  0.12500000000E+03  0.12500000000E+03 0.  0.
        -11    1    3    3    0    0 -0.43830856606E+02 -0.23056046442E+02  0.17879022345E+02  0.52653439666E+02  0.51100000000E-03 0. -1.
         23    2    1    0    0    0 -0.11005797530E+01 -0.24258443680E+02  0.16905110148E+02  0.95411723357E+02  0.90707942537E+02 0.  0.
         11    1    3    3    0    0  0.42730276853E+02 -0.12023972375E+01 -0.97391219683E+00  0.42758283692E+02  0.51100000000E-03 0.  1.
         22    1    1    0    0    0  0.11005797530E+01  0.24258443680E+02 -0.16905110148E+02  0.29588276643E+02  0.00000000000E+00 0. -1.
</event>
<event>
 5    1  0.8863861E-005  0.9118800E+02  0.7818608E-02  0.1130116E+00
         25   -1    0    0    0    0  0.00000000000E+00  0.00000000000E+00  0.99999998245E-14  0.12500000000E+03  0.12500000000E+03 0.  0.
        -11    1    3    3    0    0 -0.48082142015E+02  0.14186370546E+02 -0.18081914770E+02  0.53292599224E+02  0.51100000000E-03 0.  1.
         23    2    1    0    0    0 -0.14548165173E+02 -0.13288314227E+02 -0.20311587993E+02  0.96701784302E+02  0.92468622113E+02 0.  0.
         11    1    3    3    0    0  0.33533976842E+02 -0.27474684773E+02 -0.22296732229E+01  0.43409185078E+02  0.51100000000E-03 0. -1.
         22    1    1    0    0    0  0.14548165173E+02  0.13288314227E+02  0.20311587993E+02  0.28298215698E+02  0.00000000000E+00 0. -1.
</event>
<event>
 5    1  0.8863861E-005  0.9118800E+02  0.7818608E-02  0.1130116E+00
         25   -1    0    0    0    0  0.00000000000E+00  0.00000000000E+00  0.99999998245E-14  0.12500000000E+03  0.12500000000E+03 0.  0.
        -11    1    3    3    0    0 -0.20347921155E+02  0.20871673169E+02 -0.42828882944E+02  0.51807121622E+02  0.51100000000E-03 0. -1.
         23    2    1    0    0    0 -0.75957711622E+01 -0.16174846991E+02 -0.23449513622E+02  0.95517783262E+02  0.90853980735E+02 0.  0.
         11    1    3    3    0    0  0.12752149993E+02 -0.37046520159E+02  0.19379369323E+02  0.43710661640E+02  0.51100000000E-03 0.  1.
         22    1    1    0    0    0  0.75957711622E+01  0.16174846991E+02  0.23449513622E+02  0.29482216738E+02  0.00000000000E+00 0. -1.
</event>
<event>
 5    1  0.8863861E-005  0.9118800E+02  0.7818608E-02  0.1130116E+00
         25   -1    0    0    0    0  0.00000000000E+00  0.00000000000E+00  0.99999998245E-14  0.12500000000E+03  0.12500000000E+03 0.  0.
        -11    1    3    3    0    0 -0.32952920888E-01 -0.29231223378E+02 -0.25041376147E+02  0.38490726489E+02  0.51100000000E-03 0.  1.
         23    2    1    0    0    0 -0.11113456981E+02 -0.78673886056E+01  0.26406680845E+02  0.95289437521E+02  0.90539269825E+02 0.  0.
         11    1    3    3    0    0 -0.11080504060E+02  0.21363834772E+02  0.51448056992E+02  0.56798711032E+02  0.51100000000E-03 0. -1.
         22    1    1    0    0    0  0.11113456981E+02  0.78673886056E+01 -0.26406680845E+02  0.29710562479E+02  0.00000000000E+00 0. -1.
</event>
<event>
 5    1  0.8863861E-005  0.9118800E+02  0.7818608E-02  0.1130116E+00
         25   -1    0    0    0    0  0.00000000000E+00  0.00000000000E+00  0.99999998245E-14  0.12500000000E+03  0.12500000000E+03 0.  0.
        -11    1    3    3    0    0 -0.56531252239E+02 -0.22656950188E+02 -0.40974059594E+01  0.61040221227E+02  0.51100000000E-03 0. -1.
         23    2    1    0    0    0 -0.23825691541E+02 -0.12215455740E+02 -0.10990798624E+02  0.96057322329E+02  0.91593288959E+02 0.  0.
         11    1    3    3    0    0  0.32705560698E+02  0.10441494449E+02 -0.68933926649E+01  0.35017101102E+02  0.51100000000E-03 0.  1.
         22    1    1    0    0    0  0.23825691541E+02  0.12215455740E+02  0.10990798624E+02  0.28942677671E+02  0.00000000000E+00 0. -1.
</event>
<event>
 5    1  0.8863861E-005  0.9118800E+02  0.7818608E-02  0.1130116E+00
         25   -1    0    0    0    0  0.00000000000E+00  0.00000000000E+00  0.99999998245E-14  0.12500000000E+03  0.12500000000E+03 0.  0.
        -11    1    3    3    0    0  0.16900072683E+02 -0.22267749427E+02 -0.87640369089E+01  0.29296304621E+02  0.51100000000E-03 0. -1.
         23    2    1    0    0    0  0.15232907289E+01  0.35394607709E+02 -0.62416790757E+01  0.89026993075E+02  0.81435546715E+02 0.  0.
         11    1    3    3    0    0 -0.15376781954E+02  0.57662357137E+02  0.25223578332E+01  0.59730688454E+02  0.51100000000E-03 0.  1.
         22    1    1    0    0    0 -0.15232907289E+01 -0.35394607709E+02  0.62416790757E+01  0.35973006925E+02  0.00000000000E+00 0.  1.
</event>
<event>
 5    1  0.8863861E-005  0.9118800E+02  0.7818608E-02  0.1130116E+00
         25   -1    0    0    0    0  0.00000000000E+00  0.00000000000E+00  0.99999998245E-14  0.12500000000E+03  0.12500000000E+03 0.  0.
        -11    1    3    3    0    0 -0.13544123879E+02 -0.43022420863E+02 -0.28006469423E+02  0.53091753770E+02  0.51100000000E-03 0. -1.
         23    2    1    0    0    0 -0.12936419864E+02 -0.29540188823E+02  0.81944580566E+01  0.91726544252E+02  0.85478863252E+02 0.  0.
         11    1    3    3    0    0  0.60770401419E+00  0.13482232040E+02  0.36200927480E+02  0.38634790482E+02  0.51100000000E-03 0.  1.
         22    1    1    0    0    0  0.12936419864E+02  0.29540188823E+02 -0.81944580566E+01  0.33273455748E+02  0.00000000000E+00 0. -1.
</event>
<event>
 5    1  0.8863861E-005  0.9118800E+02  0.7818608E-02  0.1130116E+00
         25   -1    0    0    0    0  0.00000000000E+00  0.00000000000E+00  0.99999998245E-14  0.12500000000E+03  0.12500000000E+03 0.  0.
        -11    1    3    3    0    0 -0.35350138763E+02 -0.19440018381E+02 -0.38171095239E+01  0.40523042218E+02  0.51100000000E-03 0. -1.
         23    2    1    0    0    0  0.19789335043E+02 -0.19749339592E+02 -0.82742375276E+01  0.95843230590E+02  0.91300644289E+02 0.  0.
         11    1    3    3    0    0  0.55139473806E+02 -0.30932121122E+00 -0.44571280037E+01  0.55320188372E+02  0.51100000000E-03 0.  1.
         22    1    1    0    0    0 -0.19789335043E+02  0.19749339592E+02  0.82742375276E+01  0.29156769410E+02  0.00000000000E+00 0.  1.
</event>
<event>
 5    1  0.8863861E-005  0.9118800E+02  0.7818608E-02  0.1130116E+00
         25   -1    0    0    0    0  0.00000000000E+00  0.00000000000E+00  0.99999998245E-14  0.12500000000E+03  0.12500000000E+03 0.  0.
        -11    1    3    3    0    0  0.33360869598E+02  0.58396433051E+01  0.82313066598E+01  0.34854030812E+02  0.51100000000E-03 0.  1.
         23    2    1    0    0    0 -0.21813072400E+02 -0.11052391592E+02 -0.14153825666E+02  0.96745862809E+02  0.92528188690E+02 0.  0.
         11    1    3    3    0    0 -0.55173941997E+02 -0.16892034897E+02 -0.22385132326E+02  0.61891831997E+02  0.51100000000E-03 0. -1.
         22    1    1    0    0    0  0.21813072400E+02  0.11052391592E+02  0.14153825666E+02  0.28254137191E+02  0.00000000000E+00 0. -1.
</event>
<event>
 5    1  0.8863861E-005  0.9118800E+02  0.7818608E-02  0.1130116E+00
         25   -1    0    0    0    0  0.00000000000E+00  0.00000000000E+00  0.99999998245E-14  0.12500000000E+03  0.12500000000E+03 0.  0.
        -11    1    3    3    0    0 -0.49451877911E+02  0.73756897919E+01 -0.13647039479E+02  0.51827895150E+02  0.51100000000E-03 0. -1.
         23    2    1    0    0    0 -0.17514171903E+02  0.24512639052E+02  0.77170761715E+01  0.93900659888E+02  0.88601156720E+02 0.  0.
         11    1    3    3    0    0  0.31937706008E+02  0.17136949260E+02  0.21364115650E+02  0.42072764739E+02  0.51100000000E-03 0.  1.
         22    1    1    0    0    0  0.17514171903E+02 -0.24512639052E+02 -0.77170761715E+01  0.31099340112E+02  0.00000000000E+00 0. -1.
</event>
<event>
 5    1  0.8863861E-005  0.9118800E+02  0.7818608E-02  0.1130116E+00
         25   -1    0    0    0    0  0.00000000000E+00  0.00000000000E+00  0.99999998245E-14  0.12500000000E+03  0.12500000000E+03 0.  0.
        -11    1    3    3    0    0  0.14032814962E+02 -0.27042603854E+02 -0.20957322635E+02  0.36978800565E+02  0.51100000000E-03 0.  1.
         23    2    1    0    0    0 -0.54698588583E+01  0.26978515150E+02 -0.11413975063E+02  0.95200025799E+02  0.90415742267E+02 0.  0.
         11    1    3    3    0    0 -0.19502673820E+02  0.54021119004E+02  0.95433475723E+01  0.58221225234E+02  0.51100000000E-03 0. -1.
         22    1    1    0    0    0  0.54698588583E+01 -0.26978515150E+02  0.11413975063E+02  0.29799974201E+02  0.00000000000E+00 0.  1.
</event>
<event>
 5    1  0.8863861E-005  0.9118800E+02  0.7818608E-02  0.1130116E+00
         25   -1    0    0    0    0  0.00000000000E+00  0.00000000000E+00  0.99999998245E-14  0.12500000000E+03  0.12500000000E+03 0.  0.
        -11    1    3    3    0    0  0.14846957208E+01  0.28377183522E+02  0.42929274284E+02  0.51481952730E+02  0.51100000000E-03 0. -1.
         23    2    1    0    0    0 -0.20304867087E+02 -0.29606826845E+01  0.21605251673E+02  0.95203353054E+02  0.90420342089E+02 0.  0.
         11    1    3    3    0    0 -0.21789562808E+02 -0.31337866207E+02 -0.21324022611E+02  0.43721400324E+02  0.51100000000E-03 0.  1.
         22    1    1    0    0    0  0.20304867087E+02  0.29606826845E+01 -0.21605251673E+02  0.29796646946E+02  0.00000000000E+00 0. -1.
</event>
<event>
 5    1  0.8863861E-005  0.9118800E+02  0.7818608E-02  0.1130116E+00
         25   -1    0    0    0    0  0.00000000000E+00  0.00000000000E+00  0.99999998245E-14  0.12500000000E+03  0.12500000000E+03 0.  0.
        -11    1    3    3    0    0  0.43053727011E+01  0.31417246795E+02  0.39954416274E+02  0.51009165944E+02  0.51100000000E-03 0.  1.
         23    2    1    0    0    0  0.15237669111E+02 -0.88603291121E+01  0.22918742331E+02  0.96087014302E+02  0.91633801491E+02 0.  0.
         11    1    3    3    0    0  0.10932296410E+02 -0.40277575907E+02 -0.17035673943E+02  0.45077848359E+02  0.51100000000E-03 0. -1.
         22    1    1    0    0    0 -0.15237669111E+02  0.88603291121E+01 -0.22918742331E+02  0.28912985698E+02  0.00000000000E+00 0.  1.
</event>
<event>
 5    1  0.8863861E-005  0.9118800E+02  0.7818608E-02  0.1130116E+00
         25   -1    0    0    0    0  0.00000000000E+00  0.00000000000E+00  0.99999998245E-14  0.12500000000E+03  0.12500000000E+03 0.  0.
        -11    1    3    3    0    0 -0.46823312948E+02  0.14421842815E+02 -0.32911674603E+02  0.59021949401E+02  0.51100000000E-03 0. -1.
         23    2    1    0    0    0 -0.12639464594E+02  0.61106233925E+01 -0.26823620249E+02  0.94724558026E+02  0.89755999835E+02 0.  0.
         11    1    3    3    0    0  0.34183848354E+02 -0.83112194229E+01  0.60880543540E+01  0.35702608625E+02  0.51100000000E-03 0.  1.
         22    1    1    0    0    0  0.12639464594E+02 -0.61106233925E+01  0.26823620249E+02  0.30275441974E+02  0.00000000000E+00 0. -1.
</event>
<event>
 5    1  0.8863861E-005  0.9118800E+02  0.7818608E-02  0.1130116E+00
         25   -1    0    0    0    0  0.00000000000E+00  0.00000000000E+00  0.99999998245E-14  0.12500000000E+03  0.12500000000E+03 0.  0.
        -11    1    3    3    0    0  0.40424314142E+02 -0.17960288940E+02  0.11166864481E+02  0.45622319266E+02  0.51100000000E-03 0.  1.
         23    2    1    0    0    0  0.29742179471E+02  0.17458720695E+02 -0.11061822541E+02  0.88781660917E+02  0.81058097863E+02 0.  0.
         11    1    3    3    0    0 -0.10682134671E+02  0.35419009636E+02 -0.22228687023E+02  0.43159341651E+02  0.51100000000E-03 0. -1.
         22    1    1    0    0    0 -0.29742179471E+02 -0.17458720695E+02  0.11061822541E+02  0.36218339083E+02  0.00000000000E+00 0. -1.
</event>
<event>
 5    1  0.8863861E-005  0.9118800E+02  0.7818608E-02  0.1130116E+00
         25   -1    0    0    0    0  0.00000000000E+00  0.00000000000E+00  0.99999998245E-14  0.12500000000E+03  0.12500000000E+03 0.  0.
        -11    1    3    3    0    0  0.37302326228E+02  0.42514036498E+01  0.88319904753E+01  0.38568666441E+02  0.51100000000E-03 0.  1.
         23    2    1    0    0    0 -0.17695330075E+02 -0.17802878742E+01  0.23234734329E+02  0.95740010069E+02  0.91159215208E+02 0.  0.
         11    1    3    3    0    0 -0.54997656303E+02 -0.60316915240E+01  0.14402743854E+02  0.57171343629E+02  0.51100000000E-03 0. -1.
         22    1    1    0    0    0  0.17695330075E+02  0.17802878742E+01 -0.23234734329E+02  0.29259989931E+02  0.00000000000E+00 0.  1.
</event>
<event>
 5    1  0.8863861E-005  0.9118800E+02  0.7818608E-02  0.1130116E+00
         25   -1    0    0    0    0  0.00000000000E+00  0.00000000000E+00  0.99999998245E-14  0.12500000000E+03  0.12500000000E+03 0.  0.
        -11    1    3    3    0    0  0.24768726431E+02  0.45923234026E+02  0.29384429705E+02  0.59882200542E+02  0.51100000000E-03 0. -1.
         23    2    1    0    0    0  0.25762225724E+01  0.30635435363E+02  0.11751022786E+02  0.92087185487E+02  0.86004629944E+02 0.  0.
         11    1    3    3    0    0 -0.22192503859E+02 -0.15287798663E+02 -0.17633406919E+02  0.32204984945E+02  0.51100000000E-03 0.  1.
         22    1    1    0    0    0 -0.25762225724E+01 -0.30635435363E+02 -0.11751022786E+02  0.32912814513E+02  0.00000000000E+00 0. -1.
</event>
<event>
 5    1  0.8863861E-005  0.9118800E+02  0.7818608E-02  0.1130116E+00
         25   -1    0    0    0    0  0.00000000000E+00  0.00000000000E+00  0.99999998245E-14  0.12500000000E+03  0.12500000000E+03 0.  0.
        -11    1    3    3    0    0 -0.22164424658E+02  0.13723225350E+02 -0.21305017725E+02  0.33667379092E+02  0.51100000000E-03 0. -1.
         23    2    1    0    0    0  0.11672288153E+02 -0.26190111928E+02  0.99881819906E+01  0.94636731846E+02  0.89633603975E+02 0.  0.
         11    1    3    3    0    0  0.33836712810E+02 -0.39913337278E+02  0.31293199715E+02  0.60969352754E+02  0.51100000000E-03 0.  1.
         22    1    1    0    0    0 -0.11672288153E+02  0.26190111928E+02 -0.99881819906E+01  0.30363268154E+02  0.00000000000E+00 0.  1.
</event>
<event>
 5    1  0.8863861E-005  0.9118800E+02  0.7818608E-02  0.1130116E+00
         25   -1    0    0    0    0  0.00000000000E+00  0.00000000000E+00  0.99999998245E-14  0.12500000000E+03  0.12500000000E+03 0.  0.
        -11    1    3    3    0    0 -0.15720709117E+01 -0.37282845979E+02 -0.58506332015E+01  0.37771840309E+02  0.51100000000E-03 0.  1.
         23    2    1    0    0    0 -0.25104117253E+02  0.15312010829E+02 -0.25058855576E+01  0.95488072901E+02  0.90813095010E+02 0.  0.
         11    1    3    3    0    0 -0.23532046341E+02  0.52594856807E+02  0.33447476439E+01  0.57716232592E+02  0.51100000000E-03 0. -1.
         22    1    1    0    0    0  0.25104117253E+02 -0.15312010829E+02  0.25058855576E+01  0.29511927099E+02  0.00000000000E+00 0. -1.
</event>
<event>
 5    1  0.8863861E-005  0.9118800E+02  0.7818608E-02  0.1130116E+00
         25   -1    0    0    0    0  0.00000000000E+00  0.00000000000E+00  0.99999998245E-14  0.12500000000E+03  0.12500000000E+03 0.  0.
        -11    1    3    3    0    0  0.41959535839E+02  0.27405310516E+02 -0.29638383348E+02  0.58224457576E+02  0.51100000000E-03 0. -1.
         23    2    1    0    0    0  0.22671303334E+02  0.17282707896E+02  0.17589196664E+01  0.96438246107E+02  0.92111679643E+02 0.  0.
         11    1    3    3    0    0 -0.19288232505E+02 -0.10122602620E+02  0.31397303015E+02  0.38213788530E+02  0.51100000000E-03 0.  1.
         22    1    1    0    0    0 -0.22671303334E+02 -0.17282707896E+02 -0.17589196664E+01  0.28561753893E+02  0.00000000000E+00 0. -1.
</event>
<event>
 5    1  0.8863861E-005  0.9118800E+02  0.7818608E-02  0.1130116E+00
         25   -1    0    0    0    0  0.00000000000E+00  0.00000000000E+00  0.99999998245E-14  0.12500000000E+03  0.12500000000E+03 0.  0.
        -11    1    3    3    0    0  0.97745542461E+01 -0.51353096673E+02  0.30920666073E+02  0.60735245445E+02  0.51100000000E-03 0. -1.
         23    2    1    0    0    0  0.24615594004E+01 -0.17552026387E+02  0.22552526449E+02  0.96316392239E+02  0.91946169358E+02 0.  0.
         11    1    3    3    0    0 -0.73129948457E+01  0.33801070286E+02 -0.83681396242E+01  0.35581146793E+02  0.51100000000E-03 0.  1.
         22    1    1    0    0    0 -0.24615594004E+01  0.17552026387E+02 -0.22552526449E+02  0.28683607761E+02  0.00000000000E+00 0. -1.
</event>
<event>
 5    1  0.8863861E-005  0.9118800E+02  0.7818608E-02  0.1130116E+00
         25   -1    0    0    0    0  0.00000000000E+00  0.00000000000E+00  0.99999998245E-14  0.12500000000E+03  0.12500000000E+03 0.  0.
        -11    1    3    3    0    0 -0.41733591051E+02 -0.56102640003E+01  0.44654993631E+02  0.61377814727E+02  0.51100000000E-03 0. -1.
         23    2    1    0    0    0 -0.13539410808E+02 -0.70513210684E+01  0.24751122935E+02  0.95919854533E+02  0.91405490170E+02 0.  0.
         11    1    3    3    0    0  0.28194180242E+02 -0.14410570681E+01 -0.19903870696E+02  0.34542039806E+02  0.51100000000E-03 0.  1.
         22    1    1    0    0    0  0.13539410808E+02  0.70513210684E+01 -0.24751122935E+02  0.29080145467E+02  0.00000000000E+00 0. -1.
</event>
<event>
 5    1  0.8863861E-005  0.9118800E+02  0.7818608E-02  0.1130116E+00
         25   -1    0    0    0    0  0.00000000000E+00  0.00000000000E+00  0.99999998245E-14  0.12500000000E+03  0.12500000000E+03 0.  0.
        -11    1    3    3    0    0  0.22209838296E+02 -0.11583656634E+02  0.81971391453E+01  0.26356234719E+02  0.51100000000E-03 0.  1.
         23    2    1    0    0    0  0.33734437344E+01 -0.26966134578E+02 -0.37834228197E+02  0.78416941278E+02  0.63081180390E+02 0.  0.
         11    1    3    3    0    0 -0.18836394561E+02 -0.15382477944E+02 -0.46031367342E+02  0.52060706559E+02  0.51100000000E-03 0. -1.
         22    1    1    0    0    0 -0.33734437344E+01  0.26966134578E+02  0.37834228197E+02  0.46583058722E+02  0.00000000000E+00 0. -1.
</event>
<event>
 5    1  0.8863861E-005  0.9118800E+02  0.7818608E-02  0.1130116E+00
         25   -1    0    0    0    0  0.00000000000E+00  0.00000000000E+00  0.99999998245E-14  0.12500000000E+03  0.12500000000E+03 0.  0.
        -11    1    3    3    0    0 -0.64794472333E+01  0.43276883345E+02  0.10006798160E+02  0.44888839127E+02  0.51100000000E-03 0.  1.
         23    2    1    0    0    0 -0.49257171174E+01 -0.10749342015E+02 -0.16190331044E+02  0.10495161198E+03  0.10301894484E+03 0.  0.
         11    1    3    3    0    0  0.15537301159E+01 -0.54026225360E+02 -0.26197129204E+02  0.60062772853E+02  0.51100000000E-03 0. -1.
         22    1    1    0    0    0  0.49257171174E+01  0.10749342015E+02  0.16190331044E+02  0.20048388020E+02  0.00000000000E+00 0. -1.
</event>
<event>
 5    1  0.8863861E-005  0.9118800E+02  0.7818608E-02  0.1130116E+00
         25   -1    0    0    0    0  0.00000000000E+00  0.00000000000E+00  0.99999998245E-14  0.12500000000E+03  0.12500000000E+03 0.  0.
        -11    1    3    3    0    0 -0.29826329783E+02 -0.60296188989E+01 -0.25287826920E+02  0.39565647259E+02  0.51100000000E-03 0.  1.
         23    2    1    0    0    0  0.22639781211E+02  0.11050637331E+02 -0.14959913150E+02  0.95700251193E+02  0.91104680441E+02 0.  0.
         11    1    3    3    0    0  0.52466110994E+02  0.17080256230E+02  0.10327913770E+02  0.56134603934E+02  0.51100000000E-03 0. -1.
         22    1    1    0    0    0 -0.22639781211E+02 -0.11050637331E+02  0.14959913150E+02  0.29299748807E+02  0.00000000000E+00 0. -1.
</event>
<event>
 5    1  0.8863861E-005  0.9118800E+02  0.7818608E-02  0.1130116E+00
         25   -1    0    0    0    0  0.00000000000E+00  0.00000000000E+00  0.99999998245E-14  0.12500000000E+03  0.12500000000E+03 0.  0.
        -11    1    3    3    0    0 -0.31481711544E+02  0.24970935412E+02  0.46742068535E+02  0.61639814636E+02  0.51100000000E-03 0.  1.
         23    2    1    0    0    0 -0.20755858428E+02  0.13178213116E+02  0.17920386641E+02  0.94576140656E+02  0.89549065679E+02 0.  0.
         11    1    3    3    0    0  0.10725853117E+02 -0.11792722296E+02 -0.28821681894E+02  0.32936326020E+02  0.51100000000E-03 0. -1.
         22    1    1    0    0    0  0.20755858428E+02 -0.13178213116E+02 -0.17920386641E+02  0.30423859344E+02  0.00000000000E+00 0.  1.
</event>
<event>
 5    1  0.8863861E-005  0.9118800E+02  0.7818608E-02  0.1130116E+00
         25   -1    0    0    0    0  0.00000000000E+00  0.00000000000E+00  0.99999998245E-14  0.12500000000E+03  0.12500000000E+03 0.  0.
        -11    1    3    3    0    0 -0.33846919374E+02  0.48082636156E+02  0.21160279237E+02  0.62492489697E+02  0.51100000000E-03 0.  1.
         23    2    1    0    0    0 -0.15499267909E+02  0.22533388059E+02  0.10496172583E+02  0.95705793713E+02  0.91112284727E+02 0.  0.
         11    1    3    3    0    0  0.18347651466E+02 -0.25549248097E+02 -0.10664106654E+02  0.33213304016E+02  0.51100000000E-03 0. -1.
         22    1    1    0    0    0  0.15499267909E+02 -0.22533388059E+02 -0.10496172583E+02  0.29294206287E+02  0.00000000000E+00 0.  1.
</event>
<event>
 5    1  0.8863861E-005  0.9118800E+02  0.7818608E-02  0.1130116E+00
         25   -1    0    0    0    0  0.00000000000E+00  0.00000000000E+00  0.99999998245E-14  0.12500000000E+03  0.12500000000E+03 0.  0.
        -11    1    3    3    0    0  0.85066303553E+01 -0.48041349142E+02 -0.22037966379E-01  0.48788671568E+02  0.51100000000E-03 0. -1.
         23    2    1    0    0    0  0.18636017404E+02 -0.83139909039E+01 -0.21739099268E+02  0.95183695292E+02  0.90393162480E+02 0.  0.
         11    1    3    3    0    0  0.10129387049E+02  0.39727358238E+02 -0.21717061302E+02  0.46395023725E+02  0.51100000000E-03 0.  1.
         22    1    1    0    0    0 -0.18636017404E+02  0.83139909039E+01  0.21739099268E+02  0.29816304708E+02  0.00000000000E+00 0.  1.
</event>
<event>
 5    1  0.8863861E-005  0.9118800E+02  0.7818608E-02  0.1130116E+00
         25   -1    0    0    0    0  0.00000000000E+00  0.00000000000E+00  0.99999998245E-14  0.12500000000E+03  0.12500000000E+03 0.  0.
        -11    1    3    3    0    0 -0.10465908618E+02 -0.27865394653E+02 -0.54632643740E+02  0.62215281279E+02  0.51100000000E-03 0.  1.
         23    2    1    0    0    0 -0.81398574566E+01 -0.99265199940E+01 -0.23555025905E+02  0.98174036383E+02  0.94437858382E+02 0.  0.
         11    1    3    3    0    0  0.23260511612E+01  0.17938874659E+02  0.31077617836E+02  0.35958755104E+02  0.51100000000E-03 0. -1.
         22    1    1    0    0    0  0.81398574566E+01  0.99265199940E+01  0.23555025905E+02  0.26825963617E+02  0.00000000000E+00 0.  1.
</event>
<event>
 5    1  0.8863861E-005  0.9118800E+02  0.7818608E-02  0.1130116E+00
         25   -1    0    0    0    0  0.00000000000E+00  0.00000000000E+00  0.99999998245E-14  0.12500000000E+03  0.12500000000E+03 0.  0.
        -11    1    3    3    0    0  0.35741122614E+02 -0.14849075000E+01  0.20077434955E+02  0.41021167593E+02  0.51100000000E-03 0. -1.
         23    2    1    0    0    0 -0.63697177722E+01  0.28218561070E+02  0.74174471122E+00  0.96061951023E+02  0.91599605653E+02 0.  0.
         11    1    3    3    0    0 -0.42110840387E+02  0.29703468570E+02 -0.19335690244E+02  0.55040783430E+02  0.51100000000E-03 0.  1.
         22    1    1    0    0    0  0.63697177722E+01 -0.28218561070E+02 -0.74174471122E+00  0.28938048977E+02  0.00000000000E+00 0.  1.
</event>
<event>
 5    1  0.8863861E-005  0.9118800E+02  0.7818608E-02  0.1130116E+00
         25   -1    0    0    0    0  0.00000000000E+00  0.00000000000E+00  0.99999998245E-14  0.12500000000E+03  0.12500000000E+03 0.  0.
        -11    1    3    3    0    0 -0.29587934558E+02 -0.32476172079E+02 -0.10541578343E+02  0.45180443762E+02  0.51100000000E-03 0.  1.
         23    2    1    0    0    0 -0.14643893367E+02 -0.70538030019E+00  0.25556444246E+02  0.95536921125E+02  0.90880307444E+02 0.  0.
         11    1    3    3    0    0  0.14944041191E+02  0.31770791778E+02  0.36098022589E+02  0.50356477363E+02  0.51100000000E-03 0. -1.
         22    1    1    0    0    0  0.14643893367E+02  0.70538030019E+00 -0.25556444246E+02  0.29463078875E+02  0.00000000000E+00 0. -1.
</event>
<event>
 5    1  0.8863861E-005  0.9118800E+02  0.7818608E-02  0.1130116E+00
         25   -1    0    0    0    0  0.00000000000E+00  0.00000000000E+00  0.99999998245E-14  0.12500000000E+03  0.12500000000E+03 0.  0.
        -11    1    3    3    0    0 -0.11170845886E+02 -0.34969329578E+02  0.21652057311E+02  0.42619870894E+02  0.51100000000E-03 0.  1.
         23    2    1    0    0    0  0.22759726502E+02 -0.14788480119E+02 -0.12775627833E+02  0.95001317342E+02  0.90140608693E+02 0.  0.
         11    1    3    3    0    0  0.33930572387E+02  0.20180849459E+02 -0.34427685144E+02  0.52381446449E+02  0.51100000000E-03 0. -1.
         22    1    1    0    0    0 -0.22759726502E+02  0.14788480119E+02  0.12775627833E+02  0.29998682658E+02  0.00000000000E+00 0. -1.
</event>
<event>
 5    1  0.8863861E-005  0.9118800E+02  0.7818608E-02  0.1130116E+00
         25   -1    0    0    0    0  0.00000000000E+00  0.00000000000E+00  0.99999998245E-14  0.12500000000E+03  0.12500000000E+03 0.  0.
        -11    1    3    3    0    0 -0.43794223232E+02 -0.14115640806E+02 -0.39247523014E+01  0.46179963022E+02  0.51100000000E-03 0.  1.
         23    2    1    0    0    0 -0.13485318951E+02  0.12931130339E+02  0.23339624624E+02  0.95103410953E+02  0.90282073183E+02 0.  0.
         11    1    3    3    0    0  0.30308904281E+02  0.27046771144E+02  0.27264376926E+02  0.48923447931E+02  0.51100000000E-03 0. -1.
         22    1    1    0    0    0  0.13485318951E+02 -0.12931130339E+02 -0.23339624624E+02  0.29896589047E+02  0.00000000000E+00 0. -1.
</event>
<event>
 5    1  0.8863861E-005  0.9118800E+02  0.7818608E-02  0.1130116E+00
         25   -1    0    0    0    0  0.00000000000E+00  0.00000000000E+00  0.99999998245E-14  0.12500000000E+03  0.12500000000E+03 0.  0.
        -11    1    3    3    0    0 -0.41189059010E+02 -0.23410491634E+02 -0.20226325247E+02  0.51514016869E+02  0.51100000000E-03 0.  1.
         23    2    1    0    0    0 -0.95046843761E+01 -0.27153435695E+02  0.90764271734E+01  0.94833302711E+02  0.89907317153E+02 0.  0.
         11    1    3    3    0    0  0.31684374634E+02 -0.37429440606E+01  0.29302752420E+02  0.43319285842E+02  0.51100000000E-03 0. -1.
         22    1    1    0    0    0  0.95046843761E+01  0.27153435695E+02 -0.90764271734E+01  0.30166697289E+02  0.00000000000E+00 0.  1.
</event>
<event>
 5    1  0.8863861E-005  0.9118800E+02  0.7818608E-02  0.1130116E+00
         25   -1    0    0    0    0  0.00000000000E+00  0.00000000000E+00  0.99999998245E-14  0.12500000000E+03  0.12500000000E+03 0.  0.
        -11    1    3    3    0    0 -0.41246300580E+02 -0.84350576111E+01 -0.64223974388E+01  0.42587024991E+02  0.51100000000E-03 0.  1.
         23    2    1    0    0    0  0.73130011895E+00  0.11351000744E+02 -0.28746941920E+02  0.94084523495E+02  0.88860175972E+02 0.  0.
         11    1    3    3    0    0  0.41977600699E+02  0.19786058355E+02 -0.22324544481E+02  0.51497498505E+02  0.51100000000E-03 0. -1.
         22    1    1    0    0    0 -0.73130011895E+00 -0.11351000744E+02  0.28746941920E+02  0.30915476505E+02  0.00000000000E+00 0. -1.
</event>
<event>
 5    1  0.8863861E-005  0.9118800E+02  0.7818608E-02  0.1130116E+00
         25   -1    0    0    0    0  0.00000000000E+00  0.00000000000E+00  0.99999998245E-14  0.12500000000E+03  0.12500000000E+03 0.  0.
        -11    1    3    3    0    0  0.82696356186E+01  0.16536018599E+02  0.43594195658E+02  0.47352726212E+02  0.51100000000E-03 0.  1.
         23    2    1    0    0    0 -0.23956103872E+01  0.28363061291E+02 -0.27945916441E+01  0.96399092018E+02  0.92058530319E+02 0.  0.
         11    1    3    3    0    0 -0.10665246006E+02  0.11827042692E+02 -0.46388787302E+02  0.49046365806E+02  0.51100000000E-03 0. -1.
         22    1    1    0    0    0  0.23956103872E+01 -0.28363061291E+02  0.27945916441E+01  0.28600907982E+02  0.00000000000E+00 0.  1.
</event>
<event>
 5    1  0.8863861E-005  0.9118800E+02  0.7818608E-02  0.1130116E+00
         25   -1    0    0    0    0  0.00000000000E+00  0.00000000000E+00  0.99999998245E-14  0.12500000000E+03  0.12500000000E+03 0.  0.
        -11    1    3    3    0    0  0.61871902255E+01  0.27039181411E+02  0.29069712366E+02  0.40180179587E+02  0.51100000000E-03 0. -1.
         23    2    1    0    0    0  0.26744424881E+02  0.13071696704E+02 -0.15669939500E+02  0.91359540418E+02  0.84940479775E+02 0.  0.
         11    1    3    3    0    0  0.20557234656E+02 -0.13967484707E+02 -0.44739651866E+02  0.51179360831E+02  0.51100000000E-03 0.  1.
         22    1    1    0    0    0 -0.26744424881E+02 -0.13071696704E+02  0.15669939500E+02  0.33640459582E+02  0.00000000000E+00 0.  1.
</event>
<event>
 5    1  0.8863861E-005  0.9118800E+02  0.7818608E-02  0.1130116E+00
         25   -1    0    0    0    0  0.00000000000E+00  0.00000000000E+00  0.99999998245E-14  0.12500000000E+03  0.12500000000E+03 0.  0.
        -11    1    3    3    0    0  0.21739534765E+02  0.25036154101E+02  0.78633714188E+01  0.34077103666E+02  0.51100000000E-03 0.  1.
         23    2    1    0    0    0 -0.10532223351E+02 -0.27066449143E+02 -0.62688657856E+00  0.95949812656E+02  0.91446449707E+02 0.  0.
         11    1    3    3    0    0 -0.32271758116E+02 -0.52102603244E+02 -0.84902579974E+01  0.61872708990E+02  0.51100000000E-03 0. -1.
         22    1    1    0    0    0  0.10532223351E+02  0.27066449143E+02  0.62688657856E+00  0.29050187344E+02  0.00000000000E+00 0. -1.
</event>
<event>
 5    1  0.8863861E-005  0.9118800E+02  0.7818608E-02  0.1130116E+00
         25   -1    0    0    0    0  0.00000000000E+00  0.00000000000E+00  0.99999998245E-14  0.12500000000E+03  0.12500000000E+03 0.  0.
        -11    1    3    3    0    0  0.41240327582E+01 -0.36798454827E+02  0.46291679758E+02  0.59279452924E+02  0.51100000000E-03 0. -1.
         23    2    1    0    0    0  0.15671977268E+02 -0.16091042152E+02  0.17837981257E+02  0.96316797872E+02  0.91946720811E+02 0.  0.
         11    1    3    3    0    0  0.11547944510E+02  0.20707412675E+02 -0.28453698502E+02  0.37037344948E+02  0.51100000000E-03 0.  1.
         22    1    1    0    0    0 -0.15671977268E+02  0.16091042152E+02 -0.17837981257E+02  0.28683202128E+02  0.00000000000E+00 0. -1.
</event>
<event>
 5    1  0.8863861E-005  0.9118800E+02  0.7818608E-02  0.1130116E+00
         25   -1    0    0    0    0  0.00000000000E+00  0.00000000000E+00  0.99999998245E-14  0.12500000000E+03  0.12500000000E+03 0.  0.
        -11    1    3    3    0    0 -0.72643631273E+01 -0.41521136655E+02 -0.34786528567E+02  0.54652340579E+02  0.51100000000E-03 0.  1.
         23    2    1    0    0    0  0.94556273780E+01 -0.23103201537E+02  0.29636868771E+01  0.99861379308E+02  0.96645459423E+02 0.  0.
         11    1    3    3    0    0  0.16719990505E+02  0.18417935118E+02  0.37750215444E+02  0.45209038729E+02  0.51100000000E-03 0. -1.
         22    1    1    0    0    0 -0.94556273780E+01  0.23103201537E+02 -0.29636868771E+01  0.25138620692E+02  0.00000000000E+00 0.  1.
</event>
<event>
 5    1  0.8863861E-005  0.9118800E+02  0.7818608E-02  0.1130116E+00
         25   -1    0    0    0    0  0.00000000000E+00  0.00000000000E+00  0.99999998245E-14  0.12500000000E+03  0.12500000000E+03 0.  0.
        -11    1    3    3    0    0  0.26009460530E+02  0.25109880116E+01 -0.18564898398E+02  0.32053900709E+02  0.51100000000E-03 0. -1.
         23    2    1    0    0    0 -0.15513535341E+02 -0.67129048157E+01  0.26210107452E+02  0.93811819507E+02  0.88475730439E+02 0.  0.
         11    1    3    3    0    0 -0.41522995871E+02 -0.92238928273E+01  0.44775005850E+02  0.61757918797E+02  0.51100000000E-03 0.  1.
         22    1    1    0    0    0  0.15513535341E+02  0.67129048157E+01 -0.26210107452E+02  0.31188180493E+02  0.00000000000E+00 0.  1.
</event>
<event>
 5    1  0.8863861E-005  0.9118800E+02  0.7818608E-02  0.1130116E+00
         25   -1    0    0    0    0  0.00000000000E+00  0.00000000000E+00  0.99999998245E-14  0.12500000000E+03  0.12500000000E+03 0.  0.
        -11    1    3    3    0    0  0.59007918900E+00 -0.26470691321E+02  0.14854629775E+02  0.30359606692E+02  0.51100000000E-03 0. -1.
         23    2    1    0    0    0  0.35657184073E+02  0.78541384071E+01  0.25363955983E+02  0.80542688686E+02  0.67161537888E+02 0.  0.
         11    1    3    3    0    0  0.35067104884E+02  0.34324829728E+02  0.10509326208E+02  0.50183081994E+02  0.51100000000E-03 0.  1.
         22    1    1    0    0    0 -0.35657184073E+02 -0.78541384071E+01 -0.25363955983E+02  0.44457311314E+02  0.00000000000E+00 0.  1.
</event>
<event>
 5    1  0.8863861E-005  0.9118800E+02  0.7818608E-02  0.1130116E+00
         25   -1    0    0    0    0  0.00000000000E+00  0.00000000000E+00  0.99999998245E-14  0.12500000000E+03  0.12500000000E+03 0.  0.
        -11    1    3    3    0    0 -0.16005801430E+02  0.26932094912E+02 -0.21206134981E+02  0.37831515657E+02  0.51100000000E-03 0.  1.
         23    2    1    0    0    0 -0.70564714047E+01 -0.27762320597E+02 -0.28524457814E+01  0.96213255124E+02  0.91805848295E+02 0.  0.
         11    1    3    3    0    0  0.89493300252E+01 -0.54694415509E+02  0.18353689200E+02  0.58381739468E+02  0.51100000000E-03 0. -1.
         22    1    1    0    0    0  0.70564714047E+01  0.27762320597E+02  0.28524457814E+01  0.28786744876E+02  0.00000000000E+00 0. -1.
</event>
<event>
 5    1  0.8863861E-005  0.9118800E+02  0.7818608E-02  0.1130116E+00
         25   -1    0    0    0    0  0.00000000000E+00  0.00000000000E+00  0.99999998245E-14  0.12500000000E+03  0.12500000000E+03 0.  0.
        -11    1    3    3    0    0 -0.18431037083E+02  0.36788316251E+02 -0.18582377764E+02  0.45148511650E+02  0.51100000000E-03 0.  1.
         23    2    1    0    0    0  0.23678737346E+02  0.70558607879E+01 -0.13227381420E+02  0.96974451067E+02  0.92836484028E+02 0.  0.
         11    1    3    3    0    0  0.42109774429E+02 -0.29732455464E+02  0.53549963446E+01  0.51825939417E+02  0.51100000000E-03 0. -1.
         22    1    1    0    0    0 -0.23678737346E+02 -0.70558607879E+01  0.13227381420E+02  0.28025548933E+02  0.00000000000E+00 0. -1.
</event>
<event>
 5    1  0.8863861E-005  0.9118800E+02  0.7818608E-02  0.1130116E+00
         25   -1    0    0    0    0  0.00000000000E+00  0.00000000000E+00  0.99999998245E-14  0.12500000000E+03  0.12500000000E+03 0.  0.
        -11    1    3    3    0    0  0.35771084630E+02 -0.45621622957E+02  0.42152406334E+00  0.57974827811E+02  0.51100000000E-03 0.  1.
         23    2    1    0    0    0  0.23434523875E+02 -0.11603381954E+02  0.12355703109E+02  0.96078057096E+02  0.91621581923E+02 0.  0.
         11    1    3    3    0    0 -0.12336560756E+02  0.34018241003E+02  0.11934179045E+02  0.38103229286E+02  0.51100000000E-03 0. -1.
         22    1    1    0    0    0 -0.23434523875E+02  0.11603381954E+02 -0.12355703109E+02  0.28921942904E+02  0.00000000000E+00 0.  1.
</event>
<event>
 5    1  0.8863861E-005  0.9118800E+02  0.7818608E-02  0.1130116E+00
         25   -1    0    0    0    0  0.00000000000E+00  0.00000000000E+00  0.99999998245E-14  0.12500000000E+03  0.12500000000E+03 0.  0.
        -11    1    3    3    0    0 -0.16210465418E+02 -0.31835746085E+02  0.10332370260E+02  0.37189404315E+02  0.51100000000E-03 0.  1.
         23    2    1    0    0    0 -0.12067799760E+02  0.21397124610E+02 -0.14925122964E+02  0.96255817491E+02  0.91863781616E+02 0.  0.
         11    1    3    3    0    0  0.41426656584E+01  0.53232870695E+02 -0.25257493225E+02  0.59066413176E+02  0.51100000000E-03 0. -1.
         22    1    1    0    0    0  0.12067799760E+02 -0.21397124610E+02  0.14925122964E+02  0.28744182509E+02  0.00000000000E+00 0. -1.
</event>
<event>
 5    1  0.8863861E-005  0.9118800E+02  0.7818608E-02  0.1130116E+00
         25   -1    0    0    0    0  0.00000000000E+00  0.00000000000E+00  0.99999998245E-14  0.12500000000E+03  0.12500000000E+03 0.  0.
        -11    1    3    3    0    0  0.29256868934E+02 -0.26877909400E+02 -0.12276573014E+02  0.41582455901E+02  0.51100000000E-03 0.  1.
         23    2    1    0    0    0 -0.23805424967E+02 -0.13912339965E+02 -0.75634733514E+01  0.96408784736E+02  0.92071690458E+02 0.  0.
         11    1    3    3    0    0 -0.53062293901E+02  0.12965569435E+02  0.47130996627E+01  0.54826328835E+02  0.51100000000E-03 0. -1.
         22    1    1    0    0    0  0.23805424967E+02  0.13912339965E+02  0.75634733514E+01  0.28591215264E+02  0.00000000000E+00 0. -1.
</event>
<event>
 5    1  0.8863861E-005  0.9118800E+02  0.7818608E-02  0.1130116E+00
         25   -1    0    0    0    0  0.00000000000E+00  0.00000000000E+00  0.99999998245E-14  0.12500000000E+03  0.12500000000E+03 0.  0.
        -11    1    3    3    0    0 -0.55037880297E+02  0.30345747239E+01 -0.78553023885E+00  0.55127071111E+02  0.51100000000E-03 0. -1.
         23    2    1    0    0    0 -0.33275152209E+02 -0.11352076050E+02  0.16232651736E+02  0.86275274467E+02  0.77096164735E+02 0.  0.
         11    1    3    3    0    0  0.21762728087E+02 -0.14386650774E+02  0.17018181975E+02  0.31148203356E+02  0.51100000000E-03 0.  1.
         22    1    1    0    0    0  0.33275152209E+02  0.11352076050E+02 -0.16232651736E+02  0.38724725533E+02  0.00000000000E+00 0. -1.
</event>
<event>
 5    1  0.8863861E-005  0.9118800E+02  0.7818608E-02  0.1130116E+00
         25   -1    0    0    0    0  0.00000000000E+00  0.00000000000E+00  0.99999998245E-14  0.12500000000E+03  0.12500000000E+03 0.  0.
        -11    1    3    3    0    0 -0.28556011784E+01  0.33817915177E+02 -0.20602620079E+02  0.39702314786E+02  0.51100000000E-03 0. -1.
         23    2    1    0    0    0  0.17220261385E+02  0.50674186462E+01  0.23107319282E+02  0.95739713974E+02  0.91158809193E+02 0.  0.
         11    1    3    3    0    0  0.20075862564E+02 -0.28750496531E+02  0.43709939362E+02  0.56037399187E+02  0.51100000000E-03 0.  1.
         22    1    1    0    0    0 -0.17220261385E+02 -0.50674186462E+01 -0.23107319282E+02  0.29260286026E+02  0.00000000000E+00 0.  1.
</event>
<event>
 5    1  0.8863861E-005  0.9118800E+02  0.7818608E-02  0.1130116E+00
         25   -1    0    0    0    0  0.00000000000E+00  0.00000000000E+00  0.99999998245E-14  0.12500000000E+03  0.12500000000E+03 0.  0.
        -11    1    3    3    0    0  0.29298754744E+02 -0.18752944286E+02  0.16115278905E+02  0.38337868529E+02  0.51100000000E-03 0. -1.
         23    2    1    0    0    0  0.18785323604E+02  0.19536315564E+02 -0.19447585407E+02  0.91641873750E+02  0.85354955554E+02 0.  0.
         11    1    3    3    0    0 -0.10513431140E+02  0.38289259850E+02 -0.35562864312E+02  0.53304005221E+02  0.51100000000E-03 0.  1.
         22    1    1    0    0    0 -0.18785323604E+02 -0.19536315564E+02  0.19447585407E+02  0.33358126250E+02  0.00000000000E+00 0.  1.
</event>
<event>
 5    1  0.8863861E-005  0.9118800E+02  0.7818608E-02  0.1130116E+00
         25   -1    0    0    0    0  0.00000000000E+00  0.00000000000E+00  0.99999998245E-14  0.12500000000E+03  0.12500000000E+03 0.  0.
        -11    1    3    3    0    0 -0.18451250492E+02 -0.45961982215E+02  0.35894299142E+02  0.61166601712E+02  0.51100000000E-03 0. -1.
         23    2    1    0    0    0 -0.16478234718E+02 -0.16985206671E+02  0.17831101320E+02  0.95369312540E+02  0.90649479508E+02 0.  0.
         11    1    3    3    0    0  0.19730157741E+01  0.28976775544E+02 -0.18063197822E+02  0.34202710828E+02  0.51100000000E-03 0.  1.
         22    1    1    0    0    0  0.16478234718E+02  0.16985206671E+02 -0.17831101320E+02  0.29630687460E+02  0.00000000000E+00 0. -1.
</event>
<event>
 5    1  0.8863861E-005  0.9118800E+02  0.7818608E-02  0.1130116E+00
         25   -1    0    0    0    0  0.00000000000E+00  0.00000000000E+00  0.99999998245E-14  0.12500000000E+03  0.12500000000E+03 0.  0.
        -11    1    3    3    0    0  0.25616240110E+02  0.19127344974E+02  0.27909257123E+02  0.42437880680E+02  0.51100000000E-03 0.  1.
         23    2    1    0    0    0 -0.27154903455E+01  0.96361857298E+00  0.44810004769E+02  0.80097450228E+02  0.66327690727E+02 0.  0.
         11    1    3    3    0    0 -0.28331730455E+02 -0.18163726401E+02  0.16900747646E+02  0.37659569549E+02  0.51100000000E-03 0. -1.
         22    1    1    0    0    0  0.27154903455E+01 -0.96361857298E+00 -0.44810004769E+02  0.44902549772E+02  0.00000000000E+00 0. -1.
</event>
<event>
 5    1  0.8863861E-005  0.9118800E+02  0.7818608E-02  0.1130116E+00
         25   -1    0    0    0    0  0.00000000000E+00  0.00000000000E+00  0.99999998245E-14  0.12500000000E+03  0.12500000000E+03 0.  0.
        -11    1    3    3    0    0 -0.19860993129E+02 -0.17202098924E+02 -0.30960322450E+02  0.40606807582E+02  0.51100000000E-03 0.  1.
         23    2    1    0    0    0  0.27926767561E+02 -0.31992041883E+01 -0.62219368421E+01  0.96210214452E+02  0.91801708115E+02 0.  0.
         11    1    3    3    0    0  0.47787760691E+02  0.14002894736E+02  0.24738385608E+02  0.55603406870E+02  0.51100000000E-03 0. -1.
         22    1    1    0    0    0 -0.27926767561E+02  0.31992041883E+01  0.62219368421E+01  0.28789785548E+02  0.00000000000E+00 0. -1.
</event>
<event>
 5    1  0.8863861E-005  0.9118800E+02  0.7818608E-02  0.1130116E+00
         25   -1    0    0    0    0  0.00000000000E+00  0.00000000000E+00  0.99999998245E-14  0.12500000000E+03  0.12500000000E+03 0.  0.
        -11    1    3    3    0    0 -0.10542482675E+02 -0.21143780841E+02 -0.25614784775E+02  0.34847103302E+02  0.51100000000E-03 0.  1.
         23    2    1    0    0    0  0.15706693091E+02 -0.28299985290E+01  0.25359342431E+02  0.95036599858E+02  0.90189522476E+02 0.  0.
         11    1    3    3    0    0  0.26249175766E+02  0.18313782312E+02  0.50974127206E+02  0.60189496556E+02  0.51100000000E-03 0. -1.
         22    1    1    0    0    0 -0.15706693091E+02  0.28299985290E+01 -0.25359342431E+02  0.29963400142E+02  0.00000000000E+00 0. -1.
</event>
<event>
 5    1  0.8863861E-005  0.9118800E+02  0.7818608E-02  0.1130116E+00
         25   -1    0    0    0    0  0.00000000000E+00  0.00000000000E+00  0.99999998245E-14  0.12500000000E+03  0.12500000000E+03 0.  0.
        -11    1    3    3    0    0  0.27253025893E+02  0.15641258287E+02 -0.31696052484E+02  0.44632007847E+02  0.51100000000E-03 0.  1.
         23    2    1    0    0    0 -0.75482248127E+01 -0.19189947586E+02 -0.22058348524E+02  0.94803965065E+02  0.89866519162E+02 0.  0.
         11    1    3    3    0    0 -0.34801250706E+02 -0.34831205873E+02  0.96377039591E+01  0.50171957218E+02  0.51100000000E-03 0. -1.
         22    1    1    0    0    0  0.75482248127E+01  0.19189947586E+02  0.22058348524E+02  0.30196034935E+02  0.00000000000E+00 0. -1.
</event>
<event>
 5    1  0.8863861E-005  0.9118800E+02  0.7818608E-02  0.1130116E+00
         25   -1    0    0    0    0  0.00000000000E+00  0.00000000000E+00  0.99999998245E-14  0.12500000000E+03  0.12500000000E+03 0.  0.
        -11    1    3    3    0    0  0.16438214787E+02 -0.13979932132E+02 -0.26769393592E+02  0.34383918354E+02  0.51100000000E-03 0. -1.
         23    2    1    0    0    0 -0.76406150457E+01  0.89145228408E+01  0.25846189961E+02  0.96612093222E+02  0.92347297229E+02 0.  0.
         11    1    3    3    0    0 -0.24078829833E+02  0.22894454973E+02  0.52615583553E+02  0.62228174868E+02  0.51100000000E-03 0.  1.
         22    1    1    0    0    0  0.76406150457E+01 -0.89145228408E+01 -0.25846189961E+02  0.28387906778E+02  0.00000000000E+00 0.  1.
</event>
<event>
 5    1  0.8863861E-005  0.9118800E+02  0.7818608E-02  0.1130116E+00
         25   -1    0    0    0    0  0.00000000000E+00  0.00000000000E+00  0.99999998245E-14  0.12500000000E+03  0.12500000000E+03 0.  0.
        -11    1    3    3    0    0  0.13932387106E+02  0.35217597201E+02  0.31881704072E+02  0.49505894779E+02  0.51100000000E-03 0. -1.
         23    2    1    0    0    0  0.29375746047E+02  0.28394026905E+01  0.34360313767E+01  0.95287999477E+02  0.90537284415E+02 0.  0.
         11    1    3    3    0    0  0.15443358942E+02 -0.32378194511E+02 -0.28445672695E+02  0.45782104697E+02  0.51100000000E-03 0.  1.
         22    1    1    0    0    0 -0.29375746047E+02 -0.28394026905E+01 -0.34360313767E+01  0.29712000523E+02  0.00000000000E+00 0. -1.
</event>
<event>
 5    1  0.8863861E-005  0.9118800E+02  0.7818608E-02  0.1130116E+00
         25   -1    0    0    0    0  0.00000000000E+00  0.00000000000E+00  0.99999998245E-14  0.12500000000E+03  0.12500000000E+03 0.  0.
        -11    1    3    3    0    0  0.14050482108E+01 -0.57012728576E+02  0.82425241471E+00  0.57035995410E+02  0.51100000000E-03 0.  1.
         23    2    1    0    0    0  0.13652050837E+02 -0.23064737805E+02  0.13115017173E+02  0.95161027204E+02  0.90361810523E+02 0.  0.
         11    1    3    3    0    0  0.12247002626E+02  0.33947990771E+02  0.12290764759E+02  0.38125031794E+02  0.51100000000E-03 0. -1.
         22    1    1    0    0    0 -0.13652050837E+02  0.23064737805E+02 -0.13115017173E+02  0.29838972796E+02  0.00000000000E+00 0.  1.
</event>
<event>
 5    1  0.8863861E-005  0.9118800E+02  0.7818608E-02  0.1130116E+00
         25   -1    0    0    0    0  0.00000000000E+00  0.00000000000E+00  0.99999998245E-14  0.12500000000E+03  0.12500000000E+03 0.  0.
        -11    1    3    3    0    0 -0.19509483723E+02  0.20424811043E+02 -0.23767048419E+02  0.36914298749E+02  0.51100000000E-03 0. -1.
         23    2    1    0    0    0  0.16249073887E+02 -0.54605309018E+01  0.19713216225E+02  0.98876051336E+02  0.95362533701E+02 0.  0.
         11    1    3    3    0    0  0.35758557610E+02 -0.25885341945E+02  0.43480264644E+02  0.61961752587E+02  0.51100000000E-03 0.  1.
         22    1    1    0    0    0 -0.16249073887E+02  0.54605309018E+01 -0.19713216225E+02  0.26123948664E+02  0.00000000000E+00 0.  1.
</event>
<event>
 5    1  0.8863861E-005  0.9118800E+02  0.7818608E-02  0.1130116E+00
         25   -1    0    0    0    0  0.00000000000E+00  0.00000000000E+00  0.99999998245E-14  0.12500000000E+03  0.12500000000E+03 0.  0.
        -11    1    3    3    0    0 -0.18472229522E+01  0.26071886374E+02  0.41188227612E+02  0.48781406148E+02  0.51100000000E-03 0.  1.
         23    2    1    0    0    0  0.25703705150E+02 -0.49175687236E+00  0.19137425217E+02  0.92950611126E+02  0.87250517371E+02 0.  0.
         11    1    3    3    0    0  0.27550928102E+02 -0.26563643247E+02 -0.22050802395E+02  0.44169204978E+02  0.51100000000E-03 0. -1.
         22    1    1    0    0    0 -0.25703705150E+02  0.49175687236E+00 -0.19137425217E+02  0.32049388874E+02  0.00000000000E+00 0.  1.
</event>
<event>
 5    1  0.8863861E-005  0.9118800E+02  0.7818608E-02  0.1130116E+00
         25   -1    0    0    0    0  0.00000000000E+00  0.00000000000E+00  0.99999998245E-14  0.12500000000E+03  0.12500000000E+03 0.  0.
        -11    1    3    3    0    0 -0.31561047174E+02 -0.23923054889E+02 -0.32991777704E+02  0.51544831460E+02  0.51100000000E-03 0.  1.
         23    2    1    0    0    0 -0.97873486794E+01 -0.24754328012E+02  0.73411644593E+01  0.97387291963E+02  0.93390700772E+02 0.  0.
         11    1    3    3    0    0  0.21773698495E+02 -0.83127312348E+00  0.40332942163E+02  0.45842460503E+02  0.51100000000E-03 0. -1.
         22    1    1    0    0    0  0.97873486794E+01  0.24754328012E+02 -0.73411644593E+01  0.27612708037E+02  0.00000000000E+00 0.  1.
</event>
<event>
 5    1  0.8863861E-005  0.9118800E+02  0.7818608E-02  0.1130116E+00
         25   -1    0    0    0    0  0.00000000000E+00  0.00000000000E+00  0.99999998245E-14  0.12500000000E+03  0.12500000000E+03 0.  0.
        -11    1    3    3    0    0  0.22751913411E+02 -0.29150612721E+02  0.27741252729E+02  0.46227533885E+02  0.51100000000E-03 0. -1.
         23    2    1    0    0    0 -0.88305868098E+01 -0.34682465901E+02 -0.87016568380E+00  0.89200420496E+02  0.81701316538E+02 0.  0.
         11    1    3    3    0    0 -0.31582500221E+02 -0.55318531801E+01 -0.28611418413E+02  0.42972886611E+02  0.51100000000E-03 0.  1.
         22    1    1    0    0    0  0.88305868098E+01  0.34682465901E+02  0.87016568380E+00  0.35799579504E+02  0.00000000000E+00 0.  1.
</event>
<event>
 5    1  0.8863861E-005  0.9118800E+02  0.7818608E-02  0.1130116E+00
         25   -1    0    0    0    0  0.00000000000E+00  0.00000000000E+00  0.99999998245E-14  0.12500000000E+03  0.12500000000E+03 0.  0.
        -11    1    3    3    0    0 -0.26337911940E+02 -0.40191849609E+02 -0.45131589400E+00  0.48054906790E+02  0.51100000000E-03 0.  1.
         23    2    1    0    0    0  0.21953023005E+01 -0.94239182585E+01 -0.26051483342E+02  0.97209545311E+02  0.93152489648E+02 0.  0.
         11    1    3    3    0    0  0.28533214240E+02  0.30767931351E+02 -0.25600167448E+02  0.49154638520E+02  0.51100000000E-03 0. -1.
         22    1    1    0    0    0 -0.21953023005E+01  0.94239182585E+01  0.26051483342E+02  0.27790454689E+02  0.00000000000E+00 0.  1.
</event>
<event>
 5    1  0.8863861E-005  0.9118800E+02  0.7818608E-02  0.1130116E+00
         25   -1    0    0    0    0  0.00000000000E+00  0.00000000000E+00  0.99999998245E-14  0.12500000000E+03  0.12500000000E+03 0.  0.
        -11    1    3    3    0    0  0.87685957536E+00  0.38943955480E+02 -0.37551123565E+02  0.54106260566E+02  0.51100000000E-03 0.  1.
         23    2    1    0    0    0  0.51845870190E+01 -0.14127055362E+01 -0.28900918938E+02  0.95603762231E+02  0.90972196620E+02 0.  0.
         11    1    3    3    0    0  0.43077274436E+01 -0.40356661016E+02  0.86502046270E+01  0.41497501665E+02  0.51100000000E-03 0. -1.
         22    1    1    0    0    0 -0.51845870190E+01  0.14127055362E+01  0.28900918938E+02  0.29396237769E+02  0.00000000000E+00 0.  1.
</event>
<event>
 5    1  0.8863861E-005  0.9118800E+02  0.7818608E-02  0.1130116E+00
         25   -1    0    0    0    0  0.00000000000E+00  0.00000000000E+00  0.99999998245E-14  0.12500000000E+03  0.12500000000E+03 0.  0.
        -11    1    3    3    0    0 -0.25994009336E+02 -0.17660678668E+02  0.19510073097E+02  0.36989607255E+02  0.51100000000E-03 0. -1.
         23    2    1    0    0    0  0.67248657529E+01 -0.17032387156E+01 -0.27609093259E+02  0.96532705220E+02  0.92239776154E+02 0.  0.
         11    1    3    3    0    0  0.32718875089E+02  0.15957439952E+02 -0.47119166356E+02  0.59543097965E+02  0.51100000000E-03 0.  1.
         22    1    1    0    0    0 -0.67248657529E+01  0.17032387156E+01  0.27609093259E+02  0.28467294780E+02  0.00000000000E+00 0.  1.
</event>
<event>
 5    1  0.8863861E-005  0.9118800E+02  0.7818608E-02  0.1130116E+00
         25   -1    0    0    0    0  0.00000000000E+00  0.00000000000E+00  0.99999998245E-14  0.12500000000E+03  0.12500000000E+03 0.  0.
        -11    1    3    3    0    0  0.16119491874E+02  0.17765043706E+02  0.33342079308E+02  0.41074676493E+02  0.51100000000E-03 0. -1.
         23    2    1    0    0    0 -0.22506428056E+02  0.21296597894E+02 -0.25363028632E+01  0.93911139971E+02  0.88615940963E+02 0.  0.
         11    1    3    3    0    0 -0.38625919929E+02  0.35315541880E+01 -0.35878382171E+02  0.52836463478E+02  0.51100000000E-03 0.  1.
         22    1    1    0    0    0  0.22506428056E+02 -0.21296597894E+02  0.25363028632E+01  0.31088860029E+02  0.00000000000E+00 0.  1.
</event>
<event>
 5    1  0.8863861E-005  0.9118800E+02  0.7818608E-02  0.1130116E+00
         25   -1    0    0    0    0  0.00000000000E+00  0.00000000000E+00  0.99999998245E-14  0.12500000000E+03  0.12500000000E+03 0.  0.
        -11    1    3    3    0    0 -0.24480319522E+02 -0.38380476526E+02 -0.24963534488E+02  0.51918446401E+02  0.51100000000E-03 0.  1.
         23    2    1    0    0    0 -0.11641990943E+02  0.57456015777E+01 -0.23800456547E+02  0.97888939112E+02  0.94059740474E+02 0.  0.
         11    1    3    3    0    0  0.12838328579E+02  0.44126078104E+02  0.11630779405E+01  0.45970492711E+02  0.51100000000E-03 0. -1.
         22    1    1    0    0    0  0.11641990943E+02 -0.57456015777E+01  0.23800456547E+02  0.27111060888E+02  0.00000000000E+00 0.  1.
</event>
<event>
 5    1  0.8863861E-005  0.9118800E+02  0.7818608E-02  0.1130116E+00
         25   -1    0    0    0    0  0.00000000000E+00  0.00000000000E+00  0.99999998245E-14  0.12500000000E+03  0.12500000000E+03 0.  0.
        -11    1    3    3    0    0  0.96974176906E+01 -0.20983045840E+02  0.23518779389E+02  0.32976675193E+02  0.51100000000E-03 0. -1.
         23    2    1    0    0    0 -0.18987338235E+02  0.18189499120E+02 -0.14798660340E+02  0.94827541709E+02  0.89899307157E+02 0.  0.
         11    1    3    3    0    0 -0.28684755925E+02  0.39172544959E+02 -0.38317439729E+02  0.61850866516E+02  0.51100000000E-03 0.  1.
         22    1    1    0    0    0  0.18987338235E+02 -0.18189499120E+02  0.14798660340E+02  0.30172458291E+02  0.00000000000E+00 0.  1.
</event>
<event>
 5    1  0.8863861E-005  0.9118800E+02  0.7818608E-02  0.1130116E+00
         25   -1    0    0    0    0  0.00000000000E+00  0.00000000000E+00  0.99999998245E-14  0.12500000000E+03  0.12500000000E+03 0.  0.
        -11    1    3    3    0    0 -0.95702599545E+01 -0.21230592529E+01  0.37856589422E+02  0.39105224959E+02  0.51100000000E-03 0. -1.
         23    2    1    0    0    0  0.85295574033E+01 -0.18664045563E+02 -0.16455981946E+02  0.98696021440E+02  0.95126260097E+02 0.  0.
         11    1    3    3    0    0  0.18099817358E+02 -0.16540986310E+02 -0.54312571367E+02  0.59590796481E+02  0.51100000000E-03 0.  1.
         22    1    1    0    0    0 -0.85295574033E+01  0.18664045563E+02  0.16455981946E+02  0.26303978560E+02  0.00000000000E+00 0.  1.
</event>
<event>
 5    1  0.8863861E-005  0.9118800E+02  0.7818608E-02  0.1130116E+00
         25   -1    0    0    0    0  0.00000000000E+00  0.00000000000E+00  0.99999998245E-14  0.12500000000E+03  0.12500000000E+03 0.  0.
        -11    1    3    3    0    0  0.33874060327E+00  0.36163801586E+02 -0.40339404792E+02  0.54177512582E+02  0.51100000000E-03 0.  1.
         23    2    1    0    0    0  0.99813575570E+01 -0.25665869710E+01 -0.26738713703E+02  0.96343871897E+02  0.91983520123E+02 0.  0.
         11    1    3    3    0    0  0.96426169537E+01 -0.38730388557E+02  0.13600691088E+02  0.42166359315E+02  0.51100000000E-03 0. -1.
         22    1    1    0    0    0 -0.99813575570E+01  0.25665869710E+01  0.26738713703E+02  0.28656128103E+02  0.00000000000E+00 0.  1.
</event>
<event>
 5    1  0.8863861E-005  0.9118800E+02  0.7818608E-02  0.1130116E+00
         25   -1    0    0    0    0  0.00000000000E+00  0.00000000000E+00  0.99999998245E-14  0.12500000000E+03  0.12500000000E+03 0.  0.
        -11    1    3    3    0    0 -0.32306364765E+02 -0.28687913836E+02 -0.73238784067E+01  0.43821647616E+02  0.51100000000E-03 0.  1.
         23    2    1    0    0    0 -0.13632660948E+02 -0.72926056261E+00  0.28773925911E+02  0.93151607924E+02  0.87538003067E+02 0.  0.
         11    1    3    3    0    0  0.18673703817E+02  0.27958653274E+02  0.36097804318E+02  0.49329960308E+02  0.51100000000E-03 0. -1.
         22    1    1    0    0    0  0.13632660948E+02  0.72926056261E+00 -0.28773925911E+02  0.31848392076E+02  0.00000000000E+00 0.  1.
</event>
<event>
 5    1  0.8863861E-005  0.9118800E+02  0.7818608E-02  0.1130116E+00
         25   -1    0    0    0    0  0.00000000000E+00  0.00000000000E+00  0.99999998245E-14  0.12500000000E+03  0.12500000000E+03 0.  0.
        -11    1    3    3    0    0  0.30277292599E+02  0.11502523313E+02  0.20436921154E+02  0.38297392029E+02  0.51100000000E-03 0.  1.
         23    2    1    0    0    0 -0.21177502481E+01  0.10721921631E+02 -0.27071998386E+02  0.95805179121E+02  0.91248533030E+02 0.  0.
         11    1    3    3    0    0 -0.32395042847E+02 -0.78060168185E+00 -0.47508919540E+02  0.57507787092E+02  0.51100000000E-03 0. -1.
         22    1    1    0    0    0  0.21177502481E+01 -0.10721921631E+02  0.27071998386E+02  0.29194820879E+02  0.00000000000E+00 0. -1.
</event>
<event>
 5    1  0.8863861E-005  0.9118800E+02  0.7818608E-02  0.1130116E+00
         25   -1    0    0    0    0  0.00000000000E+00  0.00000000000E+00  0.99999998245E-14  0.12500000000E+03  0.12500000000E+03 0.  0.
        -11    1    3    3    0    0  0.33688603582E+02 -0.20184783517E+01 -0.38720799848E+01  0.33970417569E+02  0.51100000000E-03 0.  1.
         23    2    1    0    0    0 -0.28080948192E+02  0.49604814119E+01  0.20274908901E+01  0.96412297285E+02  0.92076459105E+02 0.  0.
         11    1    3    3    0    0 -0.61769551774E+02  0.69789597636E+01  0.58995708749E+01  0.62441879716E+02  0.51100000000E-03 0. -1.
         22    1    1    0    0    0  0.28080948192E+02 -0.49604814119E+01 -0.20274908901E+01  0.28587702715E+02  0.00000000000E+00 0. -1.
</event>
<event>
 5    1  0.8863861E-005  0.9118800E+02  0.7818608E-02  0.1130116E+00
         25   -1    0    0    0    0  0.00000000000E+00  0.00000000000E+00  0.99999998245E-14  0.12500000000E+03  0.12500000000E+03 0.  0.
        -11    1    3    3    0    0  0.21016013526E+02  0.30125797269E+02  0.41448776759E+02  0.55382646928E+02  0.51100000000E-03 0. -1.
         23    2    1    0    0    0 -0.10911015595E+02  0.18163888786E+02  0.21147890023E+02  0.95063227134E+02  0.90226419543E+02 0.  0.
         11    1    3    3    0    0 -0.31927029121E+02 -0.11961908483E+02 -0.20300886735E+02  0.39680580207E+02  0.51100000000E-03 0.  1.
         22    1    1    0    0    0  0.10911015595E+02 -0.18163888786E+02 -0.21147890023E+02  0.29936772866E+02  0.00000000000E+00 0. -1.
</event>
<event>
 5    1  0.8863861E-005  0.9118800E+02  0.7818608E-02  0.1130116E+00
         25   -1    0    0    0    0  0.00000000000E+00  0.00000000000E+00  0.99999998245E-14  0.12500000000E+03  0.12500000000E+03 0.  0.
        -11    1    3    3    0    0 -0.19851183380E+02 -0.48456830984E+02  0.11438875166E+02  0.53600203507E+02  0.51100000000E-03 0.  1.
         23    2    1    0    0    0 -0.16086863701E+02 -0.71671598446E+01  0.22419497146E+02  0.96490541635E+02  0.92182619885E+02 0.  0.
         11    1    3    3    0    0  0.37643196785E+01  0.41289671140E+02  0.10980621979E+02  0.42890338129E+02  0.51100000000E-03 0. -1.
         22    1    1    0    0    0  0.16086863701E+02  0.71671598446E+01 -0.22419497146E+02  0.28509458365E+02  0.00000000000E+00 0.  1.
</event>
<event>
 5    1  0.8863861E-005  0.9118800E+02  0.7818608E-02  0.1130116E+00
         25   -1    0    0    0    0  0.00000000000E+00  0.00000000000E+00  0.99999998245E-14  0.12500000000E+03  0.12500000000E+03 0.  0.
        -11    1    3    3    0    0  0.41549881485E+02 -0.37061151717E+02  0.84712122220E+01  0.56317697528E+02  0.51100000000E-03 0.  1.
         23    2    1    0    0    0  0.25041851660E+02 -0.13521436216E+02 -0.14445403675E+02  0.93084592134E+02  0.87442255423E+02 0.  0.
         11    1    3    3    0    0 -0.16508029825E+02  0.23539715501E+02 -0.22916615897E+02  0.36766894607E+02  0.51100000000E-03 0. -1.
         22    1    1    0    0    0 -0.25041851660E+02  0.13521436216E+02  0.14445403675E+02  0.31915407866E+02  0.00000000000E+00 0.  1.
</event>
<event>
 5    1  0.8863861E-005  0.9118800E+02  0.7818608E-02  0.1130116E+00
         25   -1    0    0    0    0  0.00000000000E+00  0.00000000000E+00  0.99999998245E-14  0.12500000000E+03  0.12500000000E+03 0.  0.
        -11    1    3    3    0    0  0.45386441322E+02 -0.10047465043E+02 -0.24764284622E+02  0.52670204127E+02  0.51100000000E-03 0.  1.
         23    2    1    0    0    0  0.64245678856E-01 -0.82504409371E+01 -0.25669574053E+02  0.98037045131E+02  0.94256359376E+02 0.  0.
         11    1    3    3    0    0 -0.45322195643E+02  0.17970241054E+01 -0.90528943149E+00  0.45366841005E+02  0.51100000000E-03 0. -1.
         22    1    1    0    0    0 -0.64245678856E-01  0.82504409371E+01  0.25669574053E+02  0.26962954869E+02  0.00000000000E+00 0.  1.
</event>
<event>
 5    1  0.8863861E-005  0.9118800E+02  0.7818608E-02  0.1130116E+00
         25   -1    0    0    0    0  0.00000000000E+00  0.00000000000E+00  0.99999998245E-14  0.12500000000E+03  0.12500000000E+03 0.  0.
        -11    1    3    3    0    0  0.34860779566E+02  0.23912396646E+02  0.32493775853E+02  0.53319059770E+02  0.51100000000E-03 0.  1.
         23    2    1    0    0    0  0.60302954588E+01  0.28009258681E+02  0.83064379750E+00  0.96336905186E+02  0.91974052300E+02 0.  0.
         11    1    3    3    0    0 -0.28830484107E+02  0.40968620353E+01 -0.31663132055E+02  0.43017845416E+02  0.51100000000E-03 0. -1.
         22    1    1    0    0    0 -0.60302954588E+01 -0.28009258681E+02 -0.83064379750E+00  0.28663094814E+02  0.00000000000E+00 0.  1.
</event>
<event>
 5    1  0.8863861E-005  0.9118800E+02  0.7818608E-02  0.1130116E+00
         25   -1    0    0    0    0  0.00000000000E+00  0.00000000000E+00  0.99999998245E-14  0.12500000000E+03  0.12500000000E+03 0.  0.
        -11    1    3    3    0    0 -0.92610931903E+00 -0.46786821279E+00  0.55716833703E+02  0.55726494034E+02  0.51100000000E-03 0.  1.
         23    2    1    0    0    0 -0.17255354102E+01  0.19691313104E+02  0.19214055001E+02  0.97433622041E+02  0.93452691295E+02 0.  0.
         11    1    3    3    0    0 -0.79942609118E+00  0.20159181316E+02 -0.36502778702E+02  0.41707128007E+02  0.51100000000E-03 0. -1.
         22    1    1    0    0    0  0.17255354102E+01 -0.19691313104E+02 -0.19214055001E+02  0.27566377959E+02  0.00000000000E+00 0. -1.
</event>
<event>
 5    1  0.8863861E-005  0.9118800E+02  0.7818608E-02  0.1130116E+00
         25   -1    0    0    0    0  0.00000000000E+00  0.00000000000E+00  0.99999998245E-14  0.12500000000E+03  0.12500000000E+03 0.  0.
        -11    1    3    3    0    0  0.87406796380E+01  0.27742557278E+02 -0.17595786141E+02  0.33995009267E+02  0.51100000000E-03 0.  1.
         23    2    1    0    0    0 -0.71198422353E+01 -0.19722305334E+02  0.19560044846E+02  0.96324978892E+02  0.91957842096E+02 0.  0.
         11    1    3    3    0    0 -0.15860521873E+02 -0.47464862612E+02  0.37155830987E+02  0.62329969625E+02  0.51100000000E-03 0. -1.
         22    1    1    0    0    0  0.71198422353E+01  0.19722305334E+02 -0.19560044846E+02  0.28675021108E+02  0.00000000000E+00 0. -1.
</event>
<event>
 5    1  0.8863861E-005  0.9118800E+02  0.7818608E-02  0.1130116E+00
         25   -1    0    0    0    0  0.00000000000E+00  0.00000000000E+00  0.99999998245E-14  0.12500000000E+03  0.12500000000E+03 0.  0.
        -11    1    3    3    0    0  0.24097369336E+02  0.34548950063E+02 -0.15704328640E+02  0.44954856219E+02  0.51100000000E-03 0. -1.
         23    2    1    0    0    0  0.11198439713E+02  0.58717606193E+01  0.25352218783E+02  0.96669493086E+02  0.92424960220E+02 0.  0.
         11    1    3    3    0    0 -0.12898929623E+02 -0.28677189444E+02  0.41056547422E+02  0.51714636867E+02  0.51100000000E-03 0.  1.
         22    1    1    0    0    0 -0.11198439713E+02 -0.58717606193E+01 -0.25352218783E+02  0.28330506914E+02  0.00000000000E+00 0. -1.
</event>
<event>
 5    1  0.8863861E-005  0.9118800E+02  0.7818608E-02  0.1130116E+00
         25   -1    0    0    0    0  0.00000000000E+00  0.00000000000E+00  0.99999998245E-14  0.12500000000E+03  0.12500000000E+03 0.  0.
        -11    1    3    3    0    0  0.33713895243E+02  0.86616232479E+01  0.14195765650E+02  0.37592156261E+02  0.51100000000E-03 0.  1.
         23    2    1    0    0    0 -0.25409449772E+02 -0.27547259434E+01  0.84494941427E+01  0.98081184944E+02  0.94314878127E+02 0.  0.
         11    1    3    3    0    0 -0.59123345014E+02 -0.11416349191E+02 -0.57462715071E+01  0.60489028683E+02  0.51100000000E-03 0. -1.
         22    1    1    0    0    0  0.25409449772E+02  0.27547259434E+01 -0.84494941427E+01  0.26918815056E+02  0.00000000000E+00 0. -1.
</event>
<event>
 5    1  0.8863861E-005  0.9118800E+02  0.7818608E-02  0.1130116E+00
         25   -1    0    0    0    0  0.00000000000E+00  0.00000000000E+00  0.99999998245E-14  0.12500000000E+03  0.12500000000E+03 0.  0.
        -11    1    3    3    0    0  0.45612024398E+02 -0.24434100863E+02  0.17399240681E+02  0.54591351249E+02  0.51100000000E-03 0.  1.
         23    2    1    0    0    0  0.12183837252E+02 -0.39236234099E+01  0.27132298023E+02  0.94999961553E+02  0.90138728570E+02 0.  0.
         11    1    3    3    0    0 -0.33428187146E+02  0.20510477453E+02  0.97330573414E+01  0.40408610304E+02  0.51100000000E-03 0. -1.
         22    1    1    0    0    0 -0.12183837252E+02  0.39236234099E+01 -0.27132298023E+02  0.30000038447E+02  0.00000000000E+00 0. -1.
</event>
<event>
 5    1  0.8863861E-005  0.9118800E+02  0.7818608E-02  0.1130116E+00
         25   -1    0    0    0    0  0.00000000000E+00  0.00000000000E+00  0.99999998245E-14  0.12500000000E+03  0.12500000000E+03 0.  0.
        -11    1    3    3    0    0  0.44275625482E+00 -0.32008656743E+02 -0.11729964424E+02  0.34093140149E+02  0.51100000000E-03 0. -1.
         23    2    1    0    0    0  0.68850497305E+01  0.28482131587E+02 -0.31323238519E+01  0.95530572075E+02  0.90871574316E+02 0.  0.
         11    1    3    3    0    0  0.64422934756E+01  0.60490788330E+02  0.85976405720E+01  0.61437431926E+02  0.51100000000E-03 0.  1.
         22    1    1    0    0    0 -0.68850497305E+01 -0.28482131587E+02  0.31323238519E+01  0.29469427925E+02  0.00000000000E+00 0.  1.
</event>
<event>
 5    1  0.8863861E-005  0.9118800E+02  0.7818608E-02  0.1130116E+00
         25   -1    0    0    0    0  0.00000000000E+00  0.00000000000E+00  0.99999998245E-14  0.12500000000E+03  0.12500000000E+03 0.  0.
        -11    1    3    3    0    0  0.44684124649E+02 -0.23482296590E+02  0.28284022432E+02  0.57862554160E+02  0.51100000000E-03 0. -1.
         23    2    1    0    0    0  0.16582650385E+02  0.93941119251E+00  0.24658778209E+02  0.95269172061E+02  0.90511286673E+02 0.  0.
         11    1    3    3    0    0 -0.28101474263E+02  0.24421707783E+02 -0.36252442229E+01  0.37406617900E+02  0.51100000000E-03 0.  1.
         22    1    1    0    0    0 -0.16582650385E+02 -0.93941119251E+00 -0.24658778209E+02  0.29730827939E+02  0.00000000000E+00 0. -1.
</event>
<event>
 5    1  0.8863861E-005  0.9118800E+02  0.7818608E-02  0.1130116E+00
         25   -1    0    0    0    0  0.00000000000E+00  0.00000000000E+00  0.99999998245E-14  0.12500000000E+03  0.12500000000E+03 0.  0.
        -11    1    3    3    0    0 -0.37315056223E+01  0.56037447109E+02  0.22907857650E+02  0.60653850291E+02  0.51100000000E-03 0.  1.
         23    2    1    0    0    0  0.60635881778E+01  0.35175101016E+02  0.70856357447E+01  0.88609601995E+02  0.80792329455E+02 0.  0.
         11    1    3    3    0    0  0.97950938001E+01 -0.20862346094E+02 -0.15822221905E+02  0.27955751704E+02  0.51100000000E-03 0. -1.
         22    1    1    0    0    0 -0.60635881778E+01 -0.35175101016E+02 -0.70856357447E+01  0.36390398005E+02  0.00000000000E+00 0.  1.
</event>
<event>
 5    1  0.8863861E-005  0.9118800E+02  0.7818608E-02  0.1130116E+00
         25   -1    0    0    0    0  0.00000000000E+00  0.00000000000E+00  0.99999998245E-14  0.12500000000E+03  0.12500000000E+03 0.  0.
        -11    1    3    3    0    0  0.31067462810E+02  0.42853496986E+02  0.13740834235E+01  0.52948064694E+02  0.51100000000E-03 0. -1.
         23    2    1    0    0    0 -0.44956257840E+01  0.24357607934E+02 -0.14769243323E+02  0.96161930303E+02  0.91735939390E+02 0.  0.
         11    1    3    3    0    0 -0.35563088594E+02 -0.18495889051E+02 -0.16143326747E+02  0.43213865609E+02  0.51100000000E-03 0.  1.
         22    1    1    0    0    0  0.44956257840E+01 -0.24357607934E+02  0.14769243323E+02  0.28838069697E+02  0.00000000000E+00 0. -1.
</event>
<event>
 5    1  0.8863861E-005  0.9118800E+02  0.7818608E-02  0.1130116E+00
         25   -1    0    0    0    0  0.00000000000E+00  0.00000000000E+00  0.99999998245E-14  0.12500000000E+03  0.12500000000E+03 0.  0.
        -11    1    3    3    0    0  0.17146446136E+01 -0.24920178993E+02 -0.24664118167E+02  0.35103761229E+02  0.51100000000E-03 0. -1.
         23    2    1    0    0    0 -0.19768975279E+02  0.21594990454E+02  0.64129614974E+01  0.95028645819E+02  0.90178497740E+02 0.  0.
         11    1    3    3    0    0 -0.21483619893E+02  0.46515169447E+02  0.31077079664E+02  0.59924884590E+02  0.51100000000E-03 0.  1.
         22    1    1    0    0    0  0.19768975279E+02 -0.21594990454E+02 -0.64129614974E+01  0.29971354181E+02  0.00000000000E+00 0.  1.
</event>
<event>
 5    1  0.8863861E-005  0.9118800E+02  0.7818608E-02  0.1130116E+00
         25   -1    0    0    0    0  0.00000000000E+00  0.00000000000E+00  0.99999998245E-14  0.12500000000E+03  0.12500000000E+03 0.  0.
        -11    1    3    3    0    0  0.22427915565E+02 -0.63678779105E+01  0.31666110294E+02  0.39323069655E+02  0.51100000000E-03 0.  1.
         23    2    1    0    0    0 -0.25196827871E+02 -0.14675740304E+02  0.26162714234E+01  0.95723689365E+02  0.91136833066E+02 0.  0.
         11    1    3    3    0    0 -0.47624743437E+02 -0.83078623931E+01 -0.29049838871E+02  0.56400619710E+02  0.51100000000E-03 0. -1.
         22    1    1    0    0    0  0.25196827871E+02  0.14675740304E+02 -0.26162714234E+01  0.29276310635E+02  0.00000000000E+00 0. -1.
</event>
<event>
 5    1  0.8863861E-005  0.9118800E+02  0.7818608E-02  0.1130116E+00
         25   -1    0    0    0    0  0.00000000000E+00  0.00000000000E+00  0.99999998245E-14  0.12500000000E+03  0.12500000000E+03 0.  0.
        -11    1    3    3    0    0 -0.22475310592E+02  0.13953608235E+02 -0.24766924420E+02  0.36238699128E+02  0.51100000000E-03 0. -1.
         23    2    1    0    0    0 -0.80132029662E-01 -0.11210316631E+02  0.25726189209E+02  0.96937312471E+02  0.92786465165E+02 0.  0.
         11    1    3    3    0    0  0.22395178562E+02 -0.25163924866E+02  0.50493113630E+02  0.60698613343E+02  0.51100000000E-03 0.  1.
         22    1    1    0    0    0  0.80132029662E-01  0.11210316631E+02 -0.25726189209E+02  0.28062687529E+02  0.00000000000E+00 0.  1.
</event>
<event>
 5    1  0.8863861E-005  0.9118800E+02  0.7818608E-02  0.1130116E+00
         25   -1    0    0    0    0  0.00000000000E+00  0.00000000000E+00  0.99999998245E-14  0.12500000000E+03  0.12500000000E+03 0.  0.
        -11    1    3    3    0    0 -0.22071506110E+02  0.18789627976E+02 -0.22367421229E+02  0.36612880714E+02  0.51100000000E-03 0.  1.
         23    2    1    0    0    0  0.28220388030E+02  0.59339131551E+01  0.56707912451E+01  0.95610214372E+02  0.90981061727E+02 0.  0.
         11    1    3    3    0    0  0.50291894140E+02 -0.12855714821E+02  0.28038212474E+02  0.58997333658E+02  0.51100000000E-03 0. -1.
         22    1    1    0    0    0 -0.28220388030E+02 -0.59339131551E+01 -0.56707912451E+01  0.29389785628E+02  0.00000000000E+00 0. -1.
</event>
<event>
 5    1  0.8863861E-005  0.9118800E+02  0.7818608E-02  0.1130116E+00
         25   -1    0    0    0    0  0.00000000000E+00  0.00000000000E+00  0.99999998245E-14  0.12500000000E+03  0.12500000000E+03 0.  0.
        -11    1    3    3    0    0 -0.41584762008E+02 -0.23870335445E+02  0.40054668702E+02  0.62477690663E+02  0.51100000000E-03 0. -1.
         23    2    1    0    0    0 -0.20446052820E+02 -0.10422522845E+02  0.18751758169E+02  0.95363898826E+02  0.90642014025E+02 0.  0.
         11    1    3    3    0    0  0.21138709188E+02  0.13447812600E+02 -0.21302910533E+02  0.32886208163E+02  0.51100000000E-03 0.  1.
         22    1    1    0    0    0  0.20446052820E+02  0.10422522845E+02 -0.18751758169E+02  0.29636101174E+02  0.00000000000E+00 0. -1.
</event>
<event>
 5    1  0.8863861E-005  0.9118800E+02  0.7818608E-02  0.1130116E+00
         25   -1    0    0    0    0  0.00000000000E+00  0.00000000000E+00  0.99999998245E-14  0.12500000000E+03  0.12500000000E+03 0.  0.
        -11    1    3    3    0    0 -0.30667934648E+02  0.11390848743E+02 -0.10955219835E+02  0.34500586844E+02  0.51100000000E-03 0.  1.
         23    2    1    0    0    0  0.18888688773E+01 -0.30150908361E+02  0.12562020244E+02  0.92282276161E+02  0.86287710829E+02 0.  0.
         11    1    3    3    0    0  0.32556803526E+02 -0.41541757104E+02  0.23517240079E+02  0.57781689317E+02  0.51100000000E-03 0. -1.
         22    1    1    0    0    0 -0.18888688773E+01  0.30150908361E+02 -0.12562020244E+02  0.32717723839E+02  0.00000000000E+00 0. -1.
</event>
<event>
 5    1  0.8863861E-005  0.9118800E+02  0.7818608E-02  0.1130116E+00
         25   -1    0    0    0    0  0.00000000000E+00  0.00000000000E+00  0.99999998245E-14  0.12500000000E+03  0.12500000000E+03 0.  0.
        -11    1    3    3    0    0 -0.31445513173E+02  0.10682417733E+02 -0.13439833421E+02  0.35826854034E+02  0.51100000000E-03 0.  1.
         23    2    1    0    0    0  0.26788202139E+02 -0.52090613227E+01  0.18891099518E+00  0.97709382912E+02  0.93820817135E+02 0.  0.
         11    1    3    3    0    0  0.58233715312E+02 -0.15891479056E+02  0.13628744416E+02  0.61882528877E+02  0.51100000000E-03 0. -1.
         22    1    1    0    0    0 -0.26788202139E+02  0.52090613227E+01 -0.18891099518E+00  0.27290617088E+02  0.00000000000E+00 0. -1.
</event>
<event>
 5    1  0.8863861E-005  0.9118800E+02  0.7818608E-02  0.1130116E+00
         25   -1    0    0    0    0  0.00000000000E+00  0.00000000000E+00  0.99999998245E-14  0.12500000000E+03  0.12500000000E+03 0.  0.
        -11    1    3    3    0    0 -0.26777152081E+02  0.84880952609E+01 -0.42090078510E+02  0.50602750359E+02  0.51100000000E-03 0.  1.
         23    2    1    0    0    0 -0.14625119366E+02 -0.22778618246E+02 -0.13154093232E+02  0.94903659119E+02  0.90005081966E+02 0.  0.
         11    1    3    3    0    0  0.12152032714E+02 -0.31266713507E+02  0.28935985278E+02  0.44300908759E+02  0.51100000000E-03 0. -1.
         22    1    1    0    0    0  0.14625119366E+02  0.22778618246E+02  0.13154093232E+02  0.30096340881E+02  0.00000000000E+00 0. -1.
</event>
<event>
 5    1  0.8863861E-005  0.9118800E+02  0.7818608E-02  0.1130116E+00
         25   -1    0    0    0    0  0.00000000000E+00  0.00000000000E+00  0.99999998245E-14  0.12500000000E+03  0.12500000000E+03 0.  0.
        -11    1    3    3    0    0  0.14395564540E+01 -0.99613803173E+01 -0.25293236796E+02  0.27222219757E+02  0.51100000000E-03 0. -1.
         23    2    1    0    0    0 -0.16094234516E+01 -0.36437374657E+02  0.22643848914E+02  0.82069633016E+02  0.69945752223E+02 0.  0.
         11    1    3    3    0    0 -0.30489799055E+01 -0.26475994339E+02  0.47937085709E+02  0.54847413260E+02  0.51100000000E-03 0.  1.
         22    1    1    0    0    0  0.16094234516E+01  0.36437374657E+02 -0.22643848914E+02  0.42930366984E+02  0.00000000000E+00 0.  1.
</event>
<event>
 5    1  0.8863861E-005  0.9118800E+02  0.7818608E-02  0.1130116E+00
         25   -1    0    0    0    0  0.00000000000E+00  0.00000000000E+00  0.99999998245E-14  0.12500000000E+03  0.12500000000E+03 0.  0.
        -11    1    3    3    0    0 -0.34802376892E+02 -0.26676834444E+02 -0.41507537369E+02  0.60379918781E+02  0.51100000000E-03 0.  1.
         23    2    1    0    0    0 -0.65437936410E+01 -0.11080196530E+02 -0.25563989806E+02  0.96379909763E+02  0.92032480358E+02 0.  0.
         11    1    3    3    0    0  0.28258583251E+02  0.15596637914E+02  0.15943547564E+02  0.35999990982E+02  0.51100000000E-03 0. -1.
         22    1    1    0    0    0  0.65437936410E+01  0.11080196530E+02  0.25563989806E+02  0.28620090237E+02  0.00000000000E+00 0.  1.
</event>
<event>
 5    1  0.8863861E-005  0.9118800E+02  0.7818608E-02  0.1130116E+00
         25   -1    0    0    0    0  0.00000000000E+00  0.00000000000E+00  0.99999998245E-14  0.12500000000E+03  0.12500000000E+03 0.  0.
        -11    1    3    3    0    0 -0.88409872864E+01  0.15827553675E+02  0.39565551728E+02  0.43521344135E+02  0.51100000000E-03 0.  1.
         23    2    1    0    0    0  0.28653524511E+02  0.33272313188E+00  0.71110324388E+01  0.95475400868E+02  0.90795650870E+02 0.  0.
         11    1    3    3    0    0  0.37494511797E+02 -0.15494830543E+02 -0.32454519289E+02  0.51954056733E+02  0.51100000000E-03 0. -1.
         22    1    1    0    0    0 -0.28653524511E+02 -0.33272313188E+00 -0.71110324388E+01  0.29524599132E+02  0.00000000000E+00 0. -1.
</event>
<event>
 5    1  0.8863861E-005  0.9118800E+02  0.7818608E-02  0.1130116E+00
         25   -1    0    0    0    0  0.00000000000E+00  0.00000000000E+00  0.99999998245E-14  0.12500000000E+03  0.12500000000E+03 0.  0.
        -11    1    3    3    0    0 -0.23406091655E+02  0.44962396831E+02  0.29302309945E+02  0.58549872961E+02  0.51100000000E-03 0.  1.
         23    2    1    0    0    0 -0.18001736829E+02  0.89695431696E+01  0.21082049682E+02  0.95862943657E+02  0.91327629523E+02 0.  0.
         11    1    3    3    0    0  0.54043548265E+01 -0.35992853661E+02 -0.82202602623E+01  0.37313070696E+02  0.51100000000E-03 0. -1.
         22    1    1    0    0    0  0.18001736829E+02 -0.89695431696E+01 -0.21082049682E+02  0.29137056343E+02  0.00000000000E+00 0.  1.
</event>
<event>
 5    1  0.8863861E-005  0.9118800E+02  0.7818608E-02  0.1130116E+00
         25   -1    0    0    0    0  0.00000000000E+00  0.00000000000E+00  0.99999998245E-14  0.12500000000E+03  0.12500000000E+03 0.  0.
        -11    1    3    3    0    0  0.27857821675E+02 -0.15595586915E+02  0.44082540459E+02  0.54429320529E+02  0.51100000000E-03 0.  1.
         23    2    1    0    0    0  0.33949491821E+02 -0.11815183128E+02  0.12305056518E+02  0.87005514043E+02  0.78271185698E+02 0.  0.
         11    1    3    3    0    0  0.60916701461E+01  0.37804037871E+01 -0.31777483941E+02  0.32576193513E+02  0.51100000000E-03 0. -1.
         22    1    1    0    0    0 -0.33949491821E+02  0.11815183128E+02 -0.12305056518E+02  0.37994485957E+02  0.00000000000E+00 0.  1.
</event>
<event>
 5    1  0.8863861E-005  0.9118800E+02  0.7818608E-02  0.1130116E+00
         25   -1    0    0    0    0  0.00000000000E+00  0.00000000000E+00  0.99999998245E-14  0.12500000000E+03  0.12500000000E+03 0.  0.
        -11    1    3    3    0    0 -0.44964546067E+02  0.97103703558E+01 -0.32508585217E+02  0.56328587844E+02  0.51100000000E-03 0.  1.
         23    2    1    0    0    0 -0.31752890915E+02 -0.12508817855E+02 -0.22871562875E+02  0.83916852677E+02  0.73172489156E+02 0.  0.
         11    1    3    3    0    0  0.13211655152E+02 -0.22219188211E+02  0.96370223415E+01  0.27588264833E+02  0.51100000000E-03 0. -1.
         22    1    1    0    0    0  0.31752890915E+02  0.12508817855E+02  0.22871562875E+02  0.41083147323E+02  0.00000000000E+00 0.  1.
</event>
<event>
 5    1  0.8863861E-005  0.9118800E+02  0.7818608E-02  0.1130116E+00
         25   -1    0    0    0    0  0.00000000000E+00  0.00000000000E+00  0.99999998245E-14  0.12500000000E+03  0.12500000000E+03 0.  0.
        -11    1    3    3    0    0  0.24621170461E+02 -0.47237033691E+02  0.64323210262E+01  0.53655513611E+02  0.51100000000E-03 0. -1.
         23    2    1    0    0    0  0.18033255798E+02 -0.78834861605E+01  0.21080229813E+02  0.96160378684E+02  0.91733825119E+02 0.  0.
         11    1    3    3    0    0 -0.65879146632E+01  0.39353547530E+02  0.14647908786E+02  0.42504865073E+02  0.51100000000E-03 0.  1.
         22    1    1    0    0    0 -0.18033255798E+02  0.78834861605E+01 -0.21080229813E+02  0.28839621316E+02  0.00000000000E+00 0. -1.
</event>
<event>
 5    1  0.8863861E-005  0.9118800E+02  0.7818608E-02  0.1130116E+00
         25   -1    0    0    0    0  0.00000000000E+00  0.00000000000E+00  0.99999998245E-14  0.12500000000E+03  0.12500000000E+03 0.  0.
        -11    1    3    3    0    0 -0.16434454209E+02 -0.12159081089E+01 -0.32613321308E+02  0.36540367331E+02  0.51100000000E-03 0.  1.
         23    2    1    0    0    0 -0.47230991212E+01  0.22657687852E+02  0.19297581060E+02  0.94865715226E+02  0.89952369654E+02 0.  0.
         11    1    3    3    0    0  0.11711355088E+02  0.23873595961E+02  0.51910902368E+02  0.58325347895E+02  0.51100000000E-03 0. -1.
         22    1    1    0    0    0  0.47230991212E+01 -0.22657687852E+02 -0.19297581060E+02  0.30134284774E+02  0.00000000000E+00 0. -1.
</event>
<event>
 5    1  0.8863861E-005  0.9118800E+02  0.7818608E-02  0.1130116E+00
         25   -1    0    0    0    0  0.00000000000E+00  0.00000000000E+00  0.99999998245E-14  0.12500000000E+03  0.12500000000E+03 0.  0.
        -11    1    3    3    0    0 -0.10607788664E+02 -0.18678976773E+02 -0.37462010716E+02  0.43183696006E+02  0.51100000000E-03 0.  1.
         23    2    1    0    0    0 -0.43403468834E+00 -0.26007910178E+02  0.13519770225E+02  0.95684748596E+02  0.91083407649E+02 0.  0.
         11    1    3    3    0    0  0.10173753976E+02 -0.73289334048E+01  0.50981780941E+02  0.52501052590E+02  0.51100000000E-03 0. -1.
         22    1    1    0    0    0  0.43403468834E+00  0.26007910178E+02 -0.13519770225E+02  0.29315251404E+02  0.00000000000E+00 0.  1.
</event>
<event>
 5    1  0.8863861E-005  0.9118800E+02  0.7818608E-02  0.1130116E+00
         25   -1    0    0    0    0  0.00000000000E+00  0.00000000000E+00  0.99999998245E-14  0.12500000000E+03  0.12500000000E+03 0.  0.
        -11    1    3    3    0    0  0.66374950465E+01  0.32628684534E+00 -0.37076883466E+02  0.37667732762E+02  0.51100000000E-03 0. -1.
         23    2    1    0    0    0  0.16836420384E+02 -0.30839255735E+01  0.21666966422E+02  0.97387809174E+02  0.93391393038E+02 0.  0.
         11    1    3    3    0    0  0.10198925337E+02 -0.34102124188E+01  0.58743849888E+02  0.59720076412E+02  0.51100000000E-03 0.  1.
         22    1    1    0    0    0 -0.16836420384E+02  0.30839255735E+01 -0.21666966422E+02  0.27612190826E+02  0.00000000000E+00 0.  1.
</event>
<event>
 5    1  0.8863861E-005  0.9118800E+02  0.7818608E-02  0.1130116E+00
         25   -1    0    0    0    0  0.00000000000E+00  0.00000000000E+00  0.99999998245E-14  0.12500000000E+03  0.12500000000E+03 0.  0.
        -11    1    3    3    0    0 -0.44997596881E+01  0.26001858359E+02  0.49199464288E+02  0.55829488282E+02  0.51100000000E-03 0. -1.
         23    2    1    0    0    0  0.73921884950E+01 -0.73947960920E+01  0.22432085058E+02  0.10025073940E+03  0.97147747535E+02 0.  0.
         11    1    3    3    0    0  0.11891948183E+02 -0.33396654451E+02 -0.26767379230E+02  0.44421251122E+02  0.51100000000E-03 0.  1.
         22    1    1    0    0    0 -0.73921884950E+01  0.73947960920E+01 -0.22432085058E+02  0.24749260596E+02  0.00000000000E+00 0. -1.
</event>
<event>
 5    1  0.8863861E-005  0.9118800E+02  0.7818608E-02  0.1130116E+00
         25   -1    0    0    0    0  0.00000000000E+00  0.00000000000E+00  0.99999998245E-14  0.12500000000E+03  0.12500000000E+03 0.  0.
        -11    1    3    3    0    0  0.12619748672E+02 -0.31744647206E+02  0.28811789203E+02  0.44688923461E+02  0.51100000000E-03 0.  1.
         23    2    1    0    0    0 -0.24338810732E+02  0.25773692954E+01  0.80086435599E+01  0.99248127990E+02  0.95849006242E+02 0.  0.
         11    1    3    3    0    0 -0.36958559404E+02  0.34322016501E+02 -0.20803145643E+02  0.54559204529E+02  0.51100000000E-03 0. -1.
         22    1    1    0    0    0  0.24338810732E+02 -0.25773692954E+01 -0.80086435599E+01  0.25751872010E+02  0.00000000000E+00 0. -1.
</event>
<event>
 5    1  0.8863861E-005  0.9118800E+02  0.7818608E-02  0.1130116E+00
         25   -1    0    0    0    0  0.00000000000E+00  0.00000000000E+00  0.99999998245E-14  0.12500000000E+03  0.12500000000E+03 0.  0.
        -11    1    3    3    0    0  0.40780656451E+02 -0.16768006385E+01  0.15335188240E+02  0.43600935765E+02  0.51100000000E-03 0. -1.
         23    2    1    0    0    0  0.21705746235E+02 -0.29423201269E+02  0.27337581340E+02  0.79346878026E+02  0.64897761952E+02 0.  0.
         11    1    3    3    0    0 -0.19074910217E+02 -0.27746400630E+02  0.12002393099E+02  0.35745942260E+02  0.51100000000E-03 0.  1.
         22    1    1    0    0    0 -0.21705746235E+02  0.29423201269E+02 -0.27337581340E+02  0.45653121974E+02  0.00000000000E+00 0. -1.
</event>
<event>
 5    1  0.8863861E-005  0.9118800E+02  0.7818608E-02  0.1130116E+00
         25   -1    0    0    0    0  0.00000000000E+00  0.00000000000E+00  0.99999998245E-14  0.12500000000E+03  0.12500000000E+03 0.  0.
        -11    1    3    3    0    0  0.12499312159E+02 -0.14283072687E+02  0.47426957425E+02  0.51083806247E+02  0.51100000000E-03 0. -1.
         23    2    1    0    0    0 -0.16071990217E+02 -0.20634722544E+02  0.14671681770E+02  0.95010687070E+02  0.90153600969E+02 0.  0.
         11    1    3    3    0    0 -0.28571302376E+02 -0.63516498577E+01 -0.32755275655E+02  0.43926880823E+02  0.51100000000E-03 0.  1.
         22    1    1    0    0    0  0.16071990217E+02  0.20634722544E+02 -0.14671681770E+02  0.29989312930E+02  0.00000000000E+00 0. -1.
</event>
<event>
 5    1  0.8863861E-005  0.9118800E+02  0.7818608E-02  0.1130116E+00
         25   -1    0    0    0    0  0.00000000000E+00  0.00000000000E+00  0.99999998245E-14  0.12500000000E+03  0.12500000000E+03 0.  0.
        -11    1    3    3    0    0 -0.28989954958E+02  0.50374649766E+01  0.17736908551E+02  0.34356825626E+02  0.51100000000E-03 0.  1.
         23    2    1    0    0    0  0.20137386646E+02 -0.22965298874E+02 -0.23493308051E+01  0.94366053983E+02  0.89255327549E+02 0.  0.
         11    1    3    3    0    0  0.49127341604E+02 -0.28002763850E+02 -0.20086239356E+02  0.60009228358E+02  0.51100000000E-03 0. -1.
         22    1    1    0    0    0 -0.20137386646E+02  0.22965298874E+02  0.23493308051E+01  0.30633946017E+02  0.00000000000E+00 0. -1.
</event>
<event>
 5    1  0.8863861E-005  0.9118800E+02  0.7818608E-02  0.1130116E+00
         25   -1    0    0    0    0  0.00000000000E+00  0.00000000000E+00  0.99999998245E-14  0.12500000000E+03  0.12500000000E+03 0.  0.
        -11    1    3    3    0    0 -0.14303916125E+02  0.33978573621E+02  0.91611722732E+01  0.37987794875E+02  0.51100000000E-03 0. -1.
         23    2    1    0    0    0 -0.79415824898E+01 -0.23019327352E+02  0.16174515711E+02  0.95766917325E+02  0.91196103707E+02 0.  0.
         11    1    3    3    0    0  0.63623336351E+01 -0.56997900973E+02  0.70133434379E+01  0.57779122450E+02  0.51100000000E-03 0.  1.
         22    1    1    0    0    0  0.79415824898E+01  0.23019327352E+02 -0.16174515711E+02  0.29233082675E+02  0.00000000000E+00 0.  1.
</event>
<event>
 5    1  0.8863861E-005  0.9118800E+02  0.7818608E-02  0.1130116E+00
         25   -1    0    0    0    0  0.00000000000E+00  0.00000000000E+00  0.99999998245E-14  0.12500000000E+03  0.12500000000E+03 0.  0.
        -11    1    3    3    0    0  0.33004320128E+02 -0.16160884258E+02  0.72664198906E+00  0.36755779626E+02  0.51100000000E-03 0.  1.
         23    2    1    0    0    0 -0.20915406376E+02  0.56611780458E+00 -0.19178767648E+02  0.96616909229E+02  0.92353815878E+02 0.  0.
         11    1    3    3    0    0 -0.53919726504E+02  0.16727002062E+02 -0.19905409637E+02  0.59861129603E+02  0.51100000000E-03 0. -1.
         22    1    1    0    0    0  0.20915406376E+02 -0.56611780458E+00  0.19178767648E+02  0.28383090771E+02  0.00000000000E+00 0. -1.
</event>
<event>
 5    1  0.8863861E-005  0.9118800E+02  0.7818608E-02  0.1130116E+00
         25   -1    0    0    0    0  0.00000000000E+00  0.00000000000E+00  0.99999998245E-14  0.12500000000E+03  0.12500000000E+03 0.  0.
        -11    1    3    3    0    0 -0.10294391668E+02 -0.40221875010E+02 -0.39798142531E+02  0.57512310667E+02  0.51100000000E-03 0. -1.
         23    2    1    0    0    0 -0.36485691661E+01 -0.48256378874E+01 -0.29379990328E+02  0.95003622391E+02  0.90143805099E+02 0.  0.
         11    1    3    3    0    0  0.66458225020E+01  0.35396237123E+02  0.10418152202E+02  0.37491311724E+02  0.51100000000E-03 0.  1.
         22    1    1    0    0    0  0.36485691661E+01  0.48256378874E+01  0.29379990328E+02  0.29996377609E+02  0.00000000000E+00 0. -1.
</event>
<event>
 5    1  0.8863861E-005  0.9118800E+02  0.7818608E-02  0.1130116E+00
         25   -1    0    0    0    0  0.00000000000E+00  0.00000000000E+00  0.99999998245E-14  0.12500000000E+03  0.12500000000E+03 0.  0.
        -11    1    3    3    0    0 -0.32291428469E+02 -0.90203910474E+01  0.10565849908E+02  0.35153107853E+02  0.51100000000E-03 0. -1.
         23    2    1    0    0    0  0.19051248788E+02 -0.18108058303E+02 -0.16566379466E+02  0.93930774318E+02  0.88643632481E+02 0.  0.
         11    1    3    3    0    0  0.51342677256E+02 -0.90876672554E+01 -0.27132229374E+02  0.58777666465E+02  0.51100000000E-03 0.  1.
         22    1    1    0    0    0 -0.19051248788E+02  0.18108058303E+02  0.16566379466E+02  0.31069225682E+02  0.00000000000E+00 0.  1.
</event>
<event>
 5    1  0.8863861E-005  0.9118800E+02  0.7818608E-02  0.1130116E+00
         25   -1    0    0    0    0  0.00000000000E+00  0.00000000000E+00  0.99999998245E-14  0.12500000000E+03  0.12500000000E+03 0.  0.
        -11    1    3    3    0    0  0.36624702827E+02  0.11510246051E+02 -0.16545011477E+02  0.41804210629E+02  0.51100000000E-03 0.  1.
         23    2    1    0    0    0 -0.18881572465E+02  0.14922162827E+02 -0.13284333606E+02  0.97510761351E+02  0.93555814024E+02 0.  0.
         11    1    3    3    0    0 -0.55506275292E+02  0.34119167764E+01  0.32606778712E+01  0.55706550721E+02  0.51100000000E-03 0. -1.
         22    1    1    0    0    0  0.18881572465E+02 -0.14922162827E+02  0.13284333606E+02  0.27489238649E+02  0.00000000000E+00 0. -1.
</event>
<event>
 5    1  0.8863861E-005  0.9118800E+02  0.7818608E-02  0.1130116E+00
         25   -1    0    0    0    0  0.00000000000E+00  0.00000000000E+00  0.99999998245E-14  0.12500000000E+03  0.12500000000E+03 0.  0.
        -11    1    3    3    0    0  0.35099888133E+00 -0.20414822017E+01  0.35214494394E+02  0.35275366270E+02  0.51100000000E-03 0. -1.
         23    2    1    0    0    0 -0.10309380064E+02  0.86062652531E+01 -0.24607938890E+02  0.96966060296E+02  0.92825185559E+02 0.  0.
         11    1    3    3    0    0 -0.10660378945E+02  0.10647747455E+02 -0.59822433284E+02  0.61690694026E+02  0.51100000000E-03 0.  1.
         22    1    1    0    0    0  0.10309380064E+02 -0.86062652531E+01  0.24607938890E+02  0.28033939704E+02  0.00000000000E+00 0.  1.
</event>
<event>
 5    1  0.8863861E-005  0.9118800E+02  0.7818608E-02  0.1130116E+00
         25   -1    0    0    0    0  0.00000000000E+00  0.00000000000E+00  0.99999998245E-14  0.12500000000E+03  0.12500000000E+03 0.  0.
        -11    1    3    3    0    0 -0.24104150907E+02 -0.21803034671E+02 -0.18021308792E+02  0.37163826265E+02  0.51100000000E-03 0. -1.
         23    2    1    0    0    0  0.21206787500E+01 -0.37037659462E+00  0.29445976107E+02  0.95475434532E+02  0.90795697217E+02 0.  0.
         11    1    3    3    0    0  0.26224829657E+02  0.21432658076E+02  0.47467284899E+02  0.58311608267E+02  0.51100000000E-03 0.  1.
         22    1    1    0    0    0 -0.21206787500E+01  0.37037659462E+00 -0.29445976107E+02  0.29524565468E+02  0.00000000000E+00 0.  1.
</event>
<event>
 5    1  0.8863861E-005  0.9118800E+02  0.7818608E-02  0.1130116E+00
         25   -1    0    0    0    0  0.00000000000E+00  0.00000000000E+00  0.99999998245E-14  0.12500000000E+03  0.12500000000E+03 0.  0.
        -11    1    3    3    0    0  0.33148481078E+02 -0.15772650277E+02  0.11342636862E+02  0.38422047132E+02  0.51100000000E-03 0.  1.
         23    2    1    0    0    0 -0.24140335813E+02 -0.84690146578E+01  0.13216480269E+02  0.96204941862E+02  0.91794528517E+02 0.  0.
         11    1    3    3    0    0 -0.57288816892E+02  0.73036356193E+01  0.18738434071E+01  0.57782894731E+02  0.51100000000E-03 0. -1.
         22    1    1    0    0    0  0.24140335813E+02  0.84690146578E+01 -0.13216480269E+02  0.28795058138E+02  0.00000000000E+00 0. -1.
</event>
<event>
 5    1  0.8863861E-005  0.9118800E+02  0.7818608E-02  0.1130116E+00
         25   -1    0    0    0    0  0.00000000000E+00  0.00000000000E+00  0.99999998245E-14  0.12500000000E+03  0.12500000000E+03 0.  0.
        -11    1    3    3    0    0 -0.20409714283E+02  0.14036587096E+02  0.51483492102E+02  0.57132584168E+02  0.51100000000E-03 0. -1.
         23    2    1    0    0    0 -0.10854982612E+02 -0.11944995072E+02  0.23463211368E+02  0.96521308975E+02  0.92224331084E+02 0.  0.
         11    1    3    3    0    0  0.95547316711E+01 -0.25981582168E+02 -0.28020280734E+02  0.39388724807E+02  0.51100000000E-03 0.  1.
         22    1    1    0    0    0  0.10854982612E+02  0.11944995072E+02 -0.23463211368E+02  0.28478691025E+02  0.00000000000E+00 0. -1.
</event>
<event>
 5    1  0.8863861E-005  0.9118800E+02  0.7818608E-02  0.1130116E+00
         25   -1    0    0    0    0  0.00000000000E+00  0.00000000000E+00  0.99999998245E-14  0.12500000000E+03  0.12500000000E+03 0.  0.
        -11    1    3    3    0    0 -0.27026179403E+02  0.15875921108E+02  0.14713652765E+02  0.34625869261E+02  0.51100000000E-03 0. -1.
         23    2    1    0    0    0  0.19950617818E+02 -0.18866241807E+02 -0.64947011148E+01  0.96783987280E+02  0.92579678223E+02 0.  0.
         11    1    3    3    0    0  0.46976797221E+02 -0.34742162915E+02 -0.21208353880E+02  0.62158118019E+02  0.51100000000E-03 0.  1.
         22    1    1    0    0    0 -0.19950617818E+02  0.18866241807E+02  0.64947011148E+01  0.28216012720E+02  0.00000000000E+00 0.  1.
</event>
<event>
 5    1  0.8863861E-005  0.9118800E+02  0.7818608E-02  0.1130116E+00
         25   -1    0    0    0    0  0.00000000000E+00  0.00000000000E+00  0.99999998245E-14  0.12500000000E+03  0.12500000000E+03 0.  0.
        -11    1    3    3    0    0 -0.47442419074E+01  0.30075008787E+02 -0.20208766857E+02  0.36543237992E+02  0.51100000000E-03 0. -1.
         23    2    1    0    0    0  0.11361513304E+01  0.40532202438E+01  0.30696894572E+02  0.94015830324E+02  0.88763492388E+02 0.  0.
         11    1    3    3    0    0  0.58803932377E+01 -0.26021788543E+02  0.50905661428E+02  0.57472592332E+02  0.51100000000E-03 0.  1.
         22    1    1    0    0    0 -0.11361513304E+01 -0.40532202438E+01 -0.30696894572E+02  0.30984169676E+02  0.00000000000E+00 0.  1.
</event>
<event>
 5    1  0.8863861E-005  0.9118800E+02  0.7818608E-02  0.1130116E+00
         25   -1    0    0    0    0  0.00000000000E+00  0.00000000000E+00  0.99999998245E-14  0.12500000000E+03  0.12500000000E+03 0.  0.
        -11    1    3    3    0    0 -0.18209089601E+02 -0.10927888268E+02 -0.53678274671E+02  0.57726483160E+02  0.51100000000E-03 0. -1.
         23    2    1    0    0    0 -0.20754677866E+02  0.43300876483E+01 -0.16055656411E+02  0.98405067867E+02  0.94743163166E+02 0.  0.
         11    1    3    3    0    0 -0.25455882656E+01  0.15257975916E+02  0.37622618261E+02  0.40678584707E+02  0.51100000000E-03 0.  1.
         22    1    1    0    0    0  0.20754677866E+02 -0.43300876483E+01  0.16055656411E+02  0.26594932133E+02  0.00000000000E+00 0. -1.
</event>
<event>
 5    1  0.8863861E-005  0.9118800E+02  0.7818608E-02  0.1130116E+00
         25   -1    0    0    0    0  0.00000000000E+00  0.00000000000E+00  0.99999998245E-14  0.12500000000E+03  0.12500000000E+03 0.  0.
        -11    1    3    3    0    0 -0.79267026787E+01  0.13251744422E+02 -0.42115092570E+02  0.44856686993E+02  0.51100000000E-03 0. -1.
         23    2    1    0    0    0 -0.30886051054E+02 -0.25034653293E+01 -0.16603926689E+01  0.93968203530E+02  0.88696397234E+02 0.  0.
         11    1    3    3    0    0 -0.22959348375E+02 -0.15755209751E+02  0.40454699901E+02  0.49111516536E+02  0.51100000000E-03 0.  1.
         22    1    1    0    0    0  0.30886051054E+02  0.25034653293E+01  0.16603926689E+01  0.31031796470E+02  0.00000000000E+00 0.  1.
</event>
<event>
 5    1  0.8863861E-005  0.9118800E+02  0.7818608E-02  0.1130116E+00
         25   -1    0    0    0    0  0.00000000000E+00  0.00000000000E+00  0.99999998245E-14  0.12500000000E+03  0.12500000000E+03 0.  0.
        -11    1    3    3    0    0  0.21226793366E+02  0.27257295678E+02 -0.18409596247E+02  0.39146521666E+02  0.51100000000E-03 0.  1.
         23    2    1    0    0    0  0.12505446206E+02 -0.85122464822E+01  0.24822238249E+02  0.95931322069E+02  0.91421171055E+02 0.  0.
         11    1    3    3    0    0 -0.87213471599E+01 -0.35769542160E+02  0.43231834496E+02  0.56784800403E+02  0.51100000000E-03 0. -1.
         22    1    1    0    0    0 -0.12505446206E+02  0.85122464822E+01 -0.24822238249E+02  0.29068677931E+02  0.00000000000E+00 0. -1.
</event>
<event>
 5    1  0.8863861E-005  0.9118800E+02  0.7818608E-02  0.1130116E+00
         25   -1    0    0    0    0  0.00000000000E+00  0.00000000000E+00  0.99999998245E-14  0.12500000000E+03  0.12500000000E+03 0.  0.
        -11    1    3    3    0    0 -0.19364643472E+02  0.25637976075E+02 -0.27830940517E+02  0.42507134511E+02  0.51100000000E-03 0.  1.
         23    2    1    0    0    0 -0.31303904211E+01  0.16269417497E+02  0.22983021395E+02  0.96667817551E+02  0.92422694117E+02 0.  0.
         11    1    3    3    0    0  0.16234253051E+02 -0.93685585778E+01  0.50813961911E+02  0.54160683040E+02  0.51100000000E-03 0. -1.
         22    1    1    0    0    0  0.31303904211E+01 -0.16269417497E+02 -0.22983021395E+02  0.28332182449E+02  0.00000000000E+00 0. -1.
</event>
<event>
 5    1  0.8863861E-005  0.9118800E+02  0.7818608E-02  0.1130116E+00
         25   -1    0    0    0    0  0.00000000000E+00  0.00000000000E+00  0.99999998245E-14  0.12500000000E+03  0.12500000000E+03 0.  0.
        -11    1    3    3    0    0  0.35103116431E+02  0.48533040256E+02 -0.18657829639E+01  0.59926337499E+02  0.51100000000E-03 0. -1.
         23    2    1    0    0    0  0.13942466628E+02  0.21693307065E+02 -0.13323708022E+02  0.95973923059E+02  0.91479400768E+02 0.  0.
         11    1    3    3    0    0 -0.21160649803E+02 -0.26839733191E+02 -0.11457925059E+02  0.36047585561E+02  0.51100000000E-03 0.  1.
         22    1    1    0    0    0 -0.13942466628E+02 -0.21693307065E+02  0.13323708022E+02  0.29026076941E+02  0.00000000000E+00 0. -1.
</event>
<event>
 5    1  0.8863861E-005  0.9118800E+02  0.7818608E-02  0.1130116E+00
         25   -1    0    0    0    0  0.00000000000E+00  0.00000000000E+00  0.99999998245E-14  0.12500000000E+03  0.12500000000E+03 0.  0.
        -11    1    3    3    0    0  0.50027603630E+02  0.11549325033E+02 -0.25590058979E+02  0.57367230650E+02  0.51100000000E-03 0. -1.
         23    2    1    0    0    0  0.12164220470E+02  0.13276702115E+02 -0.23590300493E+02  0.95322713129E+02  0.90585199024E+02 0.  0.
         11    1    3    3    0    0 -0.37863383160E+02  0.17273770817E+01  0.19997584854E+01  0.37955482478E+02  0.51100000000E-03 0.  1.
         22    1    1    0    0    0 -0.12164220470E+02 -0.13276702115E+02  0.23590300493E+02  0.29677286871E+02  0.00000000000E+00 0. -1.
</event>
<event>
 5    1  0.8863861E-005  0.9118800E+02  0.7818608E-02  0.1130116E+00
         25   -1    0    0    0    0  0.00000000000E+00  0.00000000000E+00  0.99999998245E-14  0.12500000000E+03  0.12500000000E+03 0.  0.
        -11    1    3    3    0    0  0.13088878489E+02  0.21155429694E+02 -0.36756878063E+02  0.44383995211E+02  0.51100000000E-03 0. -1.
         23    2    1    0    0    0  0.27844174740E+02 -0.83908148328E+01  0.26483225945E+01  0.95798673779E+02  0.91239621025E+02 0.  0.
         11    1    3    3    0    0  0.14755296251E+02 -0.29546244527E+02  0.39405200658E+02  0.51414678568E+02  0.51100000000E-03 0.  1.
         22    1    1    0    0    0 -0.27844174740E+02  0.83908148328E+01 -0.26483225945E+01  0.29201326221E+02  0.00000000000E+00 0.  1.
</event>
<event>
 5    1  0.8863861E-005  0.9118800E+02  0.7818608E-02  0.1130116E+00
         25   -1    0    0    0    0  0.00000000000E+00  0.00000000000E+00  0.99999998245E-14  0.12500000000E+03  0.12500000000E+03 0.  0.
        -11    1    3    3    0    0 -0.24674808968E+02 -0.17684190324E+02  0.19854396293E+02  0.36273596974E+02  0.51100000000E-03 0.  1.
         23    2    1    0    0    0  0.26265244820E+02  0.10041919399E+02  0.10307661917E+02  0.95050857694E+02  0.90209281250E+02 0.  0.
         11    1    3    3    0    0  0.50940053788E+02  0.27726109722E+02 -0.95467343762E+01  0.58777260720E+02  0.51100000000E-03 0. -1.
         22    1    1    0    0    0 -0.26265244820E+02 -0.10041919399E+02 -0.10307661917E+02  0.29949142306E+02  0.00000000000E+00 0. -1.
</event>
<event>
 5    1  0.8863861E-005  0.9118800E+02  0.7818608E-02  0.1130116E+00
         25   -1    0    0    0    0  0.00000000000E+00  0.00000000000E+00  0.99999998245E-14  0.12500000000E+03  0.12500000000E+03 0.  0.
        -11    1    3    3    0    0  0.26123620479E+02 -0.15509619782E+02 -0.25646447369E+02  0.39758421945E+02  0.51100000000E-03 0. -1.
         23    2    1    0    0    0  0.30114416999E+01  0.29472870755E+02 -0.28332186095E+01  0.95238514497E+02  0.90468937344E+02 0.  0.
         11    1    3    3    0    0 -0.23112178779E+02  0.44982490537E+02  0.22813228759E+02  0.55480092551E+02  0.51100000000E-03 0.  1.
         22    1    1    0    0    0 -0.30114416999E+01 -0.29472870755E+02  0.28332186095E+01  0.29761485503E+02  0.00000000000E+00 0.  1.
</event>
<event>
 5    1  0.8863861E-005  0.9118800E+02  0.7818608E-02  0.1130116E+00
         25   -1    0    0    0    0  0.00000000000E+00  0.00000000000E+00  0.99999998245E-14  0.12500000000E+03  0.12500000000E+03 0.  0.
        -11    1    3    3    0    0 -0.32549716801E+02  0.21863742178E+01 -0.66963470607E+01  0.33303233481E+02  0.51100000000E-03 0. -1.
         23    2    1    0    0    0  0.19602289390E+02  0.16948209207E+02  0.18585882923E+02  0.93110713575E+02  0.87479588441E+02 0.  0.
         11    1    3    3    0    0  0.52152006191E+02  0.14761834989E+02  0.25282229984E+02  0.59807480094E+02  0.51100000000E-03 0.  1.
         22    1    1    0    0    0 -0.19602289390E+02 -0.16948209207E+02 -0.18585882923E+02  0.31889286425E+02  0.00000000000E+00 0.  1.
</event>
<event>
 5    1  0.8863861E-005  0.9118800E+02  0.7818608E-02  0.1130116E+00
         25   -1    0    0    0    0  0.00000000000E+00  0.00000000000E+00  0.99999998245E-14  0.12500000000E+03  0.12500000000E+03 0.  0.
        -11    1    3    3    0    0  0.93613954344E+01  0.25225761671E+02 -0.41121355711E+02  0.49142045868E+02  0.51100000000E-03 0.  1.
         23    2    1    0    0    0  0.26590080777E+02  0.13294608353E+02 -0.26919386549E-01  0.95271566950E+02  0.90514594058E+02 0.  0.
         11    1    3    3    0    0  0.17228685342E+02 -0.11931153318E+02  0.41094436324E+02  0.46129521081E+02  0.51100000000E-03 0. -1.
         22    1    1    0    0    0 -0.26590080777E+02 -0.13294608353E+02  0.26919386549E-01  0.29728433050E+02  0.00000000000E+00 0. -1.
</event>
<event>
 5    1  0.8863861E-005  0.9118800E+02  0.7818608E-02  0.1130116E+00
         25   -1    0    0    0    0  0.00000000000E+00  0.00000000000E+00  0.99999998245E-14  0.12500000000E+03  0.12500000000E+03 0.  0.
        -11    1    3    3    0    0 -0.54584430438E+02 -0.56076008386E+01 -0.11240830296E+02  0.56011262255E+02  0.51100000000E-03 0. -1.
         23    2    1    0    0    0 -0.20718022297E+02  0.14304408395E+02 -0.15351847610E+02  0.95512175861E+02  0.90846265555E+02 0.  0.
         11    1    3    3    0    0  0.33866408141E+02  0.19912009233E+02 -0.41110173135E+01  0.39500913606E+02  0.51100000000E-03 0.  1.
         22    1    1    0    0    0  0.20718022297E+02 -0.14304408395E+02  0.15351847610E+02  0.29487824139E+02  0.00000000000E+00 0. -1.
</event>
<event>
 5    1  0.8863861E-005  0.9118800E+02  0.7818608E-02  0.1130116E+00
         25   -1    0    0    0    0  0.00000000000E+00  0.00000000000E+00  0.99999998245E-14  0.12500000000E+03  0.12500000000E+03 0.  0.
        -11    1    3    3    0    0 -0.25262714320E+02  0.23986249531E+02  0.13550983216E+02  0.37378791417E+02  0.51100000000E-03 0. -1.
         23    2    1    0    0    0 -0.33968467885E+01 -0.21810868507E+02 -0.17462385787E+02  0.96854174901E+02  0.92674396277E+02 0.  0.
         11    1    3    3    0    0  0.21865867532E+02 -0.45797118038E+02 -0.31013369003E+02  0.59475383485E+02  0.51100000000E-03 0.  1.
         22    1    1    0    0    0  0.33968467885E+01  0.21810868507E+02  0.17462385787E+02  0.28145825099E+02  0.00000000000E+00 0.  1.
</event>
<event>
 5    1  0.8863861E-005  0.9118800E+02  0.7818608E-02  0.1130116E+00
         25   -1    0    0    0    0  0.00000000000E+00  0.00000000000E+00  0.99999998245E-14  0.12500000000E+03  0.12500000000E+03 0.  0.
        -11    1    3    3    0    0  0.34386586367E+02  0.23227044737E+02  0.79890534399E+01  0.42258228835E+02  0.51100000000E-03 0. -1.
         23    2    1    0    0    0 -0.57776793318E+01  0.78817634496E+01 -0.26101446828E+02  0.97129059936E+02  0.93044424787E+02 0.  0.
         11    1    3    3    0    0 -0.40164265698E+02 -0.15345281287E+02 -0.34090500268E+02  0.54870831101E+02  0.51100000000E-03 0.  1.
         22    1    1    0    0    0  0.57776793318E+01 -0.78817634496E+01  0.26101446828E+02  0.27870940064E+02  0.00000000000E+00 0.  1.
</event>
<event>
 5    1  0.8863861E-005  0.9118800E+02  0.7818608E-02  0.1130116E+00
         25   -1    0    0    0    0  0.00000000000E+00  0.00000000000E+00  0.99999998245E-14  0.12500000000E+03  0.12500000000E+03 0.  0.
        -11    1    3    3    0    0  0.33778818350E+02  0.31502589607E+02 -0.20418610603E+01  0.46234088267E+02  0.51100000000E-03 0. -1.
         23    2    1    0    0    0  0.21545359036E+02 -0.17304597314E+02  0.45931038491E+01  0.96986642701E+02  0.92852898044E+02 0.  0.
         11    1    3    3    0    0 -0.12233459313E+02 -0.48807186921E+02  0.66349649094E+01  0.50752554434E+02  0.51100000000E-03 0.  1.
         22    1    1    0    0    0 -0.21545359036E+02  0.17304597314E+02 -0.45931038491E+01  0.28013357299E+02  0.00000000000E+00 0.  1.
</event>
<event>
 5    1  0.8863861E-005  0.9118800E+02  0.7818608E-02  0.1130116E+00
         25   -1    0    0    0    0  0.00000000000E+00  0.00000000000E+00  0.99999998245E-14  0.12500000000E+03  0.12500000000E+03 0.  0.
        -11    1    3    3    0    0  0.90699344970E+01  0.22782502889E+02  0.38924372499E+02  0.46004488090E+02  0.51100000000E-03 0.  1.
         23    2    1    0    0    0 -0.85895182288E+01  0.31408390896E+02 -0.29934146030E+01  0.92300957613E+02  0.86314769322E+02 0.  0.
         11    1    3    3    0    0 -0.17659452726E+02  0.86258880065E+01 -0.41917787102E+02  0.46296469523E+02  0.51100000000E-03 0. -1.
         22    1    1    0    0    0  0.85895182288E+01 -0.31408390896E+02  0.29934146030E+01  0.32699042387E+02  0.00000000000E+00 0. -1.
</event>
<event>
 5    1  0.8863861E-005  0.9118800E+02  0.7818608E-02  0.1130116E+00
         25   -1    0    0    0    0  0.00000000000E+00  0.00000000000E+00  0.99999998245E-14  0.12500000000E+03  0.12500000000E+03 0.  0.
        -11    1    3    3    0    0  0.25910886599E+02  0.16897236639E+02  0.35145172134E+02  0.46819587513E+02  0.51100000000E-03 0. -1.
         23    2    1    0    0    0  0.18438862142E+01  0.29009758251E+02 -0.53346708578E+01  0.95446240454E+02  0.90755496327E+02 0.  0.
         11    1    3    3    0    0 -0.24067000385E+02  0.12112521612E+02 -0.40479842991E+02  0.48626652941E+02  0.51100000000E-03 0.  1.
         22    1    1    0    0    0 -0.18438862142E+01 -0.29009758251E+02  0.53346708578E+01  0.29553759546E+02  0.00000000000E+00 0.  1.
</event>
<event>
 5    1  0.8863861E-005  0.9118800E+02  0.7818608E-02  0.1130116E+00
         25   -1    0    0    0    0  0.00000000000E+00  0.00000000000E+00  0.99999998245E-14  0.12500000000E+03  0.12500000000E+03 0.  0.
        -11    1    3    3    0    0  0.10511954842E+02  0.26935010861E+02 -0.49019587172E+02  0.56911474515E+02  0.51100000000E-03 0.  1.
         23    2    1    0    0    0  0.98990730780E+01 -0.58827844336E+01 -0.24651513656E+02  0.97791620298E+02  0.93930320315E+02 0.  0.
         11    1    3    3    0    0 -0.61288176397E+00 -0.32817795295E+02  0.24368073517E+02  0.40880145783E+02  0.51100000000E-03 0. -1.
         22    1    1    0    0    0 -0.98990730780E+01  0.58827844336E+01  0.24651513656E+02  0.27208379702E+02  0.00000000000E+00 0.  1.
</event>
<event>
 5    1  0.8863861E-005  0.9118800E+02  0.7818608E-02  0.1130116E+00
         25   -1    0    0    0    0  0.00000000000E+00  0.00000000000E+00  0.99999998245E-14  0.12500000000E+03  0.12500000000E+03 0.  0.
        -11    1    3    3    0    0  0.99536950351E+01 -0.53567931515E+02  0.12658114975E+02  0.55935920540E+02  0.51100000000E-03 0.  1.
         23    2    1    0    0    0  0.20007900170E+01 -0.26271981947E+02  0.26563814559E+02  0.87585344582E+02  0.79191768168E+02 0.  0.
         11    1    3    3    0    0 -0.79529050181E+01  0.27295949568E+02  0.13905699584E+02  0.31649424043E+02  0.51100000000E-03 0. -1.
         22    1    1    0    0    0 -0.20007900170E+01  0.26271981947E+02 -0.26563814559E+02  0.37414655418E+02  0.00000000000E+00 0.  1.
</event>
<event>
 5    1  0.8863861E-005  0.9118800E+02  0.7818608E-02  0.1130116E+00
         25   -1    0    0    0    0  0.00000000000E+00  0.00000000000E+00  0.99999998245E-14  0.12500000000E+03  0.12500000000E+03 0.  0.
        -11    1    3    3    0    0  0.39129554318E+02 -0.43482334495E+02 -0.13640167646E+02  0.60065710750E+02  0.51100000000E-03 0.  1.
         23    2    1    0    0    0  0.27381763956E+02 -0.12176067236E+02 -0.80812811946E+01  0.93962527222E+02  0.88688397243E+02 0.  0.
         11    1    3    3    0    0 -0.11747790362E+02  0.31306267259E+02  0.55588864510E+01  0.33896816471E+02  0.51100000000E-03 0. -1.
         22    1    1    0    0    0 -0.27381763956E+02  0.12176067236E+02  0.80812811946E+01  0.31037472778E+02  0.00000000000E+00 0.  1.
</event>
<event>
 5    1  0.8863861E-005  0.9118800E+02  0.7818608E-02  0.1130116E+00
         25   -1    0    0    0    0  0.00000000000E+00  0.00000000000E+00  0.99999998245E-14  0.12500000000E+03  0.12500000000E+03 0.  0.
        -11    1    3    3    0    0 -0.27476425836E+01  0.52645436942E+00 -0.35214796043E+02  0.35325749172E+02  0.51100000000E-03 0.  1.
         23    2    1    0    0    0 -0.88012024449E+01  0.16973973951E+02  0.22401250787E+02  0.95548463657E+02  0.90896182066E+02 0.  0.
         11    1    3    3    0    0 -0.60535598613E+01  0.16447519582E+02  0.57616046829E+02  0.60222714485E+02  0.51100000000E-03 0. -1.
         22    1    1    0    0    0  0.88012024449E+01 -0.16973973951E+02 -0.22401250787E+02  0.29451536343E+02  0.00000000000E+00 0. -1.
</event>
<event>
 5    1  0.8863861E-005  0.9118800E+02  0.7818608E-02  0.1130116E+00
         25   -1    0    0    0    0  0.00000000000E+00  0.00000000000E+00  0.99999998245E-14  0.12500000000E+03  0.12500000000E+03 0.  0.
        -11    1    3    3    0    0  0.52422648589E+02 -0.90138140698E+00 -0.16026894253E+02  0.54825248866E+02  0.51100000000E-03 0.  1.
         23    2    1    0    0    0  0.13902555262E+02 -0.13202751177E+02 -0.22129925274E+02  0.95719848462E+02  0.91131564869E+02 0.  0.
         11    1    3    3    0    0 -0.38520093328E+02 -0.12301369770E+02 -0.61030310214E+01  0.40894599596E+02  0.51100000000E-03 0. -1.
         22    1    1    0    0    0 -0.13902555262E+02  0.13202751177E+02  0.22129925274E+02  0.29280151538E+02  0.00000000000E+00 0. -1.
</event>
<event>
 5    1  0.8863861E-005  0.9118800E+02  0.7818608E-02  0.1130116E+00
         25   -1    0    0    0    0  0.00000000000E+00  0.00000000000E+00  0.99999998245E-14  0.12500000000E+03  0.12500000000E+03 0.  0.
        -11    1    3    3    0    0  0.78641062951E+01 -0.31801465198E+02 -0.26490167866E+02  0.42129637435E+02  0.51100000000E-03 0.  1.
         23    2    1    0    0    0  0.25884923589E+02 -0.39988400394E+00  0.13274257634E+02  0.95907129874E+02  0.91388087126E+02 0.  0.
         11    1    3    3    0    0  0.18020817294E+02  0.31401581194E+02  0.39764425500E+02  0.53777492439E+02  0.51100000000E-03 0. -1.
         22    1    1    0    0    0 -0.25884923589E+02  0.39988400394E+00 -0.13274257634E+02  0.29092870126E+02  0.00000000000E+00 0. -1.
</event>
<event>
 5    1  0.8863861E-005  0.9118800E+02  0.7818608E-02  0.1130116E+00
         25   -1    0    0    0    0  0.00000000000E+00  0.00000000000E+00  0.99999998245E-14  0.12500000000E+03  0.12500000000E+03 0.  0.
        -11    1    3    3    0    0 -0.19844425789E+02 -0.19407985267E+02 -0.23981135803E+02  0.36681957441E+02  0.51100000000E-03 0. -1.
         23    2    1    0    0    0  0.65758472297E+00  0.22227669513E+02  0.15729192365E+02  0.97761989755E+02  0.93890880487E+02 0.  0.
         11    1    3    3    0    0  0.20502010512E+02  0.41635654780E+02  0.39710328168E+02  0.61080032314E+02  0.51100000000E-03 0.  1.
         22    1    1    0    0    0 -0.65758472297E+00 -0.22227669513E+02 -0.15729192365E+02  0.27238010245E+02  0.00000000000E+00 0.  1.
</event>
<event>
 5    1  0.8863861E-005  0.9118800E+02  0.7818608E-02  0.1130116E+00
         25   -1    0    0    0    0  0.00000000000E+00  0.00000000000E+00  0.99999998245E-14  0.12500000000E+03  0.12500000000E+03 0.  0.
        -11    1    3    3    0    0 -0.39222522716E+02 -0.30078967946E+01 -0.18369225654E+02  0.43415229847E+02  0.51100000000E-03 0.  1.
         23    2    1    0    0    0  0.12440433605E+02  0.18326183797E+02 -0.12368137310E+02  0.99631038229E+02  0.96347078613E+02 0.  0.
         11    1    3    3    0    0  0.51662956320E+02  0.21334080591E+02  0.60010883439E+01  0.56215808382E+02  0.51100000000E-03 0. -1.
         22    1    1    0    0    0 -0.12440433605E+02 -0.18326183797E+02  0.12368137310E+02  0.25368961771E+02  0.00000000000E+00 0.  1.
</event>
<event>
 5    1  0.8863861E-005  0.9118800E+02  0.7818608E-02  0.1130116E+00
         25   -1    0    0    0    0  0.00000000000E+00  0.00000000000E+00  0.99999998245E-14  0.12500000000E+03  0.12500000000E+03 0.  0.
        -11    1    3    3    0    0  0.19922657855E+01  0.11140182097E+02  0.32379592402E+02  0.34300302980E+02  0.51100000000E-03 0.  1.
         23    2    1    0    0    0 -0.14203424737E+02 -0.91847233620E+01 -0.23568724775E+02  0.95989980954E+02  0.91501340092E+02 0.  0.
         11    1    3    3    0    0 -0.16195690523E+02 -0.20324905459E+02 -0.55948317177E+02  0.61689677975E+02  0.51100000000E-03 0. -1.
         22    1    1    0    0    0  0.14203424737E+02  0.91847233620E+01  0.23568724775E+02  0.29010019046E+02  0.00000000000E+00 0. -1.
</event>
<event>
 5    1  0.8863861E-005  0.9118800E+02  0.7818608E-02  0.1130116E+00
         25   -1    0    0    0    0  0.00000000000E+00  0.00000000000E+00  0.99999998245E-14  0.12500000000E+03  0.12500000000E+03 0.  0.
        -11    1    3    3    0    0 -0.82227073787E+01 -0.54307886053E+02  0.21017852529E+02  0.58810794327E+02  0.51100000000E-03 0.  1.
         23    2    1    0    0    0 -0.17769501626E+02 -0.19593836250E+02  0.12160908265E+02  0.95887093981E+02  0.91360678058E+02 0.  0.
         11    1    3    3    0    0 -0.95467942472E+01  0.34714049802E+02 -0.88569442640E+01  0.37076299654E+02  0.51100000000E-03 0. -1.
         22    1    1    0    0    0  0.17769501626E+02  0.19593836250E+02 -0.12160908265E+02  0.29112906019E+02  0.00000000000E+00 0.  1.
</event>
<event>
 5    1  0.8863861E-005  0.9118800E+02  0.7818608E-02  0.1130116E+00
         25   -1    0    0    0    0  0.00000000000E+00  0.00000000000E+00  0.99999998245E-14  0.12500000000E+03  0.12500000000E+03 0.  0.
        -11    1    3    3    0    0  0.78326447837E+01 -0.11192834803E+02 -0.45497704992E+02  0.47504431741E+02  0.51100000000E-03 0.  1.
         23    2    1    0    0    0 -0.13408081475E+02 -0.25317909540E+02 -0.42005158790E+01  0.96044559649E+02  0.91575869704E+02 0.  0.
         11    1    3    3    0    0 -0.21240726259E+02 -0.14125074736E+02  0.41297189113E+02  0.48540127907E+02  0.51100000000E-03 0. -1.
         22    1    1    0    0    0  0.13408081475E+02  0.25317909540E+02  0.42005158790E+01  0.28955440351E+02  0.00000000000E+00 0. -1.
</event>
<event>
 5    1  0.8863861E-005  0.9118800E+02  0.7818608E-02  0.1130116E+00
         25   -1    0    0    0    0  0.00000000000E+00  0.00000000000E+00  0.99999998245E-14  0.12500000000E+03  0.12500000000E+03 0.  0.
        -11    1    3    3    0    0 -0.38176155666E+02 -0.40283220424E+01 -0.13726308453E+02  0.40768342913E+02  0.51100000000E-03 0. -1.
         23    2    1    0    0    0  0.17540710135E+02 -0.17911388082E+02  0.50130460832E+00  0.99925199076E+02  0.96727967874E+02 0.  0.
         11    1    3    3    0    0  0.55716865801E+02 -0.13883066040E+02  0.14227613062E+02  0.59156856162E+02  0.51100000000E-03 0.  1.
         22    1    1    0    0    0 -0.17540710135E+02  0.17911388082E+02 -0.50130460832E+00  0.25074800924E+02  0.00000000000E+00 0.  1.
</event>
<event>
 5    1  0.8863861E-005  0.9118800E+02  0.7818608E-02  0.1130116E+00
         25   -1    0    0    0    0  0.00000000000E+00  0.00000000000E+00  0.99999998245E-14  0.12500000000E+03  0.12500000000E+03 0.  0.
        -11    1    3    3    0    0 -0.22339192561E+02 -0.27436905552E+02  0.75292801461E+01  0.36173379305E+02  0.51100000000E-03 0. -1.
         23    2    1    0    0    0  0.28382134185E+02  0.11468258735E+01  0.11098079815E+02  0.94503637495E+02  0.89447802509E+02 0.  0.
         11    1    3    3    0    0  0.50721326746E+02  0.28583731426E+02  0.35687996689E+01  0.58330258190E+02  0.51100000000E-03 0.  1.
         22    1    1    0    0    0 -0.28382134185E+02 -0.11468258735E+01 -0.11098079815E+02  0.30496362505E+02  0.00000000000E+00 0.  1.
</event>
<event>
 5    1  0.8863861E-005  0.9118800E+02  0.7818608E-02  0.1130116E+00
         25   -1    0    0    0    0  0.00000000000E+00  0.00000000000E+00  0.99999998245E-14  0.12500000000E+03  0.12500000000E+03 0.  0.
        -11    1    3    3    0    0  0.17493540628E+02 -0.20741832602E+02 -0.27865847802E+02  0.38894126258E+02  0.51100000000E-03 0. -1.
         23    2    1    0    0    0  0.82011925801E+00  0.28739580683E+02 -0.53580750984E+01  0.95753717122E+02  0.91178008755E+02 0.  0.
         11    1    3    3    0    0 -0.16673421370E+02  0.49481413285E+02  0.22507772704E+02  0.56859590864E+02  0.51100000000E-03 0.  1.
         22    1    1    0    0    0 -0.82011925801E+00 -0.28739580683E+02  0.53580750984E+01  0.29246282878E+02  0.00000000000E+00 0.  1.
</event>
<event>
 5    1  0.8863861E-005  0.9118800E+02  0.7818608E-02  0.1130116E+00
         25   -1    0    0    0    0  0.00000000000E+00  0.00000000000E+00  0.99999998245E-14  0.12500000000E+03  0.12500000000E+03 0.  0.
        -11    1    3    3    0    0 -0.64255121766E+01  0.30359147742E+02  0.17373015437E+02  0.35563840119E+02  0.51100000000E-03 0. -1.
         23    2    1    0    0    0  0.21646163266E+02 -0.20159685845E+02  0.20805481115E+01  0.95347040654E+02  0.90618762757E+02 0.  0.
         11    1    3    3    0    0  0.28071675443E+02 -0.50518833587E+02 -0.15292467325E+02  0.59783200536E+02  0.51100000000E-03 0.  1.
         22    1    1    0    0    0 -0.21646163266E+02  0.20159685845E+02 -0.20805481115E+01  0.29652959346E+02  0.00000000000E+00 0.  1.
</event>
<event>
 5    1  0.8863861E-005  0.9118800E+02  0.7818608E-02  0.1130116E+00
         25   -1    0    0    0    0  0.00000000000E+00  0.00000000000E+00  0.99999998245E-14  0.12500000000E+03  0.12500000000E+03 0.  0.
        -11    1    3    3    0    0  0.53995345867E+01 -0.23052201125E+02  0.53621713278E+02  0.58616099201E+02  0.51100000000E-03 0. -1.
         23    2    1    0    0    0 -0.11965651847E+02 -0.15981172219E+02  0.32486350433E+02  0.86869465594E+02  0.78053612335E+02 0.  0.
         11    1    3    3    0    0 -0.17365186434E+02  0.70710289069E+01 -0.21135362845E+02  0.28253366393E+02  0.51100000000E-03 0.  1.
         22    1    1    0    0    0  0.11965651847E+02  0.15981172219E+02 -0.32486350433E+02  0.38130534406E+02  0.00000000000E+00 0. -1.
</event>
<event>
 5    1  0.8863861E-005  0.9118800E+02  0.7818608E-02  0.1130116E+00
         25   -1    0    0    0    0  0.00000000000E+00  0.00000000000E+00  0.99999998245E-14  0.12500000000E+03  0.12500000000E+03 0.  0.
        -11    1    3    3    0    0 -0.18004969856E+02  0.12451667729E+02 -0.29621501063E+02  0.36832815453E+02  0.51100000000E-03 0.  1.
         23    2    1    0    0    0  0.20079818852E+02 -0.22060370279E+02 -0.21945610207E+01  0.95088878990E+02  0.90261950719E+02 0.  0.
         11    1    3    3    0    0  0.38084788708E+02 -0.34512038008E+02  0.27426940042E+02  0.58256063537E+02  0.51100000000E-03 0. -1.
         22    1    1    0    0    0 -0.20079818852E+02  0.22060370279E+02  0.21945610207E+01  0.29911121010E+02  0.00000000000E+00 0. -1.
</event>
<event>
 5    1  0.8863861E-005  0.9118800E+02  0.7818608E-02  0.1130116E+00
         25   -1    0    0    0    0  0.00000000000E+00  0.00000000000E+00  0.99999998245E-14  0.12500000000E+03  0.12500000000E+03 0.  0.
        -11    1    3    3    0    0 -0.25041570673E+02 -0.20270981248E+02 -0.41619066696E+02  0.52632116198E+02  0.51100000000E-03 0. -1.
         23    2    1    0    0    0  0.12266313056E+02 -0.29980077352E+01 -0.25029765314E+02  0.96965385003E+02  0.92824276192E+02 0.  0.
         11    1    3    3    0    0  0.37307883729E+02  0.17272973513E+02  0.16589301382E+02  0.44333268805E+02  0.51100000000E-03 0.  1.
         22    1    1    0    0    0 -0.12266313056E+02  0.29980077352E+01  0.25029765314E+02  0.28034614997E+02  0.00000000000E+00 0. -1.
</event>
<event>
 5    1  0.8863861E-005  0.9118800E+02  0.7818608E-02  0.1130116E+00
         25   -1    0    0    0    0  0.00000000000E+00  0.00000000000E+00  0.99999998245E-14  0.12500000000E+03  0.12500000000E+03 0.  0.
        -11    1    3    3    0    0  0.44450981126E+01 -0.40436644984E+02 -0.18385777908E+02  0.44642109989E+02  0.51100000000E-03 0. -1.
         23    2    1    0    0    0 -0.29830990090E+02 -0.77439004635E+01 -0.60059635028E+01  0.93600516537E+02  0.88176692693E+02 0.  0.
         11    1    3    3    0    0 -0.34276088202E+02  0.32692744520E+02  0.12379814405E+02  0.48958406548E+02  0.51100000000E-03 0.  1.
         22    1    1    0    0    0  0.29830990090E+02  0.77439004635E+01  0.60059635028E+01  0.31399483463E+02  0.00000000000E+00 0.  1.
</event>
<event>
 5    1  0.8863861E-005  0.9118800E+02  0.7818608E-02  0.1130116E+00
         25   -1    0    0    0    0  0.00000000000E+00  0.00000000000E+00  0.99999998245E-14  0.12500000000E+03  0.12500000000E+03 0.  0.
        -11    1    3    3    0    0  0.35859114188E+02  0.49993146235E+02  0.80834201624E+01  0.62052658465E+02  0.51100000000E-03 0.  1.
         23    2    1    0    0    0  0.13239454901E+02  0.23752019820E+02 -0.71839989415E+00  0.97797836299E+02  0.93938592042E+02 0.  0.
         11    1    3    3    0    0 -0.22619659287E+02 -0.26241126415E+02 -0.88018200566E+01  0.35745177834E+02  0.51100000000E-03 0. -1.
         22    1    1    0    0    0 -0.13239454901E+02 -0.23752019820E+02  0.71839989415E+00  0.27202163701E+02  0.00000000000E+00 0.  1.
</event>
<event>
 5    1  0.8863861E-005  0.9118800E+02  0.7818608E-02  0.1130116E+00
         25   -1    0    0    0    0  0.00000000000E+00  0.00000000000E+00  0.99999998245E-14  0.12500000000E+03  0.12500000000E+03 0.  0.
        -11    1    3    3    0    0 -0.29254573570E+02 -0.46013367835E+02 -0.11484051544E+02  0.55722020193E+02  0.51100000000E-03 0.  1.
         23    2    1    0    0    0 -0.19294555113E+02 -0.92803334672E+01 -0.21060285516E+02  0.94967682869E+02  0.90093954943E+02 0.  0.
         11    1    3    3    0    0  0.99600184578E+01  0.36733034368E+02 -0.95762339717E+01  0.39245662676E+02  0.51100000000E-03 0. -1.
         22    1    1    0    0    0  0.19294555113E+02  0.92803334672E+01  0.21060285516E+02  0.30032317131E+02  0.00000000000E+00 0. -1.
</event>
<event>
 5    1  0.8863861E-005  0.9118800E+02  0.7818608E-02  0.1130116E+00
         25   -1    0    0    0    0  0.00000000000E+00  0.00000000000E+00  0.99999998245E-14  0.12500000000E+03  0.12500000000E+03 0.  0.
        -11    1    3    3    0    0  0.37869060487E+02 -0.40288150613E+02  0.21581227463E+02  0.59354445503E+02  0.51100000000E-03 0.  1.
         23    2    1    0    0    0  0.54286305265E+01 -0.25503118335E+02  0.12162237286E+02  0.96228502124E+02  0.91826605791E+02 0.  0.
         11    1    3    3    0    0 -0.32440429960E+02  0.14785032278E+02 -0.94189901767E+01  0.36874056621E+02  0.51100000000E-03 0. -1.
         22    1    1    0    0    0 -0.54286305265E+01  0.25503118335E+02 -0.12162237286E+02  0.28771497876E+02  0.00000000000E+00 0.  1.
</event>
<event>
 5    1  0.8863861E-005  0.9118800E+02  0.7818608E-02  0.1130116E+00
         25   -1    0    0    0    0  0.00000000000E+00  0.00000000000E+00  0.99999998245E-14  0.12500000000E+03  0.12500000000E+03 0.  0.
        -11    1    3    3    0    0  0.26975001480E+02 -0.83644859671E+00 -0.27513282537E+02  0.38539993090E+02  0.51100000000E-03 0. -1.
         23    2    1    0    0    0 -0.10329760720E+02  0.26793976771E+02  0.58319234580E+01  0.95697568720E+02  0.91100999884E+02 0.  0.
         11    1    3    3    0    0 -0.37304762200E+02  0.27630425368E+02  0.33345205995E+02  0.57157575630E+02  0.51100000000E-03 0.  1.
         22    1    1    0    0    0  0.10329760720E+02 -0.26793976771E+02 -0.58319234580E+01  0.29302431280E+02  0.00000000000E+00 0.  1.
</event>
<event>
 5    1  0.8863861E-005  0.9118800E+02  0.7818608E-02  0.1130116E+00
         25   -1    0    0    0    0  0.00000000000E+00  0.00000000000E+00  0.99999998245E-14  0.12500000000E+03  0.12500000000E+03 0.  0.
        -11    1    3    3    0    0  0.48074667357E+01 -0.34644662194E+02 -0.10208573233E+02  0.36435961942E+02  0.51100000000E-03 0. -1.
         23    2    1    0    0    0  0.13450846544E+02  0.24256159315E+02 -0.84948796250E+01  0.95992250737E+02  0.91504440790E+02 0.  0.
         11    1    3    3    0    0  0.86433798087E+01  0.58900821509E+02  0.17136936081E+01  0.59556288795E+02  0.51100000000E-03 0.  1.
         22    1    1    0    0    0 -0.13450846544E+02 -0.24256159315E+02  0.84948796250E+01  0.29007749263E+02  0.00000000000E+00 0.  1.
</event>
<event>
 5    1  0.8863861E-005  0.9118800E+02  0.7818608E-02  0.1130116E+00
         25   -1    0    0    0    0  0.00000000000E+00  0.00000000000E+00  0.99999998245E-14  0.12500000000E+03  0.12500000000E+03 0.  0.
        -11    1    3    3    0    0  0.34958625697E+02 -0.44951387585E+02 -0.11408422071E+02  0.58076543035E+02  0.51100000000E-03 0.  1.
         23    2    1    0    0    0  0.14777051265E+02 -0.29883455975E+02 -0.21632811295E+02  0.85258828532E+02  0.75430147375E+02 0.  0.
         11    1    3    3    0    0 -0.20181574432E+02  0.15067931610E+02 -0.10224389224E+02  0.27182285497E+02  0.51100000000E-03 0. -1.
         22    1    1    0    0    0 -0.14777051265E+02  0.29883455975E+02  0.21632811295E+02  0.39741171468E+02  0.00000000000E+00 0.  1.
</event>
<event>
 5    1  0.8863861E-005  0.9118800E+02  0.7818608E-02  0.1130116E+00
         25   -1    0    0    0    0  0.00000000000E+00  0.00000000000E+00  0.99999998245E-14  0.12500000000E+03  0.12500000000E+03 0.  0.
        -11    1    3    3    0    0 -0.38359174167E+02 -0.24262295789E+02  0.54007130060E+01  0.45708346513E+02  0.51100000000E-03 0.  1.
         23    2    1    0    0    0 -0.78273273861E+01  0.98659290476E+01  0.26144825597E+02  0.95980084158E+02  0.91487819077E+02 0.  0.
         11    1    3    3    0    0  0.30531846781E+02  0.34128224837E+02  0.20744112591E+02  0.50271737645E+02  0.51100000000E-03 0. -1.
         22    1    1    0    0    0  0.78273273861E+01 -0.98659290476E+01 -0.26144825597E+02  0.29019915842E+02  0.00000000000E+00 0.  1.
</event>
<event>
 5    1  0.8863861E-005  0.9118800E+02  0.7818608E-02  0.1130116E+00
         25   -1    0    0    0    0  0.00000000000E+00  0.00000000000E+00  0.99999998245E-14  0.12500000000E+03  0.12500000000E+03 0.  0.
        -11    1    3    3    0    0 -0.32116865326E+02 -0.95039228379E+01 -0.22926636503E+02  0.40588769990E+02  0.51100000000E-03 0.  1.
         23    2    1    0    0    0 -0.89934372260E+01  0.20178984228E+02  0.18233186444E+02  0.96355237730E+02  0.91998964301E+02 0.  0.
         11    1    3    3    0    0  0.23123428100E+02  0.29682907066E+02  0.41159822947E+02  0.55766467740E+02  0.51100000000E-03 0. -1.
         22    1    1    0    0    0  0.89934372260E+01 -0.20178984228E+02 -0.18233186444E+02  0.28644762270E+02  0.00000000000E+00 0. -1.
</event>
<event>
 5    1  0.8863861E-005  0.9118800E+02  0.7818608E-02  0.1130116E+00
         25   -1    0    0    0    0  0.00000000000E+00  0.00000000000E+00  0.99999998245E-14  0.12500000000E+03  0.12500000000E+03 0.  0.
        -11    1    3    3    0    0 -0.89146835182E+01  0.14396017452E+02 -0.31196027410E+02  0.35495197241E+02  0.51100000000E-03 0.  1.
         23    2    1    0    0    0  0.89217869237E+01 -0.29487946691E+01  0.25723208710E+02  0.97614289524E+02  0.93694035995E+02 0.  0.
         11    1    3    3    0    0  0.17836470442E+02 -0.17344812121E+02  0.56919236120E+02  0.62119092284E+02  0.51100000000E-03 0. -1.
         22    1    1    0    0    0 -0.89217869237E+01  0.29487946691E+01 -0.25723208710E+02  0.27385710476E+02  0.00000000000E+00 0. -1.
</event>
<event>
 5    1  0.8863861E-005  0.9118800E+02  0.7818608E-02  0.1130116E+00
         25   -1    0    0    0    0  0.00000000000E+00  0.00000000000E+00  0.99999998245E-14  0.12500000000E+03  0.12500000000E+03 0.  0.
        -11    1    3    3    0    0 -0.21112160606E+02  0.23051693171E+02 -0.16111729150E+02  0.35166627646E+02  0.51100000000E-03 0.  1.
         23    2    1    0    0    0  0.28523406007E+02 -0.47766904234E+01  0.45854998221E+01  0.95718123861E+02  0.91129199300E+02 0.  0.
         11    1    3    3    0    0  0.49635566613E+02 -0.27828383594E+02  0.20697228972E+02  0.60551496215E+02  0.51100000000E-03 0. -1.
         22    1    1    0    0    0 -0.28523406007E+02  0.47766904234E+01 -0.45854998221E+01  0.29281876139E+02  0.00000000000E+00 0. -1.
</event>
<event>
 5    1  0.8863861E-005  0.9118800E+02  0.7818608E-02  0.1130116E+00
         25   -1    0    0    0    0  0.00000000000E+00  0.00000000000E+00  0.99999998245E-14  0.12500000000E+03  0.12500000000E+03 0.  0.
        -11    1    3    3    0    0  0.56625488805E+01  0.16102127785E+02 -0.41260643854E+02  0.44651805233E+02  0.51100000000E-03 0. -1.
         23    2    1    0    0    0  0.14147339770E+02 -0.21838149420E+02 -0.36850143332E+01  0.98720134641E+02  0.95157940605E+02 0.  0.
         11    1    3    3    0    0  0.84847908898E+01 -0.37940277205E+02  0.37575629521E+02  0.54068329408E+02  0.51100000000E-03 0.  1.
         22    1    1    0    0    0 -0.14147339770E+02  0.21838149420E+02  0.36850143332E+01  0.26279865359E+02  0.00000000000E+00 0. -1.
</event>
<event>
 5    1  0.8863861E-005  0.9118800E+02  0.7818608E-02  0.1130116E+00
         25   -1    0    0    0    0  0.00000000000E+00  0.00000000000E+00  0.99999998245E-14  0.12500000000E+03  0.12500000000E+03 0.  0.
        -11    1    3    3    0    0 -0.14743981686E+02  0.14401762382E+02  0.36313763040E+02  0.41755061275E+02  0.51100000000E-03 0. -1.
         23    2    1    0    0    0  0.22217739999E+02 -0.15340465532E+02  0.17688729414E+02  0.92722314183E+02  0.86922830981E+02 0.  0.
         11    1    3    3    0    0  0.36961721684E+02 -0.29742227914E+02 -0.18625033626E+02  0.50967252908E+02  0.51100000000E-03 0.  1.
         22    1    1    0    0    0 -0.22217739999E+02  0.15340465532E+02 -0.17688729414E+02  0.32277685817E+02  0.00000000000E+00 0.  1.
</event>
<event>
 5    1  0.8863861E-005  0.9118800E+02  0.7818608E-02  0.1130116E+00
         25   -1    0    0    0    0  0.00000000000E+00  0.00000000000E+00  0.99999998245E-14  0.12500000000E+03  0.12500000000E+03 0.  0.
        -11    1    3    3    0    0 -0.13784857637E+02 -0.18178767083E+02 -0.35341395942E+02  0.42065474443E+02  0.51100000000E-03 0.  1.
         23    2    1    0    0    0  0.35102852718E+01  0.26700033260E+02 -0.12948594745E+02  0.95118902553E+02  0.90303519522E+02 0.  0.
         11    1    3    3    0    0  0.17295142909E+02  0.44878800344E+02  0.22392801196E+02  0.53053428110E+02  0.51100000000E-03 0. -1.
         22    1    1    0    0    0 -0.35102852718E+01 -0.26700033260E+02  0.12948594745E+02  0.29881097447E+02  0.00000000000E+00 0. -1.
</event>
<event>
 5    1  0.8863861E-005  0.9118800E+02  0.7818608E-02  0.1130116E+00
         25   -1    0    0    0    0  0.00000000000E+00  0.00000000000E+00  0.99999998245E-14  0.12500000000E+03  0.12500000000E+03 0.  0.
        -11    1    3    3    0    0  0.71518837012E+01 -0.31028364615E+02 -0.51280858153E+02  0.60362531957E+02  0.51100000000E-03 0.  1.
         23    2    1    0    0    0  0.59841401590E+01 -0.23124015990E+02 -0.16698225629E+02  0.95856204981E+02  0.91318405841E+02 0.  0.
         11    1    3    3    0    0 -0.11677435422E+01  0.79043486253E+01  0.34582632524E+02  0.35493673024E+02  0.51100000000E-03 0. -1.
         22    1    1    0    0    0 -0.59841401590E+01  0.23124015990E+02  0.16698225629E+02  0.29143795019E+02  0.00000000000E+00 0.  1.
</event>
<event>
 5    1  0.8863861E-005  0.9118800E+02  0.7818608E-02  0.1130116E+00
         25   -1    0    0    0    0  0.00000000000E+00  0.00000000000E+00  0.99999998245E-14  0.12500000000E+03  0.12500000000E+03 0.  0.
        -11    1    3    3    0    0 -0.69568938476E+01 -0.47916596020E+02  0.34168264821E+02  0.59261023172E+02  0.51100000000E-03 0.  1.
         23    2    1    0    0    0  0.91401789312E+01 -0.32245704269E+02  0.17854661607E+02  0.87024781030E+02  0.78301949258E+02 0.  0.
         11    1    3    3    0    0  0.16097072779E+02  0.15670891751E+02 -0.16313603215E+02  0.27763757859E+02  0.51100000000E-03 0. -1.
         22    1    1    0    0    0 -0.91401789312E+01  0.32245704269E+02 -0.17854661607E+02  0.37975218970E+02  0.00000000000E+00 0.  1.
</event>
<event>
 5    1  0.8863861E-005  0.9118800E+02  0.7818608E-02  0.1130116E+00
         25   -1    0    0    0    0  0.00000000000E+00  0.00000000000E+00  0.99999998245E-14  0.12500000000E+03  0.12500000000E+03 0.  0.
        -11    1    3    3    0    0 -0.49796512028E+02  0.17193927861E+02  0.26869492878E+02  0.59137918574E+02  0.51100000000E-03 0.  1.
         23    2    1    0    0    0 -0.17158464946E+02  0.21113035446E+02  0.10790316445E+02  0.95732200048E+02  0.91148505265E+02 0.  0.
         11    1    3    3    0    0  0.32638047082E+02  0.39191075855E+01 -0.16079176434E+02  0.36594281474E+02  0.51100000000E-03 0. -1.
         22    1    1    0    0    0  0.17158464946E+02 -0.21113035446E+02 -0.10790316445E+02  0.29267799952E+02  0.00000000000E+00 0.  1.
</event>
<event>
 5    1  0.8863861E-005  0.9118800E+02  0.7818608E-02  0.1130116E+00
         25   -1    0    0    0    0  0.00000000000E+00  0.00000000000E+00  0.99999998245E-14  0.12500000000E+03  0.12500000000E+03 0.  0.
        -11    1    3    3    0    0 -0.22952634029E+01  0.53919935256E+02 -0.19971708496E+02  0.57545606198E+02  0.51100000000E-03 0.  1.
         23    2    1    0    0    0 -0.17139180521E+02  0.25222940600E+02 -0.21852053628E+01  0.94426754115E+02  0.89340296221E+02 0.  0.
         11    1    3    3    0    0 -0.14843917118E+02 -0.28696994656E+02  0.17786503134E+02  0.36881147917E+02  0.51100000000E-03 0. -1.
         22    1    1    0    0    0  0.17139180521E+02 -0.25222940600E+02  0.21852053628E+01  0.30573245885E+02  0.00000000000E+00 0.  1.
</event>
<event>
 5    1  0.8863861E-005  0.9118800E+02  0.7818608E-02  0.1130116E+00
         25   -1    0    0    0    0  0.00000000000E+00  0.00000000000E+00  0.99999998245E-14  0.12500000000E+03  0.12500000000E+03 0.  0.
        -11    1    3    3    0    0 -0.27704606916E+02 -0.50474784503E+02  0.15226679600E+02  0.59557542653E+02  0.51100000000E-03 0.  1.
         23    2    1    0    0    0 -0.24923174134E+02 -0.23104255768E+02  0.16750775566E+02  0.87111219001E+02  0.78439816103E+02 0.  0.
         11    1    3    3    0    0  0.27814327820E+01  0.27370528734E+02  0.15240959664E+01  0.27553676348E+02  0.51100000000E-03 0. -1.
         22    1    1    0    0    0  0.24923174134E+02  0.23104255768E+02 -0.16750775566E+02  0.37888780999E+02  0.00000000000E+00 0.  1.
</event>
<event>
 5    1  0.8863861E-005  0.9118800E+02  0.7818608E-02  0.1130116E+00
         25   -1    0    0    0    0  0.00000000000E+00  0.00000000000E+00  0.99999998245E-14  0.12500000000E+03  0.12500000000E+03 0.  0.
        -11    1    3    3    0    0 -0.39272062937E+02 -0.11092643365E+02  0.21834124939E+02  0.46282509399E+02  0.51100000000E-03 0.  1.
         23    2    1    0    0    0 -0.21730743805E+01  0.22194198065E+02  0.18123815962E+02  0.96263657418E+02  0.91874448866E+02 0.  0.
         11    1    3    3    0    0  0.37098988556E+02  0.33286841430E+02 -0.37103089770E+01  0.49981148019E+02  0.51100000000E-03 0. -1.
         22    1    1    0    0    0  0.21730743805E+01 -0.22194198065E+02 -0.18123815962E+02  0.28736342582E+02  0.00000000000E+00 0. -1.
</event>
<event>
 5    1  0.8863861E-005  0.9118800E+02  0.7818608E-02  0.1130116E+00
         25   -1    0    0    0    0  0.00000000000E+00  0.00000000000E+00  0.99999998245E-14  0.12500000000E+03  0.12500000000E+03 0.  0.
        -11    1    3    3    0    0  0.34549470621E+02 -0.40500144297E+01  0.11402311103E+02  0.36607120016E+02  0.51100000000E-03 0.  1.
         23    2    1    0    0    0 -0.12318894417E+02 -0.11067871812E+02 -0.24055969788E+02  0.95794818464E+02  0.91234339018E+02 0.  0.
         11    1    3    3    0    0 -0.46868365038E+02 -0.70178573825E+01 -0.35458280891E+02  0.59187698448E+02  0.51100000000E-03 0. -1.
         22    1    1    0    0    0  0.12318894417E+02  0.11067871812E+02  0.24055969788E+02  0.29205181536E+02  0.00000000000E+00 0. -1.
</event>
<event>
 5    1  0.8863861E-005  0.9118800E+02  0.7818608E-02  0.1130116E+00
         25   -1    0    0    0    0  0.00000000000E+00  0.00000000000E+00  0.99999998245E-14  0.12500000000E+03  0.12500000000E+03 0.  0.
        -11    1    3    3    0    0  0.22730801457E+02  0.38782742405E+01 -0.58207379526E+01  0.23782584732E+02  0.51100000000E-03 0.  1.
         23    2    1    0    0    0 -0.12178489571E+02 -0.90115556088E+01 -0.44820687752E+02  0.77688079797E+02  0.61619963886E+02 0.  0.
         11    1    3    3    0    0 -0.34909291028E+02 -0.12889829849E+02 -0.38999949799E+02  0.53905495065E+02  0.51100000000E-03 0. -1.
         22    1    1    0    0    0  0.12178489571E+02  0.90115556088E+01  0.44820687752E+02  0.47311920203E+02  0.00000000000E+00 0. -1.
</event>
<event>
 5    1  0.8863861E-005  0.9118800E+02  0.7818608E-02  0.1130116E+00
         25   -1    0    0    0    0  0.00000000000E+00  0.00000000000E+00  0.99999998245E-14  0.12500000000E+03  0.12500000000E+03 0.  0.
        -11    1    3    3    0    0 -0.34363216525E+02 -0.30418874483E+02  0.30465064344E+02  0.55084105879E+02  0.51100000000E-03 0.  1.
         23    2    1    0    0    0 -0.84345590606E+01 -0.40071379781E+01  0.31535083359E+02  0.92111393709E+02  0.86039807225E+02 0.  0.
         11    1    3    3    0    0  0.25928657464E+02  0.26411736505E+02  0.10700190148E+01  0.37027287830E+02  0.51100000000E-03 0. -1.
         22    1    1    0    0    0  0.84345590606E+01  0.40071379781E+01 -0.31535083359E+02  0.32888606291E+02  0.00000000000E+00 0. -1.
</event>
<event>
 5    1  0.8863861E-005  0.9118800E+02  0.7818608E-02  0.1130116E+00
         25   -1    0    0    0    0  0.00000000000E+00  0.00000000000E+00  0.99999998245E-14  0.12500000000E+03  0.12500000000E+03 0.  0.
        -11    1    3    3    0    0  0.44322291048E+02  0.39147464941E+02  0.17045550097E+02  0.61542995324E+02  0.51100000000E-03 0.  1.
         23    2    1    0    0    0  0.18087811443E+02  0.22413822594E+02  0.19392898016E+01  0.96132904355E+02  0.91696379910E+02 0.  0.
         11    1    3    3    0    0 -0.26234479605E+02 -0.16733642348E+02 -0.15106260296E+02  0.34589909031E+02  0.51100000000E-03 0. -1.
         22    1    1    0    0    0 -0.18087811443E+02 -0.22413822594E+02 -0.19392898016E+01  0.28867095645E+02  0.00000000000E+00 0.  1.
</event>
<event>
 5    1  0.8863861E-005  0.9118800E+02  0.7818608E-02  0.1130116E+00
         25   -1    0    0    0    0  0.00000000000E+00  0.00000000000E+00  0.99999998245E-14  0.12500000000E+03  0.12500000000E+03 0.  0.
        -11    1    3    3    0    0 -0.19168874279E+02 -0.28604866197E+02  0.40407730270E+02  0.53089252934E+02  0.51100000000E-03 0.  1.
         23    2    1    0    0    0 -0.89583548255E+01  0.98684414475E+01  0.26646718144E+02  0.95205942780E+02  0.90423922139E+02 0.  0.
         11    1    3    3    0    0  0.10210519453E+02  0.38473307644E+02 -0.13761012125E+02  0.42116689846E+02  0.51100000000E-03 0. -1.
         22    1    1    0    0    0  0.89583548255E+01 -0.98684414475E+01 -0.26646718144E+02  0.29794057220E+02  0.00000000000E+00 0.  1.
</event>
<event>
 5    1  0.8863861E-005  0.9118800E+02  0.7818608E-02  0.1130116E+00
         25   -1    0    0    0    0  0.00000000000E+00  0.00000000000E+00  0.99999998245E-14  0.12500000000E+03  0.12500000000E+03 0.  0.
        -11    1    3    3    0    0  0.22326448977E+02  0.67443633203E+01  0.41378074670E+02  0.47498440229E+02  0.51100000000E-03 0.  1.
         23    2    1    0    0    0  0.29909055671E+01  0.29097716409E+02  0.35040688697E+01  0.95539838511E+02  0.90884320032E+02 0.  0.
         11    1    3    3    0    0 -0.19335543410E+02  0.22353353089E+02 -0.37874005800E+02  0.48041398282E+02  0.51100000000E-03 0. -1.
         22    1    1    0    0    0 -0.29909055671E+01 -0.29097716409E+02 -0.35040688697E+01  0.29460161489E+02  0.00000000000E+00 0.  1.
</event>
<event>
 5    1  0.8863861E-005  0.9118800E+02  0.7818608E-02  0.1130116E+00
         25   -1    0    0    0    0  0.00000000000E+00  0.00000000000E+00  0.99999998245E-14  0.12500000000E+03  0.12500000000E+03 0.  0.
        -11    1    3    3    0    0 -0.18992301451E+02  0.97253984035E+01  0.24398667172E+02  0.32412742071E+02  0.51100000000E-03 0. -1.
         23    2    1    0    0    0  0.12253315091E+02 -0.17323017734E+02 -0.21923039184E+02  0.94490160256E+02  0.89428966583E+02 0.  0.
         11    1    3    3    0    0  0.31245616543E+02 -0.27048416138E+02 -0.46321706355E+02  0.62077418186E+02  0.51100000000E-03 0.  1.
         22    1    1    0    0    0 -0.12253315091E+02  0.17323017734E+02  0.21923039184E+02  0.30509839744E+02  0.00000000000E+00 0.  1.
</event>
<event>
 5    1  0.8863861E-005  0.9118800E+02  0.7818608E-02  0.1130116E+00
         25   -1    0    0    0    0  0.00000000000E+00  0.00000000000E+00  0.99999998245E-14  0.12500000000E+03  0.12500000000E+03 0.  0.
        -11    1    3    3    0    0  0.35636281160E+02  0.13245248842E+02 -0.15568545991E+02  0.41082365758E+02  0.51100000000E-03 0.  1.
         23    2    1    0    0    0  0.79178052785E+01 -0.22728507521E+02  0.15739445724E+02  0.96242273277E+02  0.91845350014E+02 0.  0.
         11    1    3    3    0    0 -0.27718475881E+02 -0.35973756363E+02  0.31307991715E+02  0.55159907519E+02  0.51100000000E-03 0. -1.
         22    1    1    0    0    0 -0.79178052785E+01  0.22728507521E+02 -0.15739445724E+02  0.28757726723E+02  0.00000000000E+00 0. -1.
</event>
<event>
 5    1  0.8863861E-005  0.9118800E+02  0.7818608E-02  0.1130116E+00
         25   -1    0    0    0    0  0.00000000000E+00  0.00000000000E+00  0.99999998245E-14  0.12500000000E+03  0.12500000000E+03 0.  0.
        -11    1    3    3    0    0  0.12608092103E+02  0.63162689598E+01 -0.36253900599E+02  0.38899929936E+02  0.51100000000E-03 0.  1.
         23    2    1    0    0    0 -0.30327594890E+02  0.14835308592E+02 -0.10711753535E+02  0.89579793103E+02  0.82279695404E+02 0.  0.
         11    1    3    3    0    0 -0.42935686993E+02  0.85190396324E+01  0.25542147064E+02  0.50679863168E+02  0.51100000000E-03 0. -1.
         22    1    1    0    0    0  0.30327594890E+02 -0.14835308592E+02  0.10711753535E+02  0.35420206897E+02  0.00000000000E+00 0. -1.
</event>
<event>
 5    1  0.8863861E-005  0.9118800E+02  0.7818608E-02  0.1130116E+00
         25   -1    0    0    0    0  0.00000000000E+00  0.00000000000E+00  0.99999998245E-14  0.12500000000E+03  0.12500000000E+03 0.  0.
        -11    1    3    3    0    0  0.26050964361E+02 -0.39711037827E+02  0.53644786760E+01  0.47795364850E+02  0.51100000000E-03 0.  1.
         23    2    1    0    0    0 -0.12380115617E+02 -0.14101325016E+02  0.21266170958E+02  0.96638676739E+02  0.92383273295E+02 0.  0.
         11    1    3    3    0    0 -0.38431079978E+02  0.25609712811E+02  0.15901692282E+02  0.48843311888E+02  0.51100000000E-03 0. -1.
         22    1    1    0    0    0  0.12380115617E+02  0.14101325016E+02 -0.21266170958E+02  0.28361323261E+02  0.00000000000E+00 0.  1.
</event>
<event>
 5    1  0.8863861E-005  0.9118800E+02  0.7818608E-02  0.1130116E+00
         25   -1    0    0    0    0  0.00000000000E+00  0.00000000000E+00  0.99999998245E-14  0.12500000000E+03  0.12500000000E+03 0.  0.
        -11    1    3    3    0    0 -0.37704030110E+02  0.47321913888E+02  0.92459752298E+00  0.60512910205E+02  0.51100000000E-03 0.  1.
         23    2    1    0    0    0 -0.20612989857E+02  0.18215351337E+02 -0.95932329174E+01  0.95867123503E+02  0.91333350293E+02 0.  0.
         11    1    3    3    0    0  0.17091040253E+02 -0.29106562552E+02 -0.10517830440E+02  0.35354213298E+02  0.51100000000E-03 0. -1.
         22    1    1    0    0    0  0.20612989857E+02 -0.18215351337E+02  0.95932329174E+01  0.29132876497E+02  0.00000000000E+00 0.  1.
</event>
<event>
 5    1  0.8863861E-005  0.9118800E+02  0.7818608E-02  0.1130116E+00
         25   -1    0    0    0    0  0.00000000000E+00  0.00000000000E+00  0.99999998245E-14  0.12500000000E+03  0.12500000000E+03 0.  0.
        -11    1    3    3    0    0 -0.36480555490E+01  0.53940206843E+02 -0.26186954010E+02  0.60071713677E+02  0.51100000000E-03 0.  1.
         23    2    1    0    0    0 -0.13241401050E+02  0.22062618722E+02 -0.15132293537E+02  0.95149034282E+02  0.90345218858E+02 0.  0.
         11    1    3    3    0    0 -0.95933455011E+01 -0.31877588121E+02  0.11054660473E+02  0.35077320604E+02  0.51100000000E-03 0. -1.
         22    1    1    0    0    0  0.13241401050E+02 -0.22062618722E+02  0.15132293537E+02  0.29850965718E+02  0.00000000000E+00 0.  1.
</event>
<event>
 5    1  0.8863861E-005  0.9118800E+02  0.7818608E-02  0.1130116E+00
         25   -1    0    0    0    0  0.00000000000E+00  0.00000000000E+00  0.99999998245E-14  0.12500000000E+03  0.12500000000E+03 0.  0.
        -11    1    3    3    0    0  0.10274916691E+02  0.48309299107E+02  0.37163195974E+02  0.61809913674E+02  0.51100000000E-03 0.  1.
         23    2    1    0    0    0  0.96473490872E+01  0.16447303739E+02  0.11446595647E+02  0.10276017769E+03  0.10032469497E+03 0.  0.
         11    1    3    3    0    0 -0.62756760390E+00 -0.31861995368E+02 -0.25716600327E+02  0.40950264011E+02  0.51100000000E-03 0. -1.
         22    1    1    0    0    0 -0.96473490872E+01 -0.16447303739E+02 -0.11446595647E+02  0.22239822315E+02  0.00000000000E+00 0.  1.
</event>
<event>
 5    1  0.8863861E-005  0.9118800E+02  0.7818608E-02  0.1130116E+00
         25   -1    0    0    0    0  0.00000000000E+00  0.00000000000E+00  0.99999998245E-14  0.12500000000E+03  0.12500000000E+03 0.  0.
        -11    1    3    3    0    0  0.17497088848E+02 -0.55263778021E+00 -0.32681502699E+02  0.37074710324E+02  0.51100000000E-03 0.  1.
         23    2    1    0    0    0 -0.29954586696E+02  0.11973829734E+01  0.52355053048E+00  0.95016919850E+02  0.90162242444E+02 0.  0.
         11    1    3    3    0    0 -0.47451675544E+02  0.17500207536E+01  0.33205053230E+02  0.57942209526E+02  0.51100000000E-03 0. -1.
         22    1    1    0    0    0  0.29954586696E+02 -0.11973829734E+01 -0.52355053048E+00  0.29983080150E+02  0.00000000000E+00 0. -1.
</event>
<event>
 5    1  0.8863861E-005  0.9118800E+02  0.7818608E-02  0.1130116E+00
         25   -1    0    0    0    0  0.00000000000E+00  0.00000000000E+00  0.99999998245E-14  0.12500000000E+03  0.12500000000E+03 0.  0.
        -11    1    3    3    0    0 -0.38691855037E+02 -0.27471354022E+02 -0.18600103407E+02  0.50967624872E+02  0.51100000000E-03 0. -1.
         23    2    1    0    0    0  0.72271977899E+01 -0.22212752598E+02  0.19712329656E+01  0.10155806055E+03  0.98815561208E+02 0.  0.
         11    1    3    3    0    0  0.45919052827E+02  0.52586014241E+01  0.20571336373E+02  0.50590435676E+02  0.51100000000E-03 0.  1.
         22    1    1    0    0    0 -0.72271977899E+01  0.22212752598E+02 -0.19712329656E+01  0.23441939452E+02  0.00000000000E+00 0. -1.
</event>
<event>
 5    1  0.8863861E-005  0.9118800E+02  0.7818608E-02  0.1130116E+00
         25   -1    0    0    0    0  0.00000000000E+00  0.00000000000E+00  0.99999998245E-14  0.12500000000E+03  0.12500000000E+03 0.  0.
        -11    1    3    3    0    0 -0.18293052305E+02 -0.23840509592E+02  0.16419212218E+02  0.34243191883E+02  0.51100000000E-03 0. -1.
         23    2    1    0    0    0  0.30049272557E+02  0.75405886445E+01  0.10967201014E+02  0.92135144053E+02  0.86074305186E+02 0.  0.
         11    1    3    3    0    0  0.48342324862E+02  0.31381098236E+02 -0.54520112032E+01  0.57891952170E+02  0.51100000000E-03 0.  1.
         22    1    1    0    0    0 -0.30049272557E+02 -0.75405886445E+01 -0.10967201014E+02  0.32864855947E+02  0.00000000000E+00 0.  1.
</event>
<event>
 5    1  0.8863861E-005  0.9118800E+02  0.7818608E-02  0.1130116E+00
         25   -1    0    0    0    0  0.00000000000E+00  0.00000000000E+00  0.99999998245E-14  0.12500000000E+03  0.12500000000E+03 0.  0.
        -11    1    3    3    0    0 -0.54658544102E+02 -0.12541820757E+02  0.24565324938E+02  0.61223434246E+02  0.51100000000E-03 0. -1.
         23    2    1    0    0    0 -0.35879220143E+02 -0.27552347510E+01  0.79318888700E+01  0.88151328143E+02  0.80080160063E+02 0.  0.
         11    1    3    3    0    0  0.18779323960E+02  0.97865860064E+01 -0.16633436068E+02  0.26927893897E+02  0.51100000000E-03 0.  1.
         22    1    1    0    0    0  0.35879220143E+02  0.27552347510E+01 -0.79318888700E+01  0.36848671857E+02  0.00000000000E+00 0. -1.
</event>
<event>
 5    1  0.8863861E-005  0.9118800E+02  0.7818608E-02  0.1130116E+00
         25   -1    0    0    0    0  0.00000000000E+00  0.00000000000E+00  0.99999998245E-14  0.12500000000E+03  0.12500000000E+03 0.  0.
        -11    1    3    3    0    0  0.25510822721E+02  0.24217944544E+02  0.26059066204E+01  0.35271825348E+02  0.51100000000E-03 0. -1.
         23    2    1    0    0    0 -0.28645075952E+02  0.12535438388E+02 -0.10155629492E+02  0.92124258149E+02  0.86058494858E+02 0.  0.
         11    1    3    3    0    0 -0.54155898673E+02 -0.11682506156E+02 -0.12761536113E+02  0.56852432801E+02  0.51100000000E-03 0.  1.
         22    1    1    0    0    0  0.28645075952E+02 -0.12535438388E+02  0.10155629492E+02  0.32875741851E+02  0.00000000000E+00 0.  1.
</event>
<event>
 5    1  0.8863861E-005  0.9118800E+02  0.7818608E-02  0.1130116E+00
         25   -1    0    0    0    0  0.00000000000E+00  0.00000000000E+00  0.99999998245E-14  0.12500000000E+03  0.12500000000E+03 0.  0.
        -11    1    3    3    0    0 -0.29916233056E+02  0.31560787818E+02 -0.12458758445E+00  0.43486547923E+02  0.51100000000E-03 0.  1.
         23    2    1    0    0    0 -0.20843874258E+02 -0.18021299806E+02 -0.11471540915E+02  0.95153214716E+02  0.90351002646E+02 0.  0.
         11    1    3    3    0    0  0.90723587978E+01 -0.49582087624E+02 -0.11346953330E+02  0.51666666793E+02  0.51100000000E-03 0. -1.
         22    1    1    0    0    0  0.20843874258E+02  0.18021299806E+02  0.11471540915E+02  0.29846785284E+02  0.00000000000E+00 0.  1.
</event>
<event>
 5    1  0.8863861E-005  0.9118800E+02  0.7818608E-02  0.1130116E+00
         25   -1    0    0    0    0  0.00000000000E+00  0.00000000000E+00  0.99999998245E-14  0.12500000000E+03  0.12500000000E+03 0.  0.
        -11    1    3    3    0    0  0.12872413458E+02  0.10529095924E+02 -0.41632182705E+02  0.44830787705E+02  0.51100000000E-03 0.  1.
         23    2    1    0    0    0  0.21165432680E+02  0.17903472247E+02  0.83639243300E+01  0.96043738342E+02  0.91574748623E+02 0.  0.
         11    1    3    3    0    0  0.82930192220E+01  0.73743763229E+01  0.49996107035E+02  0.51212950636E+02  0.51100000000E-03 0. -1.
         22    1    1    0    0    0 -0.21165432680E+02 -0.17903472247E+02 -0.83639243300E+01  0.28956261658E+02  0.00000000000E+00 0. -1.
</event>
<event>
 5    1  0.8863861E-005  0.9118800E+02  0.7818608E-02  0.1130116E+00
         25   -1    0    0    0    0  0.00000000000E+00  0.00000000000E+00  0.99999998245E-14  0.12500000000E+03  0.12500000000E+03 0.  0.
        -11    1    3    3    0    0  0.34666415841E+02  0.40526546247E+01 -0.28431394605E+02  0.45016981199E+02  0.51100000000E-03 0.  1.
         23    2    1    0    0    0 -0.81045663116E+01 -0.20831702919E+02 -0.19577370255E+02  0.95286076199E+02  0.90534629008E+02 0.  0.
         11    1    3    3    0    0 -0.42770982153E+02 -0.24884357543E+02  0.88540243503E+01  0.50269095000E+02  0.51100000000E-03 0. -1.
         22    1    1    0    0    0  0.81045663116E+01  0.20831702919E+02  0.19577370255E+02  0.29713923801E+02  0.00000000000E+00 0.  1.
</event>
<event>
 5    1  0.8863861E-005  0.9118800E+02  0.7818608E-02  0.1130116E+00
         25   -1    0    0    0    0  0.00000000000E+00  0.00000000000E+00  0.99999998245E-14  0.12500000000E+03  0.12500000000E+03 0.  0.
        -11    1    3    3    0    0 -0.27125215846E+02  0.74380782321E+01 -0.19515263613E+02  0.34233723967E+02  0.51100000000E-03 0.  1.
         23    2    1    0    0    0  0.26950701171E+02  0.10684303928E+02  0.79037391866E+01  0.94950644979E+02  0.90070312783E+02 0.  0.
         11    1    3    3    0    0  0.54075917017E+02  0.32462256955E+01  0.27419002800E+02  0.60716921013E+02  0.51100000000E-03 0. -1.
         22    1    1    0    0    0 -0.26950701171E+02 -0.10684303928E+02 -0.79037391866E+01  0.30049355021E+02  0.00000000000E+00 0. -1.
</event>
<event>
 5    1  0.8863861E-005  0.9118800E+02  0.7818608E-02  0.1130116E+00
         25   -1    0    0    0    0  0.00000000000E+00  0.00000000000E+00  0.99999998245E-14  0.12500000000E+03  0.12500000000E+03 0.  0.
        -11    1    3    3    0    0  0.74081408273E+01  0.26225987583E+02 -0.15056432978E+02  0.31134854255E+02  0.51100000000E-03 0.  1.
         23    2    1    0    0    0  0.11985579144E+01 -0.23424567911E+02  0.21561859611E+02  0.93139982536E+02  0.87521401006E+02 0.  0.
         11    1    3    3    0    0 -0.62095829128E+01 -0.49650555493E+02  0.36618292589E+02  0.62005128281E+02  0.51100000000E-03 0. -1.
         22    1    1    0    0    0 -0.11985579144E+01  0.23424567911E+02 -0.21561859611E+02  0.31860017464E+02  0.00000000000E+00 0. -1.
</event>
<event>
 5    1  0.8863861E-005  0.9118800E+02  0.7818608E-02  0.1130116E+00
         25   -1    0    0    0    0  0.00000000000E+00  0.00000000000E+00  0.99999998245E-14  0.12500000000E+03  0.12500000000E+03 0.  0.
        -11    1    3    3    0    0  0.21702220717E+02 -0.25076715466E+02  0.16153322824E+02  0.36888451867E+02  0.51100000000E-03 0. -1.
         23    2    1    0    0    0 -0.25910782165E+02 -0.80167447633E+01 -0.12628485377E+02  0.95081519558E+02  0.90251758374E+02 0.  0.
         11    1    3    3    0    0 -0.47613002882E+02  0.17059970703E+02 -0.28781808200E+02  0.58193067692E+02  0.51100000000E-03 0.  1.
         22    1    1    0    0    0  0.25910782165E+02  0.80167447633E+01  0.12628485377E+02  0.29918480442E+02  0.00000000000E+00 0.  1.
</event>
<event>
 5    1  0.8863861E-005  0.9118800E+02  0.7818608E-02  0.1130116E+00
         25   -1    0    0    0    0  0.00000000000E+00  0.00000000000E+00  0.99999998245E-14  0.12500000000E+03  0.12500000000E+03 0.  0.
        -11    1    3    3    0    0 -0.23150347448E+02  0.57039614981E+02 -0.55111985389E+01  0.61804769830E+02  0.51100000000E-03 0. -1.
         23    2    1    0    0    0 -0.15302773953E+02  0.27914947635E+02  0.26584325206E+01  0.93054946305E+02  0.87399865997E+02 0.  0.
         11    1    3    3    0    0  0.78475734948E+01 -0.29124667347E+02  0.81696310595E+01  0.31250176475E+02  0.51100000000E-03 0.  1.
         22    1    1    0    0    0  0.15302773953E+02 -0.27914947635E+02 -0.26584325206E+01  0.31945053695E+02  0.00000000000E+00 0. -1.
</event>
<event>
 5    1  0.8863861E-005  0.9118800E+02  0.7818608E-02  0.1130116E+00
         25   -1    0    0    0    0  0.00000000000E+00  0.00000000000E+00  0.99999998245E-14  0.12500000000E+03  0.12500000000E+03 0.  0.
        -11    1    3    3    0    0 -0.35184887217E+02  0.24982491459E+02  0.22434603079E+02  0.48635507436E+02  0.51100000000E-03 0.  1.
         23    2    1    0    0    0 -0.14765605342E+02  0.12983456055E+02 -0.19824359416E+02  0.97078709584E+02  0.92976757289E+02 0.  0.
         11    1    3    3    0    0  0.20419281875E+02 -0.11999035404E+02 -0.42258962495E+02  0.48443202148E+02  0.51100000000E-03 0. -1.
         22    1    1    0    0    0  0.14765605342E+02 -0.12983456055E+02  0.19824359416E+02  0.27921290416E+02  0.00000000000E+00 0. -1.
</event>
<event>
 4    1  0.8863861E-005  0.9118800E+02  0.7818608E-02  0.1130116E+00
         25   -1    0    0    0    0  0.00000000000E+00  0.00000000000E+00  0.99999998245E-14  0.12500000000E+03  0.12500000000E+03 0.  0.
        -11    1    1    0    0    0 -0.37120136770E+02 -0.10919877074E+02  0.36894815803E+02  0.53463779351E+02  0.51100000000E-03 0. -1.
         11    1    1    0    0    0 -0.92462795832E+01  0.11606674902E+02 -0.10504701269E+02  0.18181235860E+02  0.51100000000E-03 0.  1.
         22    1    1    0    0    0  0.46366416353E+02 -0.68679782734E+00 -0.26390114534E+02  0.53354984788E+02  0.00000000000E+00 0. -1.
</event>
<event>
 5    1  0.8863861E-005  0.9118800E+02  0.7818608E-02  0.1130116E+00
         25   -1    0    0    0    0  0.00000000000E+00  0.00000000000E+00  0.99999998245E-14  0.12500000000E+03  0.12500000000E+03 0.  0.
        -11    1    3    3    0    0  0.34003580843E+02 -0.35945198452E+02 -0.20778198908E+02  0.53665951515E+02  0.51100000000E-03 0.  1.
         23    2    1    0    0    0  0.17907230553E+00 -0.30490459902E+02  0.13960218114E+01  0.94477072735E+02  0.89410671532E+02 0.  0.
         11    1    3    3    0    0 -0.33824508537E+02  0.54547385506E+01  0.22174220720E+02  0.40811121220E+02  0.51100000000E-03 0. -1.
         22    1    1    0    0    0 -0.17907230553E+00  0.30490459902E+02 -0.13960218114E+01  0.30522927265E+02  0.00000000000E+00 0.  1.
</event>
<event>
 5    1  0.8863861E-005  0.9118800E+02  0.7818608E-02  0.1130116E+00
         25   -1    0    0    0    0  0.00000000000E+00  0.00000000000E+00  0.99999998245E-14  0.12500000000E+03  0.12500000000E+03 0.  0.
        -11    1    3    3    0    0  0.78989901775E+01  0.51563186611E+02 -0.13755690463E+02  0.53947894118E+02  0.51100000000E-03 0.  1.
         23    2    1    0    0    0 -0.65356316825E+01  0.22767794212E+02  0.14863062657E+02  0.97035780606E+02  0.92919024702E+02 0.  0.
         11    1    3    3    0    0 -0.14434621860E+02 -0.28795392400E+02  0.28618753120E+02  0.43087886489E+02  0.51100000000E-03 0. -1.
         22    1    1    0    0    0  0.65356316825E+01 -0.22767794212E+02 -0.14863062657E+02  0.27964219394E+02  0.00000000000E+00 0. -1.
</event>
<event>
 5    1  0.8863861E-005  0.9118800E+02  0.7818608E-02  0.1130116E+00
         25   -1    0    0    0    0  0.00000000000E+00  0.00000000000E+00  0.99999998245E-14  0.12500000000E+03  0.12500000000E+03 0.  0.
        -11    1    3    3    0    0  0.26733153493E+02  0.30561017042E+02  0.14188046968E+02  0.43010904842E+02  0.51100000000E-03 0. -1.
         23    2    1    0    0    0  0.22785456844E+02 -0.17802576860E+02 -0.58305331838E+01  0.95502476313E+02  0.90832918472E+02 0.  0.
         11    1    3    3    0    0 -0.39476966489E+01 -0.48363593902E+02 -0.20018580152E+02  0.52491571471E+02  0.51100000000E-03 0.  1.
         22    1    1    0    0    0 -0.22785456844E+02  0.17802576860E+02  0.58305331838E+01  0.29497523687E+02  0.00000000000E+00 0.  1.
</event>
<event>
 5    1  0.8863861E-005  0.9118800E+02  0.7818608E-02  0.1130116E+00
         25   -1    0    0    0    0  0.00000000000E+00  0.00000000000E+00  0.99999998245E-14  0.12500000000E+03  0.12500000000E+03 0.  0.
        -11    1    3    3    0    0  0.48120802949E+02 -0.15167952169E+02 -0.15836874805E+02  0.52881802667E+02  0.51100000000E-03 0. -1.
         23    2    1    0    0    0  0.23857457690E+02 -0.46009528441E+01  0.17214404297E+02  0.95222781026E+02  0.90447195957E+02 0.  0.
         11    1    3    3    0    0 -0.24263345259E+02  0.10566999325E+02  0.33051279102E+02  0.42340978360E+02  0.51100000000E-03 0.  1.
         22    1    1    0    0    0 -0.23857457690E+02  0.46009528441E+01 -0.17214404297E+02  0.29777218974E+02  0.00000000000E+00 0. -1.
</event>
<event>
 5    1  0.8863861E-005  0.9118800E+02  0.7818608E-02  0.1130116E+00
         25   -1    0    0    0    0  0.00000000000E+00  0.00000000000E+00  0.99999998245E-14  0.12500000000E+03  0.12500000000E+03 0.  0.
        -11    1    3    3    0    0 -0.37533283692E+02 -0.23642034144E+02  0.12505083956E+02  0.46087637043E+02  0.51100000000E-03 0. -1.
         23    2    1    0    0    0 -0.19107351522E+02  0.21725514778E+02  0.38693268123E+01  0.95809923526E+02  0.91255032089E+02 0.  0.
         11    1    3    3    0    0  0.18425932169E+02  0.45367548922E+02 -0.86357571439E+01  0.49722286484E+02  0.51100000000E-03 0.  1.
         22    1    1    0    0    0  0.19107351522E+02 -0.21725514778E+02 -0.38693268123E+01  0.29190076474E+02  0.00000000000E+00 0.  1.
</event>
<event>
 5    1  0.8863861E-005  0.9118800E+02  0.7818608E-02  0.1130116E+00
         25   -1    0    0    0    0  0.00000000000E+00  0.00000000000E+00  0.99999998245E-14  0.12500000000E+03  0.12500000000E+03 0.  0.
        -11    1    3    3    0    0 -0.55845967842E+01  0.11886773149E+02 -0.35445102876E+02  0.37799979039E+02  0.51100000000E-03 0.  1.
         23    2    1    0    0    0 -0.37775130656E+02 -0.30584989631E+01 -0.12547990050E+01  0.87080487443E+02  0.78390827657E+02 0.  0.
         11    1    3    3    0    0 -0.32190533872E+02 -0.14945272112E+02  0.34190303872E+02  0.49280508404E+02  0.51100000000E-03 0. -1.
         22    1    1    0    0    0  0.37775130656E+02  0.30584989631E+01  0.12547990050E+01  0.37919512557E+02  0.00000000000E+00 0.  1.
</event>
<event>
 5    1  0.8863861E-005  0.9118800E+02  0.7818608E-02  0.1130116E+00
         25   -1    0    0    0    0  0.00000000000E+00  0.00000000000E+00  0.99999998245E-14  0.12500000000E+03  0.12500000000E+03 0.  0.
        -11    1    3    3    0    0  0.11824155789E+01 -0.43824898501E+02  0.46610786436E+01  0.44087929069E+02  0.51100000000E-03 0. -1.
         23    2    1    0    0    0  0.20775958929E+02  0.92795777785E+00 -0.17581813453E+02  0.97767267134E+02  0.93897906172E+02 0.  0.
         11    1    3    3    0    0  0.19593543350E+02  0.44752856278E+02 -0.22242892096E+02  0.53679338066E+02  0.51100000000E-03 0.  1.
         22    1    1    0    0    0 -0.20775958929E+02 -0.92795777785E+00  0.17581813453E+02  0.27232732866E+02  0.00000000000E+00 0.  1.
</event>
<event>
 5    1  0.8863861E-005  0.9118800E+02  0.7818608E-02  0.1130116E+00
         25   -1    0    0    0    0  0.00000000000E+00  0.00000000000E+00  0.99999998245E-14  0.12500000000E+03  0.12500000000E+03 0.  0.
        -11    1    3    3    0    0 -0.66078403836E+01  0.37766754394E+02 -0.42557279951E+02  0.57281003562E+02  0.51100000000E-03 0.  1.
         23    2    1    0    0    0  0.15078698415E+01  0.29273833457E+02 -0.68131205259E+01  0.94905987173E+02  0.90008315135E+02 0.  0.
         11    1    3    3    0    0  0.81157102251E+01 -0.84929209370E+01  0.35744159425E+02  0.37624983612E+02  0.51100000000E-03 0. -1.
         22    1    1    0    0    0 -0.15078698415E+01 -0.29273833457E+02  0.68131205259E+01  0.30094012827E+02  0.00000000000E+00 0.  1.
</event>
<event>
 5    1  0.8863861E-005  0.9118800E+02  0.7818608E-02  0.1130116E+00
         25   -1    0    0    0    0  0.00000000000E+00  0.00000000000E+00  0.99999998245E-14  0.12500000000E+03  0.12500000000E+03 0.  0.
        -11    1    3    3    0    0 -0.35927193489E+02  0.28470687638E+02 -0.38031845675E+02  0.59563114192E+02  0.51100000000E-03 0.  1.
         23    2    1    0    0    0 -0.25030556450E+02  0.15165860221E+02 -0.72096480004E+01  0.94858482176E+02  0.89942317871E+02 0.  0.
         11    1    3    3    0    0  0.10896637038E+02 -0.13304827418E+02  0.30822197674E+02  0.35295367984E+02  0.51100000000E-03 0. -1.
         22    1    1    0    0    0  0.25030556450E+02 -0.15165860221E+02  0.72096480004E+01  0.30141517824E+02  0.00000000000E+00 0.  1.
</event>
<event>
 5    1  0.8863861E-005  0.9118800E+02  0.7818608E-02  0.1130116E+00
         25   -1    0    0    0    0  0.00000000000E+00  0.00000000000E+00  0.99999998245E-14  0.12500000000E+03  0.12500000000E+03 0.  0.
        -11    1    3    3    0    0 -0.18570338049E+01  0.12495784075E+02  0.45104252285E+02  0.46840012475E+02  0.51100000000E-03 0.  1.
         23    2    1    0    0    0  0.24238452973E+02  0.23411852725E+02  0.33708109039E+02  0.77336029692E+02  0.60901620856E+02 0.  0.
         11    1    3    3    0    0  0.26095486778E+02  0.10916068650E+02 -0.11396143246E+02  0.30496017217E+02  0.51100000000E-03 0. -1.
         22    1    1    0    0    0 -0.24238452973E+02 -0.23411852725E+02 -0.33708109039E+02  0.47663970308E+02  0.00000000000E+00 0.  1.
</event>
<event>
 5    1  0.8863861E-005  0.9118800E+02  0.7818608E-02  0.1130116E+00
         25   -1    0    0    0    0  0.00000000000E+00  0.00000000000E+00  0.99999998245E-14  0.12500000000E+03  0.12500000000E+03 0.  0.
        -11    1    3    3    0    0  0.33582840765E+02 -0.35821767555E+01 -0.23055462790E+02  0.40892463228E+02  0.51100000000E-03 0. -1.
         23    2    1    0    0    0  0.35920427331E+01 -0.21790581728E+02  0.19144452522E+02  0.95772576483E+02  0.91203860230E+02 0.  0.
         11    1    3    3    0    0 -0.29990798032E+02 -0.18208404973E+02  0.42199915313E+02  0.54880113255E+02  0.51100000000E-03 0.  1.
         22    1    1    0    0    0 -0.35920427331E+01  0.21790581728E+02 -0.19144452522E+02  0.29227423517E+02  0.00000000000E+00 0.  1.
</event>
<event>
 5    1  0.8863861E-005  0.9118800E+02  0.7818608E-02  0.1130116E+00
         25   -1    0    0    0    0  0.00000000000E+00  0.00000000000E+00  0.99999998245E-14  0.12500000000E+03  0.12500000000E+03 0.  0.
        -11    1    3    3    0    0 -0.14946381191E+02  0.13398446970E+02 -0.54124046573E+02  0.57726294785E+02  0.51100000000E-03 0.  1.
         23    2    1    0    0    0 -0.17113196203E+02  0.17241849261E+02 -0.16441405960E+02  0.95666355832E+02  0.91058162501E+02 0.  0.
         11    1    3    3    0    0 -0.21668150122E+01  0.38434022907E+01  0.37682640613E+02  0.37940061047E+02  0.51100000000E-03 0. -1.
         22    1    1    0    0    0  0.17113196203E+02 -0.17241849261E+02  0.16441405960E+02  0.29333644168E+02  0.00000000000E+00 0.  1.
</event>
<event>
 5    1  0.8863861E-005  0.9118800E+02  0.7818608E-02  0.1130116E+00
         25   -1    0    0    0    0  0.00000000000E+00  0.00000000000E+00  0.99999998245E-14  0.12500000000E+03  0.12500000000E+03 0.  0.
        -11    1    3    3    0    0  0.13791614867E+02 -0.21727316264E+02 -0.49661535177E+02  0.55933469310E+02  0.51100000000E-03 0. -1.
         23    2    1    0    0    0  0.23156911876E+02 -0.40244910635E+00 -0.16066140350E+02  0.96812673085E+02  0.92618401364E+02 0.  0.
         11    1    3    3    0    0  0.93652970081E+01  0.21324867158E+02  0.33595394828E+02  0.40879203774E+02  0.51100000000E-03 0.  1.
         22    1    1    0    0    0 -0.23156911876E+02  0.40244910635E+00  0.16066140350E+02  0.28187326915E+02  0.00000000000E+00 0. -1.
</event>
<event>
 5    1  0.8863861E-005  0.9118800E+02  0.7818608E-02  0.1130116E+00
         25   -1    0    0    0    0  0.00000000000E+00  0.00000000000E+00  0.99999998245E-14  0.12500000000E+03  0.12500000000E+03 0.  0.
        -11    1    3    3    0    0 -0.31130389023E+02  0.11721295769E+01 -0.51620325483E+02  0.60292064251E+02  0.51100000000E-03 0.  1.
         23    2    1    0    0    0 -0.23488888963E+02 -0.37948835827E+01 -0.17892161262E+02  0.95229906269E+02  0.90457042663E+02 0.  0.
         11    1    3    3    0    0  0.76415000605E+01 -0.49670131596E+01  0.33728164221E+02  0.34937842018E+02  0.51100000000E-03 0. -1.
         22    1    1    0    0    0  0.23488888963E+02  0.37948835827E+01  0.17892161262E+02  0.29770093731E+02  0.00000000000E+00 0.  1.
</event>
<event>
 5    1  0.8863861E-005  0.9118800E+02  0.7818608E-02  0.1130116E+00
         25   -1    0    0    0    0  0.00000000000E+00  0.00000000000E+00  0.99999998245E-14  0.12500000000E+03  0.12500000000E+03 0.  0.
        -11    1    3    3    0    0  0.31818482022E+02 -0.25704659160E+02  0.21612097869E+02  0.46262599098E+02  0.51100000000E-03 0.  1.
         23    2    1    0    0    0  0.15157449652E+02  0.20341524549E+02  0.14602621774E+02  0.95729494989E+02  0.91144795503E+02 0.  0.
         11    1    3    3    0    0 -0.16661032370E+02  0.46046183709E+02 -0.70094760951E+01  0.49466895892E+02  0.51100000000E-03 0. -1.
         22    1    1    0    0    0 -0.15157449652E+02 -0.20341524549E+02 -0.14602621774E+02  0.29270505011E+02  0.00000000000E+00 0.  1.
</event>
<event>
 5    1  0.8863861E-005  0.9118800E+02  0.7818608E-02  0.1130116E+00
         25   -1    0    0    0    0  0.00000000000E+00  0.00000000000E+00  0.99999998245E-14  0.12500000000E+03  0.12500000000E+03 0.  0.
        -11    1    3    3    0    0 -0.10999889964E+02 -0.42326134203E+02 -0.42424344620E+02  0.60928845652E+02  0.51100000000E-03 0. -1.
         23    2    1    0    0    0  0.42810151964E+01 -0.22533651564E+02 -0.18550854081E+02  0.95500394392E+02  0.90830053385E+02 0.  0.
         11    1    3    3    0    0  0.15280905160E+02  0.19792482639E+02  0.23873490539E+02  0.34571548740E+02  0.51100000000E-03 0.  1.
         22    1    1    0    0    0 -0.42810151964E+01  0.22533651564E+02  0.18550854081E+02  0.29499605608E+02  0.00000000000E+00 0. -1.
</event>
<event>
 5    1  0.8863861E-005  0.9118800E+02  0.7818608E-02  0.1130116E+00
         25   -1    0    0    0    0  0.00000000000E+00  0.00000000000E+00  0.99999998245E-14  0.12500000000E+03  0.12500000000E+03 0.  0.
        -11    1    3    3    0    0 -0.39210923499E+02 -0.48399071851E+02 -0.35559157632E+01  0.62390794311E+02  0.51100000000E-03 0.  1.
         23    2    1    0    0    0 -0.16008506609E+02 -0.23848112728E+02 -0.20307566050E+01  0.96205404380E+02  0.91795158342E+02 0.  0.
         11    1    3    3    0    0  0.23202416889E+02  0.24550959123E+02  0.15251591581E+01  0.33814610069E+02  0.51100000000E-03 0. -1.
         22    1    1    0    0    0  0.16008506609E+02  0.23848112728E+02  0.20307566050E+01  0.28794595620E+02  0.00000000000E+00 0.  1.
</event>
<event>
 5    1  0.8863861E-005  0.9118800E+02  0.7818608E-02  0.1130116E+00
         25   -1    0    0    0    0  0.00000000000E+00  0.00000000000E+00  0.99999998245E-14  0.12500000000E+03  0.12500000000E+03 0.  0.
        -11    1    3    3    0    0  0.29566067148E+02 -0.33189528387E+02 -0.23067449317E+02  0.50077982581E+02  0.51100000000E-03 0.  1.
         23    2    1    0    0    0  0.86785995196E+01 -0.22461041212E+02  0.16304060003E+02  0.95920130081E+02  0.91405866990E+02 0.  0.
         11    1    3    3    0    0 -0.20887467628E+02  0.10728487175E+02  0.39371509320E+02  0.45842147499E+02  0.51100000000E-03 0. -1.
         22    1    1    0    0    0 -0.86785995196E+01  0.22461041212E+02 -0.16304060003E+02  0.29079869919E+02  0.00000000000E+00 0. -1.
</event>
<event>
 5    1  0.8863861E-005  0.9118800E+02  0.7818608E-02  0.1130116E+00
         25   -1    0    0    0    0  0.00000000000E+00  0.00000000000E+00  0.99999998245E-14  0.12500000000E+03  0.12500000000E+03 0.  0.
        -11    1    3    3    0    0 -0.17453921073E+02 -0.82068294283E+01  0.39825648145E+02  0.44250126107E+02  0.51100000000E-03 0.  1.
         23    2    1    0    0    0 -0.68735914588E+01  0.27788725001E+02  0.40549161620E+01  0.96088032896E+02  0.91635190970E+02 0.  0.
         11    1    3    3    0    0  0.10580329614E+02  0.35995554429E+02 -0.35770731983E+02  0.51837906789E+02  0.51100000000E-03 0. -1.
         22    1    1    0    0    0  0.68735914588E+01 -0.27788725001E+02 -0.40549161620E+01  0.28911967104E+02  0.00000000000E+00 0. -1.
</event>
<event>
 5    1  0.8863861E-005  0.9118800E+02  0.7818608E-02  0.1130116E+00
         25   -1    0    0    0    0  0.00000000000E+00  0.00000000000E+00  0.99999998245E-14  0.12500000000E+03  0.12500000000E+03 0.  0.
        -11    1    3    3    0    0  0.73729534018E+01  0.33010598269E+02 -0.40911607571E+02  0.53083139265E+02  0.51100000000E-03 0. -1.
         23    2    1    0    0    0  0.24745196654E+02  0.37572523503E+01 -0.15341209525E+02  0.95643664868E+02  0.91027008173E+02 0.  0.
         11    1    3    3    0    0  0.17372243253E+02 -0.29253345919E+02  0.25570398045E+02  0.42560525602E+02  0.51100000000E-03 0.  1.
         22    1    1    0    0    0 -0.24745196654E+02 -0.37572523503E+01  0.15341209525E+02  0.29356335132E+02  0.00000000000E+00 0.  1.
</event>
<event>
 5    1  0.8863861E-005  0.9118800E+02  0.7818608E-02  0.1130116E+00
         25   -1    0    0    0    0  0.00000000000E+00  0.00000000000E+00  0.99999998245E-14  0.12500000000E+03  0.12500000000E+03 0.  0.
        -11    1    3    3    0    0  0.27093649952E+02 -0.14620158458E+02  0.15207044657E+02  0.34337575752E+02  0.51100000000E-03 0. -1.
         23    2    1    0    0    0 -0.25459140847E+02 -0.36927320074E+01 -0.14276257372E+02  0.95578653211E+02  0.90937689121E+02 0.  0.
         11    1    3    3    0    0 -0.52552790799E+02  0.10927426450E+02 -0.29483302029E+02  0.61241077459E+02  0.51100000000E-03 0.  1.
         22    1    1    0    0    0  0.25459140847E+02  0.36927320074E+01  0.14276257372E+02  0.29421346789E+02  0.00000000000E+00 0.  1.
</event>
<event>
 5    1  0.8863861E-005  0.9118800E+02  0.7818608E-02  0.1130116E+00
         25   -1    0    0    0    0  0.00000000000E+00  0.00000000000E+00  0.99999998245E-14  0.12500000000E+03  0.12500000000E+03 0.  0.
        -11    1    3    3    0    0 -0.13869068695E+02  0.12551945891E+02  0.51372952392E+02  0.54672503600E+02  0.51100000000E-03 0.  1.
         23    2    1    0    0    0  0.11174269540E+02  0.18753229758E+02  0.19072081814E+02  0.96012205485E+02  0.91531695993E+02 0.  0.
         11    1    3    3    0    0  0.25043338235E+02  0.62012838669E+01 -0.32300870579E+02  0.41339701885E+02  0.51100000000E-03 0. -1.
         22    1    1    0    0    0 -0.11174269540E+02 -0.18753229758E+02 -0.19072081814E+02  0.28987794515E+02  0.00000000000E+00 0.  1.
</event>
<event>
 5    1  0.8863861E-005  0.9118800E+02  0.7818608E-02  0.1130116E+00
         25   -1    0    0    0    0  0.00000000000E+00  0.00000000000E+00  0.99999998245E-14  0.12500000000E+03  0.12500000000E+03 0.  0.
        -11    1    3    3    0    0  0.11149775666E+02 -0.53962187850E+02 -0.23009460965E+02  0.59713235628E+02  0.51100000000E-03 0. -1.
         23    2    1    0    0    0 -0.11108580399E+01 -0.22518195622E+02 -0.22031448181E+02  0.93477185268E+02  0.88001683604E+02 0.  0.
         11    1    3    3    0    0 -0.12260633706E+02  0.31443992228E+02  0.97801278467E+00  0.33763949641E+02  0.51100000000E-03 0.  1.
         22    1    1    0    0    0  0.11108580399E+01  0.22518195622E+02  0.22031448181E+02  0.31522814732E+02  0.00000000000E+00 0. -1.
</event>
<event>
 5    1  0.8863861E-005  0.9118800E+02  0.7818608E-02  0.1130116E+00
         25   -1    0    0    0    0  0.00000000000E+00  0.00000000000E+00  0.99999998245E-14  0.12500000000E+03  0.12500000000E+03 0.  0.
        -11    1    3    3    0    0  0.16328716149E+02  0.22041906843E+02 -0.20396265908E+02  0.34183040994E+02  0.51100000000E-03 0.  1.
         23    2    1    0    0    0 -0.21265733869E+02 -0.17732048752E+02  0.84520813082E+01  0.96050135262E+02  0.91583480036E+02 0.  0.
         11    1    3    3    0    0 -0.37594450018E+02 -0.39773955595E+02  0.28848347216E+02  0.61867094268E+02  0.51100000000E-03 0. -1.
         22    1    1    0    0    0  0.21265733869E+02  0.17732048752E+02 -0.84520813082E+01  0.28949864738E+02  0.00000000000E+00 0. -1.
</event>
<event>
 5    1  0.8863861E-005  0.9118800E+02  0.7818608E-02  0.1130116E+00
         25   -1    0    0    0    0  0.00000000000E+00  0.00000000000E+00  0.99999998245E-14  0.12500000000E+03  0.12500000000E+03 0.  0.
        -11    1    3    3    0    0  0.28685089662E+02 -0.12565588637E+02  0.30770965225E+02  0.43904221754E+02  0.51100000000E-03 0. -1.
         23    2    1    0    0    0 -0.89137251982E+01  0.19565257685E+02  0.22193296174E+02  0.94100223297E+02  0.88882258209E+02 0.  0.
         11    1    3    3    0    0 -0.37598814860E+02  0.32130846322E+02 -0.85776690507E+01  0.50196001543E+02  0.51100000000E-03 0.  1.
         22    1    1    0    0    0  0.89137251982E+01 -0.19565257685E+02 -0.22193296174E+02  0.30899776703E+02  0.00000000000E+00 0. -1.
</event>
<event>
 5    1  0.8863861E-005  0.9118800E+02  0.7818608E-02  0.1130116E+00
         25   -1    0    0    0    0  0.00000000000E+00  0.00000000000E+00  0.99999998245E-14  0.12500000000E+03  0.12500000000E+03 0.  0.
        -11    1    3    3    0    0 -0.31833134085E+01 -0.31989766313E+02  0.20879691622E+01  0.32215497024E+02  0.51100000000E-03 0. -1.
         23    2    1    0    0    0 -0.79745031650E+01  0.29717901924E+02  0.27062254261E+01  0.94111975596E+02  0.88898784576E+02 0.  0.
         11    1    3    3    0    0 -0.47911897565E+01  0.61707668237E+02  0.61825626396E+00  0.61896478572E+02  0.51100000000E-03 0.  1.
         22    1    1    0    0    0  0.79745031650E+01 -0.29717901924E+02 -0.27062254261E+01  0.30888024404E+02  0.00000000000E+00 0.  1.
</event>
<event>
 5    1  0.8863861E-005  0.9118800E+02  0.7818608E-02  0.1130116E+00
         25   -1    0    0    0    0  0.00000000000E+00  0.00000000000E+00  0.99999998245E-14  0.12500000000E+03  0.12500000000E+03 0.  0.
        -11    1    3    3    0    0 -0.34084608604E+02  0.46396830131E+01 -0.31411894589E+01  0.34542065277E+02  0.51100000000E-03 0.  1.
         23    2    1    0    0    0  0.23241255587E+02 -0.17141924989E+02 -0.38133204208E+01  0.95870239167E+02  0.91337614331E+02 0.  0.
         11    1    3    3    0    0  0.57325864190E+02 -0.21781608002E+02 -0.67213096190E+00  0.61328173890E+02  0.51100000000E-03 0. -1.
         22    1    1    0    0    0 -0.23241255587E+02  0.17141924989E+02  0.38133204208E+01  0.29129760833E+02  0.00000000000E+00 0. -1.
</event>
<event>
 5    1  0.8863861E-005  0.9118800E+02  0.7818608E-02  0.1130116E+00
         25   -1    0    0    0    0  0.00000000000E+00  0.00000000000E+00  0.99999998245E-14  0.12500000000E+03  0.12500000000E+03 0.  0.
        -11    1    3    3    0    0 -0.23557412024E+02 -0.10301328119E+02  0.26486641973E+02  0.36913564248E+02  0.51100000000E-03 0.  1.
         23    2    1    0    0    0 -0.14850847948E+02  0.21204816578E+02 -0.18972267935E+02  0.92904223308E+02  0.87184034243E+02 0.  0.
         11    1    3    3    0    0  0.87065640764E+01  0.31506144696E+02 -0.45458909908E+02  0.55990659059E+02  0.51100000000E-03 0. -1.
         22    1    1    0    0    0  0.14850847948E+02 -0.21204816578E+02  0.18972267935E+02  0.32095776692E+02  0.00000000000E+00 0. -1.
</event>
<event>
 5    1  0.8863861E-005  0.9118800E+02  0.7818608E-02  0.1130116E+00
         25   -1    0    0    0    0  0.00000000000E+00  0.00000000000E+00  0.99999998245E-14  0.12500000000E+03  0.12500000000E+03 0.  0.
        -11    1    3    3    0    0 -0.91034525025E+01 -0.54416022869E+02  0.27078025887E+02  0.61458895845E+02  0.51100000000E-03 0.  1.
         23    2    1    0    0    0  0.26700267238E-02 -0.29363162483E+02  0.70460356984E+01  0.94803279364E+02  0.89865565379E+02 0.  0.
         11    1    3    3    0    0  0.91061225293E+01  0.25052860386E+02 -0.20031990188E+02  0.33344383518E+02  0.51100000000E-03 0. -1.
         22    1    1    0    0    0 -0.26700267238E-02  0.29363162483E+02 -0.70460356984E+01  0.30196720636E+02  0.00000000000E+00 0.  1.
</event>
<event>
 5    1  0.8863861E-005  0.9118800E+02  0.7818608E-02  0.1130116E+00
         25   -1    0    0    0    0  0.00000000000E+00  0.00000000000E+00  0.99999998245E-14  0.12500000000E+03  0.12500000000E+03 0.  0.
        -11    1    3    3    0    0  0.65143812301E+01  0.48427882887E+02 -0.38868314864E+02  0.62437511997E+02  0.51100000000E-03 0. -1.
         23    2    1    0    0    0  0.13392349704E+01  0.23483564110E+02 -0.17633719176E+02  0.95602391499E+02  0.90970313151E+02 0.  0.
         11    1    3    3    0    0 -0.51751462597E+01 -0.24944318777E+02  0.21234595688E+02  0.33164879502E+02  0.51100000000E-03 0.  1.
         22    1    1    0    0    0 -0.13392349704E+01 -0.23483564110E+02  0.17633719176E+02  0.29397608501E+02  0.00000000000E+00 0. -1.
</event>
<event>
 5    1  0.8863861E-005  0.9118800E+02  0.7818608E-02  0.1130116E+00
         25   -1    0    0    0    0  0.00000000000E+00  0.00000000000E+00  0.99999998245E-14  0.12500000000E+03  0.12500000000E+03 0.  0.
        -11    1    3    3    0    0 -0.37050545926E+01 -0.28438048751E+02 -0.35010277909E+02  0.45256707854E+02  0.51100000000E-03 0.  1.
         23    2    1    0    0    0 -0.25991442845E+02  0.91648738204E+01 -0.96062870082E+01  0.95813860080E+02  0.91260424172E+02 0.  0.
         11    1    3    3    0    0 -0.22286388253E+02  0.37602922571E+02  0.25403990901E+02  0.50557152226E+02  0.51100000000E-03 0. -1.
         22    1    1    0    0    0  0.25991442845E+02 -0.91648738204E+01  0.96062870082E+01  0.29186139920E+02  0.00000000000E+00 0. -1.
</event>
<event>
 5    1  0.8863861E-005  0.9118800E+02  0.7818608E-02  0.1130116E+00
         25   -1    0    0    0    0  0.00000000000E+00  0.00000000000E+00  0.99999998245E-14  0.12500000000E+03  0.12500000000E+03 0.  0.
        -11    1    3    3    0    0 -0.63853297892E+01  0.94727861225E+01 -0.54441918753E+02  0.55627588759E+02  0.51100000000E-03 0.  1.
         23    2    1    0    0    0  0.42847263849E+01  0.24320204013E+02 -0.30315807210E+02  0.85899112923E+02  0.76483842939E+02 0.  0.
         11    1    3    3    0    0  0.10670056174E+02  0.14847417890E+02  0.24126111542E+02  0.30271524163E+02  0.51100000000E-03 0. -1.
         22    1    1    0    0    0 -0.42847263849E+01 -0.24320204013E+02  0.30315807210E+02  0.39100887077E+02  0.00000000000E+00 0.  1.
</event>
<event>
 5    1  0.8863861E-005  0.9118800E+02  0.7818608E-02  0.1130116E+00
         25   -1    0    0    0    0  0.00000000000E+00  0.00000000000E+00  0.99999998245E-14  0.12500000000E+03  0.12500000000E+03 0.  0.
        -11    1    3    3    0    0  0.51396239738E+02 -0.21488178714E+02 -0.17277669614E+02  0.58325235972E+02  0.51100000000E-03 0.  1.
         23    2    1    0    0    0  0.14221886717E+02 -0.10655628252E+02 -0.21307052300E+02  0.97254821086E+02  0.93213224768E+02 0.  0.
         11    1    3    3    0    0 -0.37174353022E+02  0.10832550461E+02 -0.40293826858E+01  0.38929585114E+02  0.51100000000E-03 0. -1.
         22    1    1    0    0    0 -0.14221886717E+02  0.10655628252E+02  0.21307052300E+02  0.27745178914E+02  0.00000000000E+00 0.  1.
</event>
<event>
 5    1  0.8863861E-005  0.9118800E+02  0.7818608E-02  0.1130116E+00
         25   -1    0    0    0    0  0.00000000000E+00  0.00000000000E+00  0.99999998245E-14  0.12500000000E+03  0.12500000000E+03 0.  0.
        -11    1    3    3    0    0  0.12116304060E+02  0.26060318333E+02 -0.21427879461E+02  0.35848277980E+02  0.51100000000E-03 0. -1.
         23    2    1    0    0    0  0.90155666559E+01 -0.18374658704E+02  0.19785509627E+02  0.96532915221E+02  0.92240060740E+02 0.  0.
         11    1    3    3    0    0 -0.31007374046E+01 -0.44434977037E+02  0.41213389088E+02  0.60684637241E+02  0.51100000000E-03 0.  1.
         22    1    1    0    0    0 -0.90155666559E+01  0.18374658704E+02 -0.19785509627E+02  0.28467084779E+02  0.00000000000E+00 0.  1.
</event>
<event>
 5    1  0.8863861E-005  0.9118800E+02  0.7818608E-02  0.1130116E+00
         25   -1    0    0    0    0  0.00000000000E+00  0.00000000000E+00  0.99999998245E-14  0.12500000000E+03  0.12500000000E+03 0.  0.
        -11    1    3    3    0    0  0.19254782774E+02 -0.31429023403E+02 -0.55640039501E+01  0.37275840862E+02  0.51100000000E-03 0.  1.
         23    2    1    0    0    0  0.81770786083E+01  0.25487502955E+02  0.84518058256E+01  0.96930257515E+02  0.92776960388E+02 0.  0.
         11    1    3    3    0    0 -0.11077704166E+02  0.56916526358E+02  0.14015809776E+02  0.59654416653E+02  0.51100000000E-03 0. -1.
         22    1    1    0    0    0 -0.81770786083E+01 -0.25487502955E+02 -0.84518058256E+01  0.28069742485E+02  0.00000000000E+00 0. -1.
</event>
<event>
 5    1  0.8863861E-005  0.9118800E+02  0.7818608E-02  0.1130116E+00
         25   -1    0    0    0    0  0.00000000000E+00  0.00000000000E+00  0.99999998245E-14  0.12500000000E+03  0.12500000000E+03 0.  0.
        -11    1    3    3    0    0  0.18706089991E+02 -0.25262303788E+02 -0.13466462814E+02  0.34197184334E+02  0.51100000000E-03 0.  1.
         23    2    1    0    0    0 -0.10519026083E+02  0.26726820010E+02  0.31403531119E+01  0.96106494929E+02  0.91660371657E+02 0.  0.
         11    1    3    3    0    0 -0.29225116074E+02  0.51989123799E+02  0.16606815926E+02  0.61909310595E+02  0.51100000000E-03 0. -1.
         22    1    1    0    0    0  0.10519026083E+02 -0.26726820010E+02 -0.31403531119E+01  0.28893505071E+02  0.00000000000E+00 0. -1.
</event>
<event>
 5    1  0.8863861E-005  0.9118800E+02  0.7818608E-02  0.1130116E+00
         25   -1    0    0    0    0  0.00000000000E+00  0.00000000000E+00  0.99999998245E-14  0.12500000000E+03  0.12500000000E+03 0.  0.
        -11    1    3    3    0    0 -0.32518240308E+02 -0.14205075737E+02  0.28369037297E+02  0.45431513367E+02  0.51100000000E-03 0. -1.
         23    2    1    0    0    0  0.16726767886E+02 -0.14399405348E+02  0.19662997052E+02  0.95440549881E+02  0.90747658208E+02 0.  0.
         11    1    3    3    0    0  0.49245008194E+02 -0.19432961094E+00 -0.87060402445E+01  0.50009036514E+02  0.51100000000E-03 0.  1.
         22    1    1    0    0    0 -0.16726767886E+02  0.14399405348E+02 -0.19662997052E+02  0.29559450119E+02  0.00000000000E+00 0.  1.
</event>
<event>
 5    1  0.8863861E-005  0.9118800E+02  0.7818608E-02  0.1130116E+00
         25   -1    0    0    0    0  0.00000000000E+00  0.00000000000E+00  0.99999998245E-14  0.12500000000E+03  0.12500000000E+03 0.  0.
        -11    1    3    3    0    0 -0.34445546852E+02  0.40897767855E+01  0.12331325824E+02  0.36814176196E+02  0.51100000000E-03 0.  1.
         23    2    1    0    0    0  0.23081932657E+02  0.36943249458E+01  0.19197840334E+02  0.94751351676E+02  0.89793306649E+02 0.  0.
         11    1    3    3    0    0  0.57527479509E+02 -0.39545183967E+00  0.68665145095E+01  0.57937175480E+02  0.51100000000E-03 0. -1.
         22    1    1    0    0    0 -0.23081932657E+02 -0.36943249458E+01 -0.19197840334E+02  0.30248648324E+02  0.00000000000E+00 0. -1.
</event>
<event>
 5    1  0.8863861E-005  0.9118800E+02  0.7818608E-02  0.1130116E+00
         25   -1    0    0    0    0  0.00000000000E+00  0.00000000000E+00  0.99999998245E-14  0.12500000000E+03  0.12500000000E+03 0.  0.
        -11    1    3    3    0    0 -0.29160082911E+02  0.20253027555E+02 -0.27247108017E+02  0.44753775886E+02  0.51100000000E-03 0.  1.
         23    2    1    0    0    0  0.13952724851E+02 -0.14484868454E+02 -0.71307039508E+01  0.10366137578E+03  0.10144133252E+03 0.  0.
         11    1    3    3    0    0  0.43112807761E+02 -0.34737896008E+02  0.20116404067E+02  0.58907599891E+02  0.51100000000E-03 0. -1.
         22    1    1    0    0    0 -0.13952724851E+02  0.14484868454E+02  0.71307039508E+01  0.21338624222E+02  0.00000000000E+00 0. -1.
</event>
<event>
 5    1  0.8863861E-005  0.9118800E+02  0.7818608E-02  0.1130116E+00
         25   -1    0    0    0    0  0.00000000000E+00  0.00000000000E+00  0.99999998245E-14  0.12500000000E+03  0.12500000000E+03 0.  0.
        -11    1    3    3    0    0 -0.24757762475E+01 -0.57565282849E+01 -0.61726800027E+02  0.62044056345E+02  0.51100000000E-03 0. -1.
         23    2    1    0    0    0  0.33048495071E+01 -0.53134410467E+01 -0.24823654590E+02  0.99399833727E+02  0.96046647165E+02 0.  0.
         11    1    3    3    0    0  0.57806257546E+01  0.44308723823E+00  0.36903145437E+02  0.37355777382E+02  0.51100000000E-03 0.  1.
         22    1    1    0    0    0 -0.33048495071E+01  0.53134410467E+01  0.24823654590E+02  0.25600166273E+02  0.00000000000E+00 0. -1.
</event>
<event>
 5    1  0.8863861E-005  0.9118800E+02  0.7818608E-02  0.1130116E+00
         25   -1    0    0    0    0  0.00000000000E+00  0.00000000000E+00  0.99999998245E-14  0.12500000000E+03  0.12500000000E+03 0.  0.
        -11    1    3    3    0    0 -0.15692795970E+02  0.48807334426E+02 -0.29648320049E+01  0.51353772677E+02  0.51100000000E-03 0.  1.
         23    2    1    0    0    0 -0.25856626215E+01  0.23015800416E+02  0.24528597213E+02  0.91264783961E+02  0.84800919749E+02 0.  0.
         11    1    3    3    0    0  0.13107133348E+02 -0.25791534011E+02  0.27493429218E+02  0.39911011283E+02  0.51100000000E-03 0. -1.
         22    1    1    0    0    0  0.25856626215E+01 -0.23015800416E+02 -0.24528597213E+02  0.33735216039E+02  0.00000000000E+00 0.  1.
</event>
<event>
 5    1  0.8863861E-005  0.9118800E+02  0.7818608E-02  0.1130116E+00
         25   -1    0    0    0    0  0.00000000000E+00  0.00000000000E+00  0.99999998245E-14  0.12500000000E+03  0.12500000000E+03 0.  0.
        -11    1    3    3    0    0  0.46773295196E+02 -0.84451484886E+01  0.16718263130E+02  0.50384144319E+02  0.51100000000E-03 0. -1.
         23    2    1    0    0    0  0.18244591091E+02  0.23370533517E+02  0.33334621224E+01  0.95164468990E+02  0.90366571515E+02 0.  0.
         11    1    3    3    0    0 -0.28528704104E+02  0.31815682005E+02 -0.13384801007E+02  0.44780324670E+02  0.51100000000E-03 0.  1.
         22    1    1    0    0    0 -0.18244591091E+02 -0.23370533517E+02 -0.33334621224E+01  0.29835531010E+02  0.00000000000E+00 0. -1.
</event>
<event>
 5    1  0.8863861E-005  0.9118800E+02  0.7818608E-02  0.1130116E+00
         25   -1    0    0    0    0  0.00000000000E+00  0.00000000000E+00  0.99999998245E-14  0.12500000000E+03  0.12500000000E+03 0.  0.
        -11    1    3    3    0    0 -0.29832087793E+01 -0.49016897813E+02  0.36722091426E+02  0.61319391751E+02  0.51100000000E-03 0.  1.
         23    2    1    0    0    0  0.70922952531E+01 -0.21978906600E+02  0.18051287916E+02  0.95687511488E+02  0.91087199277E+02 0.  0.
         11    1    3    3    0    0  0.10075504032E+02  0.27037991212E+02 -0.18670803509E+02  0.34368119737E+02  0.51100000000E-03 0. -1.
         22    1    1    0    0    0 -0.70922952531E+01  0.21978906600E+02 -0.18051287916E+02  0.29312488512E+02  0.00000000000E+00 0.  1.
</event>
<event>
 5    1  0.8863861E-005  0.9118800E+02  0.7818608E-02  0.1130116E+00
         25   -1    0    0    0    0  0.00000000000E+00  0.00000000000E+00  0.99999998245E-14  0.12500000000E+03  0.12500000000E+03 0.  0.
        -11    1    3    3    0    0 -0.23865775323E+02 -0.23899487441E+02 -0.91889459796E+01  0.35002820746E+02  0.51100000000E-03 0.  1.
         23    2    1    0    0    0  0.21297393201E+02  0.16334212043E+02 -0.12101205411E+02  0.95558114656E+02  0.90909453106E+02 0.  0.
         11    1    3    3    0    0  0.45163168524E+02  0.40233699484E+02 -0.29122594312E+01  0.60555293910E+02  0.51100000000E-03 0. -1.
         22    1    1    0    0    0 -0.21297393201E+02 -0.16334212043E+02  0.12101205411E+02  0.29441885344E+02  0.00000000000E+00 0. -1.
</event>
<event>
 5    1  0.8863861E-005  0.9118800E+02  0.7818608E-02  0.1130116E+00
         25   -1    0    0    0    0  0.00000000000E+00  0.00000000000E+00  0.99999998245E-14  0.12500000000E+03  0.12500000000E+03 0.  0.
        -11    1    3    3    0    0  0.43304948329E+00  0.45360512891E+02 -0.90100992675E+01  0.46248735666E+02  0.51100000000E-03 0.  1.
         23    2    1    0    0    0 -0.22300572803E+02  0.19919453561E+02  0.18292875702E+02  0.89946762218E+02  0.82835321902E+02 0.  0.
         11    1    3    3    0    0 -0.22733622286E+02 -0.25441059330E+02  0.27302974970E+02  0.43698026552E+02  0.51100000000E-03 0. -1.
         22    1    1    0    0    0  0.22300572803E+02 -0.19919453561E+02 -0.18292875702E+02  0.35053237782E+02  0.00000000000E+00 0.  1.
</event>
<event>
 5    1  0.8863861E-005  0.9118800E+02  0.7818608E-02  0.1130116E+00
         25   -1    0    0    0    0  0.00000000000E+00  0.00000000000E+00  0.99999998245E-14  0.12500000000E+03  0.12500000000E+03 0.  0.
        -11    1    3    3    0    0  0.14674011581E+02 -0.46467320983E+02 -0.55975775540E+01  0.49049683077E+02  0.51100000000E-03 0. -1.
         23    2    1    0    0    0 -0.81460421736E+01 -0.22019066329E+02  0.22313769807E+02  0.92610161962E+02  0.86761399773E+02 0.  0.
         11    1    3    3    0    0 -0.22820053755E+02  0.24448254653E+02  0.27911347361E+02  0.43560478886E+02  0.51100000000E-03 0.  1.
         22    1    1    0    0    0  0.81460421736E+01  0.22019066329E+02 -0.22313769807E+02  0.32389838038E+02  0.00000000000E+00 0. -1.
</event>
<event>
 5    1  0.8863861E-005  0.9118800E+02  0.7818608E-02  0.1130116E+00
         25   -1    0    0    0    0  0.00000000000E+00  0.00000000000E+00  0.99999998245E-14  0.12500000000E+03  0.12500000000E+03 0.  0.
        -11    1    3    3    0    0 -0.39813384529E+02  0.32001309686E+02 -0.13207517206E+02  0.52760097804E+02  0.51100000000E-03 0. -1.
         23    2    1    0    0    0 -0.28165355197E+02 -0.80425851341E+01 -0.44595051108E+01  0.95371338288E+02  0.90652272845E+02 0.  0.
         11    1    3    3    0    0  0.11648029332E+02 -0.40043894820E+02  0.87480120956E+01  0.42611240484E+02  0.51100000000E-03 0.  1.
         22    1    1    0    0    0  0.28165355197E+02  0.80425851341E+01  0.44595051108E+01  0.29628661712E+02  0.00000000000E+00 0.  1.
</event>
<event>
 5    1  0.8863861E-005  0.9118800E+02  0.7818608E-02  0.1130116E+00
         25   -1    0    0    0    0  0.00000000000E+00  0.00000000000E+00  0.99999998245E-14  0.12500000000E+03  0.12500000000E+03 0.  0.
        -11    1    3    3    0    0  0.11350459850E+02 -0.27898523318E+02 -0.51641501041E+02  0.59782983968E+02  0.51100000000E-03 0.  1.
         23    2    1    0    0    0  0.16551706273E+02 -0.93778787297E+01 -0.16626024014E+02  0.99734840897E+02  0.96481657449E+02 0.  0.
         11    1    3    3    0    0  0.52012464225E+01  0.18520644588E+02  0.35015477027E+02  0.39951856928E+02  0.51100000000E-03 0. -1.
         22    1    1    0    0    0 -0.16551706273E+02  0.93778787297E+01  0.16626024014E+02  0.25265159103E+02  0.00000000000E+00 0.  1.
</event>
<event>
 5    1  0.8863861E-005  0.9118800E+02  0.7818608E-02  0.1130116E+00
         25   -1    0    0    0    0  0.00000000000E+00  0.00000000000E+00  0.99999998245E-14  0.12500000000E+03  0.12500000000E+03 0.  0.
        -11    1    3    3    0    0 -0.32819129857E+02  0.12041578562E+02 -0.11785944755E+02  0.36891779475E+02  0.51100000000E-03 0.  1.
         23    2    1    0    0    0  0.19052955098E+02  0.90029669762E+01  0.18434447812E+02  0.97001832587E+02  0.92873344652E+02 0.  0.
         11    1    3    3    0    0  0.51872084955E+02 -0.30386115860E+01  0.30220392567E+02  0.60110053112E+02  0.51100000000E-03 0. -1.
         22    1    1    0    0    0 -0.19052955098E+02 -0.90029669762E+01 -0.18434447812E+02  0.27998167413E+02  0.00000000000E+00 0. -1.
</event>
<event>
 5    1  0.8863861E-005  0.9118800E+02  0.7818608E-02  0.1130116E+00
         25   -1    0    0    0    0  0.00000000000E+00  0.00000000000E+00  0.99999998245E-14  0.12500000000E+03  0.12500000000E+03 0.  0.
        -11    1    3    3    0    0 -0.24192801005E+02  0.16894693898E+02  0.38894227379E+02  0.48820930205E+02  0.51100000000E-03 0. -1.
         23    2    1    0    0    0  0.17696581381E+02  0.11145011593E+02  0.22796017682E+02  0.94063957943E+02  0.88831241609E+02 0.  0.
         11    1    3    3    0    0  0.41889382385E+02 -0.57496823048E+01 -0.16098209697E+02  0.45243027739E+02  0.51100000000E-03 0.  1.
         22    1    1    0    0    0 -0.17696581381E+02 -0.11145011593E+02 -0.22796017682E+02  0.30936042057E+02  0.00000000000E+00 0.  1.
</event>
<event>
 5    1  0.8863861E-005  0.9118800E+02  0.7818608E-02  0.1130116E+00
         25   -1    0    0    0    0  0.00000000000E+00  0.00000000000E+00  0.99999998245E-14  0.12500000000E+03  0.12500000000E+03 0.  0.
        -11    1    3    3    0    0  0.34454610309E+02 -0.38517668798E+02  0.30810185524E+02  0.60166423472E+02  0.51100000000E-03 0. -1.
         23    2    1    0    0    0  0.17898863993E+02 -0.19899276645E+02  0.21395228275E+01  0.98149895695E+02  0.94405899836E+02 0.  0.
         11    1    3    3    0    0 -0.16555746316E+02  0.18618392152E+02 -0.28670662696E+02  0.37983472223E+02  0.51100000000E-03 0.  1.
         22    1    1    0    0    0 -0.17898863993E+02  0.19899276645E+02 -0.21395228275E+01  0.26850104305E+02  0.00000000000E+00 0. -1.
</event>
<event>
 5    1  0.8863861E-005  0.9118800E+02  0.7818608E-02  0.1130116E+00
         25   -1    0    0    0    0  0.00000000000E+00  0.00000000000E+00  0.99999998245E-14  0.12500000000E+03  0.12500000000E+03 0.  0.
        -11    1    3    3    0    0  0.40769544854E+02  0.22436042182E+02 -0.20934782820E+02  0.51027413303E+02  0.51100000000E-03 0. -1.
         23    2    1    0    0    0  0.21633635554E+02  0.82051526405E+01  0.17314139781E+02  0.96101589084E+02  0.91653681164E+02 0.  0.
         11    1    3    3    0    0 -0.19135909301E+02 -0.14230889541E+02  0.38248922601E+02  0.45074175781E+02  0.51100000000E-03 0.  1.
         22    1    1    0    0    0 -0.21633635554E+02 -0.82051526405E+01 -0.17314139781E+02  0.28898410916E+02  0.00000000000E+00 0. -1.
</event>
<event>
 5    1  0.8863861E-005  0.9118800E+02  0.7818608E-02  0.1130116E+00
         25   -1    0    0    0    0  0.00000000000E+00  0.00000000000E+00  0.99999998245E-14  0.12500000000E+03  0.12500000000E+03 0.  0.
        -11    1    3    3    0    0  0.28995620724E+02 -0.86132160394E+01 -0.30020301346E+02  0.42616334954E+02  0.51100000000E-03 0.  1.
         23    2    1    0    0    0 -0.58471846647E+01 -0.21240535332E+02  0.13016755809E+02  0.99411216491E+02  0.96061460132E+02 0.  0.
         11    1    3    3    0    0 -0.34842805389E+02 -0.12627319293E+02  0.43037057156E+02  0.56794881537E+02  0.51100000000E-03 0. -1.
         22    1    1    0    0    0  0.58471846647E+01  0.21240535332E+02 -0.13016755809E+02  0.25588783509E+02  0.00000000000E+00 0. -1.
</event>
<event>
 5    1  0.8863861E-005  0.9118800E+02  0.7818608E-02  0.1130116E+00
         25   -1    0    0    0    0  0.00000000000E+00  0.00000000000E+00  0.99999998245E-14  0.12500000000E+03  0.12500000000E+03 0.  0.
        -11    1    3    3    0    0  0.13899967986E+02 -0.33124651239E+02 -0.28667251672E+02  0.45959361923E+02  0.51100000000E-03 0. -1.
         23    2    1    0    0    0  0.20270089720E+02 -0.35255733208E+02  0.82681032199E+01  0.83500544676E+02  0.72457823381E+02 0.  0.
         11    1    3    3    0    0  0.63701217338E+01 -0.21310819698E+01  0.36935354892E+02  0.37541182753E+02  0.51100000000E-03 0.  1.
         22    1    1    0    0    0 -0.20270089720E+02  0.35255733208E+02 -0.82681032199E+01  0.41499455324E+02  0.00000000000E+00 0. -1.
</event>
<event>
 5    1  0.8863861E-005  0.9118800E+02  0.7818608E-02  0.1130116E+00
         25   -1    0    0    0    0  0.00000000000E+00  0.00000000000E+00  0.99999998245E-14  0.12500000000E+03  0.12500000000E+03 0.  0.
        -11    1    3    3    0    0 -0.18121338210E+02  0.39085113828E+02 -0.14460755236E+02  0.45443838567E+02  0.51100000000E-03 0.  1.
         23    2    1    0    0    0  0.53438573807E+00 -0.11553419990E+02 -0.22206042555E+02  0.99962519945E+02  0.96776185015E+02 0.  0.
         11    1    3    3    0    0  0.18655723948E+02 -0.50638533818E+02 -0.77452873184E+01  0.54518681378E+02  0.51100000000E-03 0. -1.
         22    1    1    0    0    0 -0.53438573807E+00  0.11553419990E+02  0.22206042555E+02  0.25037480055E+02  0.00000000000E+00 0.  1.
</event>
<event>
 5    1  0.8863861E-005  0.9118800E+02  0.7818608E-02  0.1130116E+00
         25   -1    0    0    0    0  0.00000000000E+00  0.00000000000E+00  0.99999998245E-14  0.12500000000E+03  0.12500000000E+03 0.  0.
        -11    1    3    3    0    0 -0.57533520067E+02 -0.69357488067E+01  0.13608886186E+02  0.59526568239E+02  0.51100000000E-03 0. -1.
         23    2    1    0    0    0 -0.28337294205E+02 -0.97437676251E+00 -0.70458433599E+01  0.95783642226E+02  0.91219025190E+02 0.  0.
         11    1    3    3    0    0  0.29196225862E+02  0.59613720442E+01 -0.20654729546E+02  0.36257073987E+02  0.51100000000E-03 0.  1.
         22    1    1    0    0    0  0.28337294205E+02  0.97437676251E+00  0.70458433599E+01  0.29216357774E+02  0.00000000000E+00 0. -1.
</event>
<event>
 5    1  0.8863861E-005  0.9118800E+02  0.7818608E-02  0.1130116E+00
         25   -1    0    0    0    0  0.00000000000E+00  0.00000000000E+00  0.99999998245E-14  0.12500000000E+03  0.12500000000E+03 0.  0.
        -11    1    3    3    0    0  0.17599883957E+02 -0.36608368568E+02 -0.12110145614E+02  0.42386132067E+02  0.51100000000E-03 0. -1.
         23    2    1    0    0    0 -0.22960724566E+02 -0.47537090481E+01 -0.19521081486E+02  0.94489915688E+02  0.89428624735E+02 0.  0.
         11    1    3    3    0    0 -0.40560608523E+02  0.31854659520E+02 -0.74109358724E+01  0.52103783621E+02  0.51100000000E-03 0.  1.
         22    1    1    0    0    0  0.22960724566E+02  0.47537090481E+01  0.19521081486E+02  0.30510084312E+02  0.00000000000E+00 0.  1.
</event>
<event>
 5    1  0.8863861E-005  0.9118800E+02  0.7818608E-02  0.1130116E+00
         25   -1    0    0    0    0  0.00000000000E+00  0.00000000000E+00  0.99999998245E-14  0.12500000000E+03  0.12500000000E+03 0.  0.
        -11    1    3    3    0    0  0.57266917266E+01 -0.37613779736E+02 -0.23282880150E+02  0.44605873295E+02  0.51100000000E-03 0.  1.
         23    2    1    0    0    0 -0.28015005012E+02 -0.72876942921E+01  0.94533225803E+00  0.96037185099E+02  0.91565802977E+02 0.  0.
         11    1    3    3    0    0 -0.33741696738E+02  0.30326085443E+02  0.24228212408E+02  0.51431311804E+02  0.51100000000E-03 0. -1.
         22    1    1    0    0    0  0.28015005012E+02  0.72876942921E+01 -0.94533225803E+00  0.28962814901E+02  0.00000000000E+00 0. -1.
</event>
<event>
 5    1  0.8863861E-005  0.9118800E+02  0.7818608E-02  0.1130116E+00
         25   -1    0    0    0    0  0.00000000000E+00  0.00000000000E+00  0.99999998245E-14  0.12500000000E+03  0.12500000000E+03 0.  0.
        -11    1    3    3    0    0 -0.10969616426E+02  0.29485788320E+02  0.18534050768E+02  0.36513767753E+02  0.51100000000E-03 0.  1.
         23    2    1    0    0    0  0.25000801625E+01 -0.25667601142E+02 -0.62538242515E+01  0.98463488040E+02  0.94820208870E+02 0.  0.
         11    1    3    3    0    0  0.13469696589E+02 -0.55153389463E+02 -0.24787875020E+02  0.61949720287E+02  0.51100000000E-03 0. -1.
         22    1    1    0    0    0 -0.25000801625E+01  0.25667601142E+02  0.62538242515E+01  0.26536511960E+02  0.00000000000E+00 0. -1.
</event>
<event>
 5    1  0.8863861E-005  0.9118800E+02  0.7818608E-02  0.1130116E+00
         25   -1    0    0    0    0  0.00000000000E+00  0.00000000000E+00  0.99999998245E-14  0.12500000000E+03  0.12500000000E+03 0.  0.
        -11    1    3    3    0    0 -0.22522174493E+02 -0.15629209575E+02  0.37659171960E+02  0.46580401123E+02  0.51100000000E-03 0. -1.
         23    2    1    0    0    0  0.18809326782E+02  0.57641208555E+01  0.21529161525E+02  0.95836312661E+02  0.91291172439E+02 0.  0.
         11    1    3    3    0    0  0.41331501275E+02  0.21393330430E+02 -0.16130010435E+02  0.49255911538E+02  0.51100000000E-03 0.  1.
         22    1    1    0    0    0 -0.18809326782E+02 -0.57641208555E+01 -0.21529161525E+02  0.29163687339E+02  0.00000000000E+00 0.  1.
</event>
<event>
 5    1  0.8863861E-005  0.9118800E+02  0.7818608E-02  0.1130116E+00
         25   -1    0    0    0    0  0.00000000000E+00  0.00000000000E+00  0.99999998245E-14  0.12500000000E+03  0.12500000000E+03 0.  0.
        -11    1    3    3    0    0  0.36729863244E+02  0.41021574513E+01  0.49017750911E+02  0.61389335021E+02  0.51100000000E-03 0.  1.
         23    2    1    0    0    0  0.15418591929E+02 -0.38678804030E+00  0.33466217134E+02  0.88150708672E+02  0.80079193103E+02 0.  0.
         11    1    3    3    0    0 -0.21311271315E+02 -0.44889454916E+01 -0.15551533776E+02  0.26761373652E+02  0.51100000000E-03 0. -1.
         22    1    1    0    0    0 -0.15418591929E+02  0.38678804030E+00 -0.33466217134E+02  0.36849291328E+02  0.00000000000E+00 0.  1.
</event>
<event>
 5    1  0.8863861E-005  0.9118800E+02  0.7818608E-02  0.1130116E+00
         25   -1    0    0    0    0  0.00000000000E+00  0.00000000000E+00  0.99999998245E-14  0.12500000000E+03  0.12500000000E+03 0.  0.
        -11    1    3    3    0    0 -0.18932395530E+02 -0.36619197728E+02 -0.44773684724E+02  0.60861187031E+02  0.51100000000E-03 0.  1.
         23    2    1    0    0    0 -0.44402090277E+01 -0.24209607476E+02 -0.15148761865E+02  0.96098347169E+02  0.91649259638E+02 0.  0.
         11    1    3    3    0    0  0.14492186503E+02  0.12409590252E+02  0.29624922860E+02  0.35237160138E+02  0.51100000000E-03 0. -1.
         22    1    1    0    0    0  0.44402090277E+01  0.24209607476E+02  0.15148761865E+02  0.28901652831E+02  0.00000000000E+00 0.  1.
</event>
<event>
 5    1  0.8863861E-005  0.9118800E+02  0.7818608E-02  0.1130116E+00
         25   -1    0    0    0    0  0.00000000000E+00  0.00000000000E+00  0.99999998245E-14  0.12500000000E+03  0.12500000000E+03 0.  0.
        -11    1    3    3    0    0 -0.11065784478E+02  0.34960817251E+02 -0.20037523639E+02  0.41787709710E+02  0.51100000000E-03 0.  1.
         23    2    1    0    0    0 -0.12066509579E+00 -0.21949415107E+02 -0.11023295784E+02  0.10043774372E+03  0.97388068726E+02 0.  0.
         11    1    3    3    0    0  0.10945119382E+02 -0.56910232358E+02  0.90142278547E+01  0.58650034010E+02  0.51100000000E-03 0. -1.
         22    1    1    0    0    0  0.12066509579E+00  0.21949415107E+02  0.11023295784E+02  0.24562256279E+02  0.00000000000E+00 0. -1.
</event>
<event>
 5    1  0.8863861E-005  0.9118800E+02  0.7818608E-02  0.1130116E+00
         25   -1    0    0    0    0  0.00000000000E+00  0.00000000000E+00  0.99999998245E-14  0.12500000000E+03  0.12500000000E+03 0.  0.
        -11    1    3    3    0    0  0.29962627943E+02  0.26349080903E+02 -0.47195462299E+02  0.61801656932E+02  0.51100000000E-03 0. -1.
         23    2    1    0    0    0  0.11837108352E+02  0.75561151754E+01 -0.26073713815E+02  0.95384960531E+02  0.90671054547E+02 0.  0.
         11    1    3    3    0    0 -0.18125519591E+02 -0.18792965728E+02  0.21121748484E+02  0.33583303598E+02  0.51100000000E-03 0.  1.
         22    1    1    0    0    0 -0.11837108352E+02 -0.75561151754E+01  0.26073713815E+02  0.29615039469E+02  0.00000000000E+00 0. -1.
</event>
<event>
 5    1  0.8863861E-005  0.9118800E+02  0.7818608E-02  0.1130116E+00
         25   -1    0    0    0    0  0.00000000000E+00  0.00000000000E+00  0.99999998245E-14  0.12500000000E+03  0.12500000000E+03 0.  0.
        -11    1    3    3    0    0 -0.29346801209E+02 -0.11908926826E+02  0.15899150277E+02  0.35437836547E+02  0.51100000000E-03 0.  1.
         23    2    1    0    0    0  0.91405897787E+01  0.22541917516E+02 -0.15754466619E+02  0.96019115865E+02  0.91541132647E+02 0.  0.
         11    1    3    3    0    0  0.38487390988E+02  0.34450844341E+02 -0.31653616896E+02  0.60581279318E+02  0.51100000000E-03 0. -1.
         22    1    1    0    0    0 -0.91405897787E+01 -0.22541917516E+02  0.15754466619E+02  0.28980884135E+02  0.00000000000E+00 0. -1.
</event>
<event>
 5    1  0.8863861E-005  0.9118800E+02  0.7818608E-02  0.1130116E+00
         25   -1    0    0    0    0  0.00000000000E+00  0.00000000000E+00  0.99999998245E-14  0.12500000000E+03  0.12500000000E+03 0.  0.
        -11    1    3    3    0    0 -0.33939683230E+02  0.10433198478E+02 -0.11061411659E+02  0.37190167469E+02  0.51100000000E-03 0.  1.
         23    2    1    0    0    0  0.95054039024E+01 -0.27711256105E+02 -0.36943996980E+01  0.95471793021E+02  0.90790683746E+02 0.  0.
         11    1    3    3    0    0  0.43445087132E+02 -0.38144454584E+02  0.73670119612E+01  0.58281625551E+02  0.51100000000E-03 0. -1.
         22    1    1    0    0    0 -0.95054039024E+01  0.27711256105E+02  0.36943996980E+01  0.29528206979E+02  0.00000000000E+00 0. -1.
</event>
<event>
 5    1  0.8863861E-005  0.9118800E+02  0.7818608E-02  0.1130116E+00
         25   -1    0    0    0    0  0.00000000000E+00  0.00000000000E+00  0.99999998245E-14  0.12500000000E+03  0.12500000000E+03 0.  0.
        -11    1    3    3    0    0  0.32218865333E+02  0.29564024964E+02  0.33090684211E+02  0.54836851088E+02  0.51100000000E-03 0.  1.
         23    2    1    0    0    0  0.28189178001E+02 -0.12983167793E+01  0.58883765923E+01  0.96173131253E+02  0.91751200610E+02 0.  0.
         11    1    3    3    0    0 -0.40296873316E+01 -0.30862341743E+02 -0.27202307619E+02  0.41336280166E+02  0.51100000000E-03 0. -1.
         22    1    1    0    0    0 -0.28189178001E+02  0.12983167793E+01 -0.58883765923E+01  0.28826868747E+02  0.00000000000E+00 0. -1.
</event>
<event>
 5    1  0.8863861E-005  0.9118800E+02  0.7818608E-02  0.1130116E+00
         25   -1    0    0    0    0  0.00000000000E+00  0.00000000000E+00  0.99999998245E-14  0.12500000000E+03  0.12500000000E+03 0.  0.
        -11    1    3    3    0    0 -0.14495085094E+02  0.21206808140E+02 -0.25607085626E+02  0.36270636029E+02  0.51100000000E-03 0.  1.
         23    2    1    0    0    0  0.14659920743E+02 -0.20331255529E+02  0.97322690448E+01  0.98111521271E+02  0.94355075740E+02 0.  0.
         11    1    3    3    0    0  0.29155005837E+02 -0.41538063669E+02  0.35339354671E+02  0.61840885243E+02  0.51100000000E-03 0. -1.
         22    1    1    0    0    0 -0.14659920743E+02  0.20331255529E+02 -0.97322690448E+01  0.26888478729E+02  0.00000000000E+00 0. -1.
</event>
<event>
 5    1  0.8863861E-005  0.9118800E+02  0.7818608E-02  0.1130116E+00
         25   -1    0    0    0    0  0.00000000000E+00  0.00000000000E+00  0.99999998245E-14  0.12500000000E+03  0.12500000000E+03 0.  0.
        -11    1    3    3    0    0 -0.30067977512E+02  0.46152289356E+01 -0.18987746393E+02  0.35859700544E+02  0.51100000000E-03 0. -1.
         23    2    1    0    0    0  0.24912388713E+02 -0.14547347126E+02 -0.53568734744E+01  0.95658075843E+02  0.91046795445E+02 0.  0.
         11    1    3    3    0    0  0.54980366225E+02 -0.19162576061E+02  0.13630872919E+02  0.59798375299E+02  0.51100000000E-03 0.  1.
         22    1    1    0    0    0 -0.24912388713E+02  0.14547347126E+02  0.53568734744E+01  0.29341924157E+02  0.00000000000E+00 0.  1.
</event>
<event>
 5    1  0.8863861E-005  0.9118800E+02  0.7818608E-02  0.1130116E+00
         25   -1    0    0    0    0  0.00000000000E+00  0.00000000000E+00  0.99999998245E-14  0.12500000000E+03  0.12500000000E+03 0.  0.
        -11    1    3    3    0    0  0.31895610625E+01  0.38964021624E+02  0.52281115987E+01  0.39442381166E+02  0.51100000000E-03 0. -1.
         23    2    1    0    0    0 -0.25374964021E+02 -0.10731050674E+02 -0.27408503835E+01  0.97313243085E+02  0.93291536440E+02 0.  0.
         11    1    3    3    0    0 -0.28564525083E+02 -0.49695072298E+02 -0.79689619823E+01  0.57870861919E+02  0.51100000000E-03 0.  1.
         22    1    1    0    0    0  0.25374964021E+02  0.10731050674E+02  0.27408503835E+01  0.27686756915E+02  0.00000000000E+00 0.  1.
</event>
<event>
 5    1  0.8863861E-005  0.9118800E+02  0.7818608E-02  0.1130116E+00
         25   -1    0    0    0    0  0.00000000000E+00  0.00000000000E+00  0.99999998245E-14  0.12500000000E+03  0.12500000000E+03 0.  0.
        -11    1    3    3    0    0  0.57446334098E+02 -0.76377501524E+01 -0.17696701442E+02  0.60593644641E+02  0.51100000000E-03 0. -1.
         23    2    1    0    0    0  0.23446583634E+02  0.70553307630E+01 -0.10660587476E+02  0.98294792612E+02  0.94597558917E+02 0.  0.
         11    1    3    3    0    0 -0.33999750464E+02  0.14693080915E+02  0.70361139658E+01  0.37701147972E+02  0.51100000000E-03 0.  1.
         22    1    1    0    0    0 -0.23446583634E+02 -0.70553307630E+01  0.10660587476E+02  0.26705207388E+02  0.00000000000E+00 0. -1.
</event>
<event>
 5    1  0.8863861E-005  0.9118800E+02  0.7818608E-02  0.1130116E+00
         25   -1    0    0    0    0  0.00000000000E+00  0.00000000000E+00  0.99999998245E-14  0.12500000000E+03  0.12500000000E+03 0.  0.
        -11    1    3    3    0    0  0.17691350441E+02 -0.34140173638E+02  0.11790987942E+02  0.40218935010E+02  0.51100000000E-03 0. -1.
         23    2    1    0    0    0 -0.38522740480E+01  0.14560671552E+01 -0.27348802538E+02  0.97342864444E+02  0.93331217237E+02 0.  0.
         11    1    3    3    0    0 -0.21543624489E+02  0.35596240793E+02 -0.39139790481E+02  0.57123929433E+02  0.51100000000E-03 0.  1.
         22    1    1    0    0    0  0.38522740480E+01 -0.14560671552E+01  0.27348802538E+02  0.27657135556E+02  0.00000000000E+00 0.  1.
</event>
<event>
 5    1  0.8863861E-005  0.9118800E+02  0.7818608E-02  0.1130116E+00
         25   -1    0    0    0    0  0.00000000000E+00  0.00000000000E+00  0.99999998245E-14  0.12500000000E+03  0.12500000000E+03 0.  0.
        -11    1    3    3    0    0  0.35739302448E+02  0.14079469801E+02  0.51332553186E+01  0.38754090362E+02  0.51100000000E-03 0.  1.
         23    2    1    0    0    0  0.42023219026E-01 -0.24932081251E+02 -0.15641362913E+02  0.95567659365E+02  0.90922576081E+02 0.  0.
         11    1    3    3    0    0 -0.35697279229E+02 -0.39011551052E+02 -0.20774618232E+02  0.56813569003E+02  0.51100000000E-03 0. -1.
         22    1    1    0    0    0 -0.42023219026E-01  0.24932081251E+02  0.15641362913E+02  0.29432340635E+02  0.00000000000E+00 0. -1.
</event>
<event>
 5    1  0.8863861E-005  0.9118800E+02  0.7818608E-02  0.1130116E+00
         25   -1    0    0    0    0  0.00000000000E+00  0.00000000000E+00  0.99999998245E-14  0.12500000000E+03  0.12500000000E+03 0.  0.
        -11    1    3    3    0    0 -0.34730449509E+02  0.20518327578E+01  0.28677192825E+01  0.34908995330E+02  0.51100000000E-03 0.  1.
         23    2    1    0    0    0  0.19197810458E+02  0.12490411788E+02 -0.20177159242E+02  0.94476499741E+02  0.89409870457E+02 0.  0.
         11    1    3    3    0    0  0.53928259967E+02  0.10438579030E+02 -0.23044878524E+02  0.59567504411E+02  0.51100000000E-03 0. -1.
         22    1    1    0    0    0 -0.19197810458E+02 -0.12490411788E+02  0.20177159242E+02  0.30523500259E+02  0.00000000000E+00 0. -1.
</event>
<event>
 5    1  0.8863861E-005  0.9118800E+02  0.7818608E-02  0.1130116E+00
         25   -1    0    0    0    0  0.00000000000E+00  0.00000000000E+00  0.99999998245E-14  0.12500000000E+03  0.12500000000E+03 0.  0.
        -11    1    3    3    0    0 -0.11553774815E+01  0.39629953779E+02  0.27886357729E+02  0.48471817392E+02  0.51100000000E-03 0. -1.
         23    2    1    0    0    0 -0.12431678220E+02 -0.72202080900E+01  0.24265200885E+02  0.96795780419E+02  0.92595599813E+02 0.  0.
         11    1    3    3    0    0 -0.11276300739E+02 -0.46850161869E+02 -0.36211568444E+01  0.48323963027E+02  0.51100000000E-03 0.  1.
         22    1    1    0    0    0  0.12431678220E+02  0.72202080900E+01 -0.24265200885E+02  0.28204219581E+02  0.00000000000E+00 0.  1.
</event>
<event>
 5    1  0.8863861E-005  0.9118800E+02  0.7818608E-02  0.1130116E+00
         25   -1    0    0    0    0  0.00000000000E+00  0.00000000000E+00  0.99999998245E-14  0.12500000000E+03  0.12500000000E+03 0.  0.
        -11    1    3    3    0    0  0.15295715731E+02 -0.33240585908E+02 -0.11849941274E+02  0.38461884765E+02  0.51100000000E-03 0.  1.
         23    2    1    0    0    0 -0.82903336081E+01  0.97030313097E+00  0.27846623409E+02  0.95929300752E+02  0.91418407271E+02 0.  0.
         11    1    3    3    0    0 -0.23586049339E+02  0.34210889039E+02  0.39696564683E+02  0.57467415986E+02  0.51100000000E-03 0. -1.
         22    1    1    0    0    0  0.82903336081E+01 -0.97030313097E+00 -0.27846623409E+02  0.29070699248E+02  0.00000000000E+00 0. -1.
</event>
<event>
 5    1  0.8863861E-005  0.9118800E+02  0.7818608E-02  0.1130116E+00
         25   -1    0    0    0    0  0.00000000000E+00  0.00000000000E+00  0.99999998245E-14  0.12500000000E+03  0.12500000000E+03 0.  0.
        -11    1    3    3    0    0 -0.33067764963E+02 -0.37977077215E+02 -0.28052209131E+02  0.57642535604E+02  0.51100000000E-03 0.  1.
         23    2    1    0    0    0 -0.46644672033E+01 -0.28299863904E+02 -0.41204526841E+01  0.96023842878E+02  0.91547587185E+02 0.  0.
         11    1    3    3    0    0  0.28403297760E+02  0.96772133112E+01  0.23931756447E+02  0.38381307274E+02  0.51100000000E-03 0. -1.
         22    1    1    0    0    0  0.46644672033E+01  0.28299863904E+02  0.41204526841E+01  0.28976157122E+02  0.00000000000E+00 0.  1.
</event>
<event>
 5    1  0.8863861E-005  0.9118800E+02  0.7818608E-02  0.1130116E+00
         25   -1    0    0    0    0  0.00000000000E+00  0.00000000000E+00  0.99999998245E-14  0.12500000000E+03  0.12500000000E+03 0.  0.
        -11    1    3    3    0    0  0.31497475778E+02 -0.17132101245E+00  0.22089719622E+02  0.38471756452E+02  0.51100000000E-03 0.  1.
         23    2    1    0    0    0  0.18292518905E+02 -0.70984196499E+01 -0.28042396688E+02  0.90774573466E+02  0.84075224451E+02 0.  0.
         11    1    3    3    0    0 -0.13204956873E+02 -0.69270986375E+01 -0.50132116311E+02  0.52302817014E+02  0.51100000000E-03 0. -1.
         22    1    1    0    0    0 -0.18292518905E+02  0.70984196499E+01  0.28042396688E+02  0.34225426534E+02  0.00000000000E+00 0. -1.
</event>
<event>
 5    1  0.8863861E-005  0.9118800E+02  0.7818608E-02  0.1130116E+00
         25   -1    0    0    0    0  0.00000000000E+00  0.00000000000E+00  0.99999998245E-14  0.12500000000E+03  0.12500000000E+03 0.  0.
        -11    1    3    3    0    0  0.11371207457E+02  0.44168010889E+02  0.40456201482E+02  0.60965742705E+02  0.51100000000E-03 0.  1.
         23    2    1    0    0    0  0.11745367715E+02  0.16950271099E+02  0.26088747525E+02  0.91745104112E+02  0.85505999953E+02 0.  0.
         11    1    3    3    0    0  0.37416025831E+00 -0.27217739790E+02 -0.14367453956E+02  0.30779361407E+02  0.51100000000E-03 0. -1.
         22    1    1    0    0    0 -0.11745367715E+02 -0.16950271099E+02 -0.26088747525E+02  0.33254895888E+02  0.00000000000E+00 0.  1.
</event>
<event>
 5    1  0.8863861E-005  0.9118800E+02  0.7818608E-02  0.1130116E+00
         25   -1    0    0    0    0  0.00000000000E+00  0.00000000000E+00  0.99999998245E-14  0.12500000000E+03  0.12500000000E+03 0.  0.
        -11    1    3    3    0    0 -0.33618976014E+02  0.14180723166E+02 -0.49858546486E+01  0.36826447080E+02  0.51100000000E-03 0.  1.
         23    2    1    0    0    0  0.22775441568E+02 -0.10187325589E+02 -0.92074081681E+01  0.98405287999E+02  0.94743453598E+02 0.  0.
         11    1    3    3    0    0  0.56394417582E+02 -0.24368048755E+02 -0.42215535195E+01  0.61578840918E+02  0.51100000000E-03 0. -1.
         22    1    1    0    0    0 -0.22775441568E+02  0.10187325589E+02  0.92074081681E+01  0.26594712001E+02  0.00000000000E+00 0. -1.
</event>
<event>
 5    1  0.8863861E-005  0.9118800E+02  0.7818608E-02  0.1130116E+00
         25   -1    0    0    0    0  0.00000000000E+00  0.00000000000E+00  0.99999998245E-14  0.12500000000E+03  0.12500000000E+03 0.  0.
        -11    1    3    3    0    0  0.15848432238E+02 -0.28102973645E+02  0.27532733185E+02  0.42414635788E+02  0.51100000000E-03 0.  1.
         23    2    1    0    0    0 -0.38282220041E+01 -0.18113895128E+02 -0.21764940396E+02  0.96425866402E+02  0.92094878254E+02 0.  0.
         11    1    3    3    0    0 -0.19676654243E+02  0.99890785173E+01 -0.49297673581E+02  0.54011230615E+02  0.51100000000E-03 0. -1.
         22    1    1    0    0    0  0.38282220041E+01  0.18113895128E+02  0.21764940396E+02  0.28574133598E+02  0.00000000000E+00 0. -1.
</event>
<event>
 5    1  0.8863861E-005  0.9118800E+02  0.7818608E-02  0.1130116E+00
         25   -1    0    0    0    0  0.00000000000E+00  0.00000000000E+00  0.99999998245E-14  0.12500000000E+03  0.12500000000E+03 0.  0.
        -11    1    3    3    0    0 -0.23027599830E+02  0.28190434794E+02  0.33106035427E+02  0.49203460749E+02  0.51100000000E-03 0.  1.
         23    2    1    0    0    0 -0.26437053699E+02  0.76124912044E+01 -0.88848859860E+01  0.96089638024E+02  0.91637380506E+02 0.  0.
         11    1    3    3    0    0 -0.34094538692E+01 -0.20577943590E+02 -0.41990921413E+02  0.46886177274E+02  0.51100000000E-03 0. -1.
         22    1    1    0    0    0  0.26437053699E+02 -0.76124912044E+01  0.88848859860E+01  0.28910361976E+02  0.00000000000E+00 0.  1.
</event>
<event>
 5    1  0.8863861E-005  0.9118800E+02  0.7818608E-02  0.1130116E+00
         25   -1    0    0    0    0  0.00000000000E+00  0.00000000000E+00  0.99999998245E-14  0.12500000000E+03  0.12500000000E+03 0.  0.
        -11    1    3    3    0    0 -0.27470965624E+02  0.28655451190E+02  0.36662059170E+01  0.39865146448E+02  0.51100000000E-03 0.  1.
         23    2    1    0    0    0 -0.41373702997E+00 -0.17062739470E+02  0.22965296677E+02  0.96386836805E+02  0.92041888297E+02 0.  0.
         11    1    3    3    0    0  0.27057228594E+02 -0.45718190660E+02  0.19299090760E+02  0.56521690357E+02  0.51100000000E-03 0. -1.
         22    1    1    0    0    0  0.41373702997E+00  0.17062739470E+02 -0.22965296677E+02  0.28613163195E+02  0.00000000000E+00 0. -1.
</event>
<event>
 5    1  0.8863861E-005  0.9118800E+02  0.7818608E-02  0.1130116E+00
         25   -1    0    0    0    0  0.00000000000E+00  0.00000000000E+00  0.99999998245E-14  0.12500000000E+03  0.12500000000E+03 0.  0.
        -11    1    3    3    0    0  0.49819136708E+00 -0.36790544235E+02 -0.23460679953E+02  0.43637092523E+02  0.51100000000E-03 0.  1.
         23    2    1    0    0    0 -0.58411858541E+01  0.15549085291E+02 -0.23332184376E+02  0.96359393629E+02  0.92004610793E+02 0.  0.
         11    1    3    3    0    0 -0.63393772212E+01  0.52339629526E+02  0.12849557651E+00  0.52722301105E+02  0.51100000000E-03 0. -1.
         22    1    1    0    0    0  0.58411858541E+01 -0.15549085291E+02  0.23332184376E+02  0.28640606371E+02  0.00000000000E+00 0. -1.
</event>
<event>
 5    1  0.8863861E-005  0.9118800E+02  0.7818608E-02  0.1130116E+00
         25   -1    0    0    0    0  0.00000000000E+00  0.00000000000E+00  0.99999998245E-14  0.12500000000E+03  0.12500000000E+03 0.  0.
        -11    1    3    3    0    0 -0.33636499604E+02  0.75004875553E+01 -0.13133358782E+02  0.36880300058E+02  0.51100000000E-03 0.  1.
         23    2    1    0    0    0  0.14203797439E+02 -0.16770622670E+02  0.15896397133E+02  0.97876263380E+02  0.94042893644E+02 0.  0.
         11    1    3    3    0    0  0.47840297044E+02 -0.24271110226E+02  0.29029755915E+02  0.60995963322E+02  0.51100000000E-03 0. -1.
         22    1    1    0    0    0 -0.14203797439E+02  0.16770622670E+02 -0.15896397133E+02  0.27123736620E+02  0.00000000000E+00 0. -1.
</event>
<event>
 5    1  0.8863861E-005  0.9118800E+02  0.7818608E-02  0.1130116E+00
         25   -1    0    0    0    0  0.00000000000E+00  0.00000000000E+00  0.99999998245E-14  0.12500000000E+03  0.12500000000E+03 0.  0.
        -11    1    3    3    0    0 -0.78224913290E+01  0.43504848192E+02  0.37362292513E+02  0.57877492075E+02  0.51100000000E-03 0.  1.
         23    2    1    0    0    0 -0.20487848309E+01  0.30335741364E+02  0.38399466504E+01  0.94353631314E+02  0.89237928195E+02 0.  0.
         11    1    3    3    0    0  0.57737064981E+01 -0.13169106828E+02 -0.33522345863E+02  0.36476139239E+02  0.51100000000E-03 0. -1.
         22    1    1    0    0    0  0.20487848309E+01 -0.30335741364E+02 -0.38399466504E+01  0.30646368686E+02  0.00000000000E+00 0.  1.
</event>
<event>
 5    1  0.8863861E-005  0.9118800E+02  0.7818608E-02  0.1130116E+00
         25   -1    0    0    0    0  0.00000000000E+00  0.00000000000E+00  0.99999998245E-14  0.12500000000E+03  0.12500000000E+03 0.  0.
        -11    1    3    3    0    0 -0.33676971345E+02  0.22615606262E+02 -0.37436383131E+02  0.55200424163E+02  0.51100000000E-03 0.  1.
         23    2    1    0    0    0 -0.11407268395E+02  0.27397682003E+02 -0.48948167259E+01  0.94921469747E+02  0.90029814155E+02 0.  0.
         11    1    3    3    0    0  0.22269702950E+02  0.47820757412E+01  0.32541566405E+02  0.39721045584E+02  0.51100000000E-03 0. -1.
         22    1    1    0    0    0  0.11407268395E+02 -0.27397682003E+02  0.48948167259E+01  0.30078530253E+02  0.00000000000E+00 0.  1.
</event>
<event>
 5    1  0.8863861E-005  0.9118800E+02  0.7818608E-02  0.1130116E+00
         25   -1    0    0    0    0  0.00000000000E+00  0.00000000000E+00  0.99999998245E-14  0.12500000000E+03  0.12500000000E+03 0.  0.
        -11    1    3    3    0    0  0.16911685429E+01  0.22059221183E+01  0.41680967583E+02  0.41773546682E+02  0.51100000000E-03 0.  1.
         23    2    1    0    0    0 -0.11416420073E+02  0.25121601443E+02 -0.64436885577E+01  0.96663616523E+02  0.92417012128E+02 0.  0.
         11    1    3    3    0    0 -0.13107588616E+02  0.22915679324E+02 -0.48124656141E+02  0.54890069841E+02  0.51100000000E-03 0. -1.
         22    1    1    0    0    0  0.11416420073E+02 -0.25121601443E+02  0.64436885577E+01  0.28336383477E+02  0.00000000000E+00 0. -1.
</event>
<event>
 5    1  0.8863861E-005  0.9118800E+02  0.7818608E-02  0.1130116E+00
         25   -1    0    0    0    0  0.00000000000E+00  0.00000000000E+00  0.99999998245E-14  0.12500000000E+03  0.12500000000E+03 0.  0.
        -11    1    3    3    0    0 -0.35466509025E+02 -0.22934751244E+02 -0.28678085032E+01  0.42333206858E+02  0.51100000000E-03 0.  1.
         23    2    1    0    0    0  0.11789361629E+01  0.73119094338E+00  0.28754467023E+02  0.96212087529E+02  0.91804258519E+02 0.  0.
         11    1    3    3    0    0  0.36645445187E+02  0.23665942188E+02  0.31622275526E+02  0.53878880671E+02  0.51100000000E-03 0. -1.
         22    1    1    0    0    0 -0.11789361629E+01 -0.73119094338E+00 -0.28754467023E+02  0.28787912471E+02  0.00000000000E+00 0. -1.
</event>
<event>
 5    1  0.8863861E-005  0.9118800E+02  0.7818608E-02  0.1130116E+00
         25   -1    0    0    0    0  0.00000000000E+00  0.00000000000E+00  0.99999998245E-14  0.12500000000E+03  0.12500000000E+03 0.  0.
        -11    1    3    3    0    0  0.13718352545E+02 -0.55769391731E+02  0.18406786193E+02  0.60309435654E+02  0.51100000000E-03 0.  1.
         23    2    1    0    0    0  0.15996706062E+02 -0.24999107867E+02  0.20032466676E+01  0.95253353194E+02  0.90489437497E+02 0.  0.
         11    1    3    3    0    0  0.22783535173E+01  0.30770283864E+02 -0.16403539526E+02  0.34943917540E+02  0.51100000000E-03 0. -1.
         22    1    1    0    0    0 -0.15996706062E+02  0.24999107867E+02 -0.20032466676E+01  0.29746646806E+02  0.00000000000E+00 0.  1.
</event>
<event>
 5    1  0.8863861E-005  0.9118800E+02  0.7818608E-02  0.1130116E+00
         25   -1    0    0    0    0  0.00000000000E+00  0.00000000000E+00  0.99999998245E-14  0.12500000000E+03  0.12500000000E+03 0.  0.
        -11    1    3    3    0    0 -0.11226403012E+02  0.27887040468E+02 -0.17652598146E+02  0.34861631807E+02  0.51100000000E-03 0.  1.
         23    2    1    0    0    0 -0.72582014216E+00 -0.27372476082E+02  0.76946106168E+01  0.96557315628E+02  0.92273121260E+02 0.  0.
         11    1    3    3    0    0  0.10500582870E+02 -0.55259516549E+02  0.25347208763E+02  0.61695683822E+02  0.51100000000E-03 0. -1.
         22    1    1    0    0    0  0.72582014216E+00  0.27372476082E+02 -0.76946106168E+01  0.28442684372E+02  0.00000000000E+00 0. -1.
</event>
<event>
 5    1  0.8863861E-005  0.9118800E+02  0.7818608E-02  0.1130116E+00
         25   -1    0    0    0    0  0.00000000000E+00  0.00000000000E+00  0.99999998245E-14  0.12500000000E+03  0.12500000000E+03 0.  0.
        -11    1    3    3    0    0 -0.24551694226E+02  0.23053715654E+02 -0.13131861806E+02  0.36148378796E+02  0.51100000000E-03 0.  1.
         23    2    1    0    0    0  0.14494770149E+02 -0.77512090620E+01  0.22359853583E+02  0.97248555788E+02  0.93204822553E+02 0.  0.
         11    1    3    3    0    0  0.39046464375E+02 -0.30804924716E+02  0.35491715389E+02  0.61100176992E+02  0.51100000000E-03 0. -1.
         22    1    1    0    0    0 -0.14494770149E+02  0.77512090620E+01 -0.22359853583E+02  0.27751444212E+02  0.00000000000E+00 0. -1.
</event>
<event>
 5    1  0.8863861E-005  0.9118800E+02  0.7818608E-02  0.1130116E+00
         25   -1    0    0    0    0  0.00000000000E+00  0.00000000000E+00  0.99999998245E-14  0.12500000000E+03  0.12500000000E+03 0.  0.
        -11    1    3    3    0    0 -0.31381371360E+02 -0.12715846430E+02  0.32549960627E+02  0.46967894949E+02  0.51100000000E-03 0. -1.
         23    2    1    0    0    0 -0.10723653408E+02  0.25297555387E+02  0.99633401195E+01  0.95772766171E+02  0.91204120207E+02 0.  0.
         11    1    3    3    0    0  0.20657717952E+02  0.38013401817E+02 -0.22586620508E+02  0.48804871221E+02  0.51100000000E-03 0.  1.
         22    1    1    0    0    0  0.10723653408E+02 -0.25297555387E+02 -0.99633401195E+01  0.29227233829E+02  0.00000000000E+00 0.  1.
</event>
<event>
 5    1  0.8863861E-005  0.9118800E+02  0.7818608E-02  0.1130116E+00
         25   -1    0    0    0    0  0.00000000000E+00  0.00000000000E+00  0.99999998245E-14  0.12500000000E+03  0.12500000000E+03 0.  0.
        -11    1    3    3    0    0  0.40331882023E+01  0.21857288649E+02 -0.24444149118E+02  0.33038221812E+02  0.51100000000E-03 0.  1.
         23    2    1    0    0    0 -0.21010293072E+01 -0.14838440861E+02  0.25563338062E+02  0.95367620679E+02  0.90647146506E+02 0.  0.
         11    1    3    3    0    0 -0.61342175095E+01 -0.36695729510E+02  0.50007487180E+02  0.62329398867E+02  0.51100000000E-03 0. -1.
         22    1    1    0    0    0  0.21010293072E+01  0.14838440861E+02 -0.25563338062E+02  0.29632379321E+02  0.00000000000E+00 0. -1.
</event>
<event>
 5    1  0.8863861E-005  0.9118800E+02  0.7818608E-02  0.1130116E+00
         25   -1    0    0    0    0  0.00000000000E+00  0.00000000000E+00  0.99999998245E-14  0.12500000000E+03  0.12500000000E+03 0.  0.
        -11    1    3    3    0    0  0.21735176195E+01 -0.36980763862E+02 -0.31851039490E+02  0.48854782688E+02  0.51100000000E-03 0. -1.
         23    2    1    0    0    0  0.27081934722E+02 -0.49742478060E+01 -0.64159714853E+01  0.96727415760E+02  0.92503264483E+02 0.  0.
         11    1    3    3    0    0  0.24908417102E+02  0.32006516056E+02  0.25435068005E+02  0.47872633072E+02  0.51100000000E-03 0.  1.
         22    1    1    0    0    0 -0.27081934722E+02  0.49742478060E+01  0.64159714853E+01  0.28272584240E+02  0.00000000000E+00 0. -1.
</event>
<event>
 5    1  0.8863861E-005  0.9118800E+02  0.7818608E-02  0.1130116E+00
         25   -1    0    0    0    0  0.00000000000E+00  0.00000000000E+00  0.99999998245E-14  0.12500000000E+03  0.12500000000E+03 0.  0.
        -11    1    3    3    0    0 -0.45688051691E+02 -0.35764928144E+02 -0.13503058558E+02  0.59572315241E+02  0.51100000000E-03 0. -1.
         23    2    1    0    0    0 -0.28239144913E+02 -0.55607799505E+01 -0.95396645967E+01  0.94678773447E+02  0.89692214610E+02 0.  0.
         11    1    3    3    0    0  0.17448906778E+02  0.30204148193E+02  0.39633939616E+01  0.35106458206E+02  0.51100000000E-03 0.  1.
         22    1    1    0    0    0  0.28239144913E+02  0.55607799505E+01  0.95396645967E+01  0.30321226553E+02  0.00000000000E+00 0. -1.
</event>
<event>
 5    1  0.8863861E-005  0.9118800E+02  0.7818608E-02  0.1130116E+00
         25   -1    0    0    0    0  0.00000000000E+00  0.00000000000E+00  0.99999998245E-14  0.12500000000E+03  0.12500000000E+03 0.  0.
        -11    1    3    3    0    0 -0.30447103574E+02  0.41815970122E+01  0.24779144606E+02  0.39478068308E+02  0.51100000000E-03 0. -1.
         23    2    1    0    0    0  0.21059048265E+02  0.18875177643E+02  0.78527637942E+01  0.95650012877E+02  0.91035724961E+02 0.  0.
         11    1    3    3    0    0  0.51506151839E+02  0.14693580631E+02 -0.16926380812E+02  0.56171944569E+02  0.51100000000E-03 0.  1.
         22    1    1    0    0    0 -0.21059048265E+02 -0.18875177643E+02 -0.78527637942E+01  0.29349987123E+02  0.00000000000E+00 0.  1.
</event>
<event>
 5    1  0.8863861E-005  0.9118800E+02  0.7818608E-02  0.1130116E+00
         25   -1    0    0    0    0  0.00000000000E+00  0.00000000000E+00  0.99999998245E-14  0.12500000000E+03  0.12500000000E+03 0.  0.
        -11    1    3    3    0    0  0.46812204805E+02  0.27350314267E+02 -0.26464855584E+02  0.60330844437E+02  0.51100000000E-03 0.  1.
         23    2    1    0    0    0  0.28539129266E+02  0.40759596945E+01 -0.85150644966E+01  0.94940032101E+02  0.90055582977E+02 0.  0.
         11    1    3    3    0    0 -0.18273075539E+02 -0.23274354572E+02  0.17949791087E+02  0.34609187664E+02  0.51100000000E-03 0. -1.
         22    1    1    0    0    0 -0.28539129266E+02 -0.40759596945E+01  0.85150644966E+01  0.30059967899E+02  0.00000000000E+00 0.  1.
</event>
<event>
 5    1  0.8863861E-005  0.9118800E+02  0.7818608E-02  0.1130116E+00
         25   -1    0    0    0    0  0.00000000000E+00  0.00000000000E+00  0.99999998245E-14  0.12500000000E+03  0.12500000000E+03 0.  0.
        -11    1    3    3    0    0 -0.58124588365E+01  0.36595256421E+02 -0.45117890373E+02  0.58383400913E+02  0.51100000000E-03 0.  1.
         23    2    1    0    0    0 -0.37787392821E+01  0.37627514114E+01 -0.29899774205E+02  0.94628406920E+02  0.89621993562E+02 0.  0.
         11    1    3    3    0    0  0.20337195544E+01 -0.32832505009E+02  0.15218116168E+02  0.36245006006E+02  0.51100000000E-03 0. -1.
         22    1    1    0    0    0  0.37787392821E+01 -0.37627514114E+01  0.29899774205E+02  0.30371593080E+02  0.00000000000E+00 0.  1.
</event>
<event>
 5    1  0.8863861E-005  0.9118800E+02  0.7818608E-02  0.1130116E+00
         25   -1    0    0    0    0  0.00000000000E+00  0.00000000000E+00  0.99999998245E-14  0.12500000000E+03  0.12500000000E+03 0.  0.
        -11    1    3    3    0    0 -0.15024800400E+02 -0.21280357373E+02  0.52804385478E+02  0.58880398801E+02  0.51100000000E-03 0.  1.
         23    2    1    0    0    0 -0.17041065121E+02 -0.17331568771E+02  0.16114110972E+02  0.95837596997E+02  0.91292930993E+02 0.  0.
         11    1    3    3    0    0 -0.20162647204E+01  0.39487886027E+01 -0.36690274506E+02  0.36957198196E+02  0.51100000000E-03 0. -1.
         22    1    1    0    0    0  0.17041065121E+02  0.17331568771E+02 -0.16114110972E+02  0.29162403003E+02  0.00000000000E+00 0.  1.
</event>
<event>
 5    1  0.8863861E-005  0.9118800E+02  0.7818608E-02  0.1130116E+00
         25   -1    0    0    0    0  0.00000000000E+00  0.00000000000E+00  0.99999998245E-14  0.12500000000E+03  0.12500000000E+03 0.  0.
        -11    1    3    3    0    0 -0.46232560246E+02  0.17606895949E+02  0.27888053298E+02  0.56790808489E+02  0.51100000000E-03 0. -1.
         23    2    1    0    0    0 -0.28840116111E+02  0.23227059208E+02  0.27551399591E+01  0.87867273559E+02  0.79635534717E+02 0.  0.
         11    1    3    3    0    0  0.17392444135E+02  0.56201632593E+01 -0.25132913339E+02  0.31076465069E+02  0.51100000000E-03 0.  1.
         22    1    1    0    0    0  0.28840116111E+02 -0.23227059208E+02 -0.27551399591E+01  0.37132726441E+02  0.00000000000E+00 0. -1.
</event>
<event>
 5    1  0.8863861E-005  0.9118800E+02  0.7818608E-02  0.1130116E+00
         25   -1    0    0    0    0  0.00000000000E+00  0.00000000000E+00  0.99999998245E-14  0.12500000000E+03  0.12500000000E+03 0.  0.
        -11    1    3    3    0    0 -0.68499251730E+01  0.21823082630E+02 -0.50476201206E+02  0.55416742044E+02  0.51100000000E-03 0. -1.
         23    2    1    0    0    0 -0.11902393833E+02 -0.98065020377E+01 -0.20995759839E+02  0.98948965618E+02  0.95458060971E+02 0.  0.
         11    1    3    3    0    0 -0.50524686603E+01 -0.31629584668E+02  0.29480441367E+02  0.43532223574E+02  0.51100000000E-03 0.  1.
         22    1    1    0    0    0  0.11902393833E+02  0.98065020377E+01  0.20995759839E+02  0.26051034382E+02  0.00000000000E+00 0. -1.
</event>
<event>
 5    1  0.8863861E-005  0.9118800E+02  0.7818608E-02  0.1130116E+00
         25   -1    0    0    0    0  0.00000000000E+00  0.00000000000E+00  0.99999998245E-14  0.12500000000E+03  0.12500000000E+03 0.  0.
        -11    1    3    3    0    0 -0.23368482765E+02  0.44783673955E+02 -0.32736127629E+02  0.60193998804E+02  0.51100000000E-03 0. -1.
         23    2    1    0    0    0 -0.31261610536E+01  0.27650266211E+02 -0.90855000799E+01  0.95727890131E+02  0.91142594504E+02 0.  0.
         11    1    3    3    0    0  0.20242321711E+02 -0.17133407744E+02  0.23650627549E+02  0.35533891328E+02  0.51100000000E-03 0.  1.
         22    1    1    0    0    0  0.31261610536E+01 -0.27650266211E+02  0.90855000799E+01  0.29272109869E+02  0.00000000000E+00 0. -1.
</event>
<event>
 5    1  0.8863861E-005  0.9118800E+02  0.7818608E-02  0.1130116E+00
         25   -1    0    0    0    0  0.00000000000E+00  0.00000000000E+00  0.99999998245E-14  0.12500000000E+03  0.12500000000E+03 0.  0.
        -11    1    3    3    0    0  0.19221382132E+02  0.45187924092E+02 -0.23821263299E+02  0.54578957486E+02  0.51100000000E-03 0. -1.
         23    2    1    0    0    0  0.27022461647E+02  0.88483686359E+01 -0.54136786668E+01  0.96054966269E+02  0.91590073520E+02 0.  0.
         11    1    3    3    0    0  0.78010795146E+01 -0.36339555456E+02  0.18407584632E+02  0.41476008783E+02  0.51100000000E-03 0.  1.
         22    1    1    0    0    0 -0.27022461647E+02 -0.88483686359E+01  0.54136786668E+01  0.28945033731E+02  0.00000000000E+00 0. -1.
</event>
<event>
 5    1  0.8863861E-005  0.9118800E+02  0.7818608E-02  0.1130116E+00
         25   -1    0    0    0    0  0.00000000000E+00  0.00000000000E+00  0.99999998245E-14  0.12500000000E+03  0.12500000000E+03 0.  0.
        -11    1    3    3    0    0  0.30871176229E+02 -0.13547741003E+02  0.46084840242E+01  0.34026591562E+02  0.51100000000E-03 0.  1.
         23    2    1    0    0    0 -0.26860070163E+02  0.70154969535E+00 -0.11711666082E+02  0.95689273916E+02  0.91089617845E+02 0.  0.
         11    1    3    3    0    0 -0.57731246392E+02  0.14249290698E+02 -0.16320150106E+02  0.61662682354E+02  0.51100000000E-03 0. -1.
         22    1    1    0    0    0  0.26860070163E+02 -0.70154969535E+00  0.11711666082E+02  0.29310726084E+02  0.00000000000E+00 0. -1.
</event>
<event>
 5    1  0.8863861E-005  0.9118800E+02  0.7818608E-02  0.1130116E+00
         25   -1    0    0    0    0  0.00000000000E+00  0.00000000000E+00  0.99999998245E-14  0.12500000000E+03  0.12500000000E+03 0.  0.
        -11    1    3    3    0    0 -0.13510150305E+02 -0.35285178845E+02  0.38726604347E+02  0.54104693806E+02  0.51100000000E-03 0. -1.
         23    2    1    0    0    0 -0.23246633100E+02 -0.64916441280E+00  0.12771823362E+02  0.98468003525E+02  0.94826161376E+02 0.  0.
         11    1    3    3    0    0 -0.97364827954E+01  0.34636014433E+02 -0.25954780985E+02  0.44363309719E+02  0.51100000000E-03 0.  1.
         22    1    1    0    0    0  0.23246633100E+02  0.64916441280E+00 -0.12771823362E+02  0.26531996475E+02  0.00000000000E+00 0. -1.
</event>
<event>
 5    1  0.8863861E-005  0.9118800E+02  0.7818608E-02  0.1130116E+00
         25   -1    0    0    0    0  0.00000000000E+00  0.00000000000E+00  0.99999998245E-14  0.12500000000E+03  0.12500000000E+03 0.  0.
        -11    1    3    3    0    0  0.42118492897E+02 -0.39701008595E+01  0.44360476853E+02  0.61299111344E+02  0.51100000000E-03 0.  1.
         23    2    1    0    0    0  0.24200262285E+02 -0.21279756763E+01  0.13044981768E+02  0.97425509534E+02  0.93441839577E+02 0.  0.
         11    1    3    3    0    0 -0.17918230612E+02  0.18421251832E+01 -0.31315495085E+02  0.36126398189E+02  0.51100000000E-03 0. -1.
         22    1    1    0    0    0 -0.24200262285E+02  0.21279756763E+01 -0.13044981768E+02  0.27574490466E+02  0.00000000000E+00 0.  1.
</event>
<event>
 5    1  0.8863861E-005  0.9118800E+02  0.7818608E-02  0.1130116E+00
         25   -1    0    0    0    0  0.00000000000E+00  0.00000000000E+00  0.99999998245E-14  0.12500000000E+03  0.12500000000E+03 0.  0.
        -11    1    3    3    0    0  0.24741899142E+02  0.19729056731E+02 -0.20806006286E+02  0.37871983714E+02  0.51100000000E-03 0.  1.
         23    2    1    0    0    0 -0.20502580530E+02 -0.16757444803E+02 -0.69234916385E+01  0.97630263041E+02  0.93715344317E+02 0.  0.
         11    1    3    3    0    0 -0.45244479672E+02 -0.36486501534E+02  0.13882514647E+02  0.59758279327E+02  0.51100000000E-03 0. -1.
         22    1    1    0    0    0  0.20502580530E+02  0.16757444803E+02  0.69234916385E+01  0.27369736959E+02  0.00000000000E+00 0. -1.
</event>
<event>
 5    1  0.8863861E-005  0.9118800E+02  0.7818608E-02  0.1130116E+00
         25   -1    0    0    0    0  0.00000000000E+00  0.00000000000E+00  0.99999998245E-14  0.12500000000E+03  0.12500000000E+03 0.  0.
        -11    1    3    3    0    0 -0.37933034006E+02 -0.28352269848E+02 -0.31541804148E+02  0.56900366288E+02  0.51100000000E-03 0. -1.
         23    2    1    0    0    0 -0.21754377395E+01 -0.23026525221E+02 -0.18671280869E+02  0.95275092559E+02  0.90519462767E+02 0.  0.
         11    1    3    3    0    0  0.35757596267E+02  0.53257446273E+01  0.12870523279E+02  0.38374726271E+02  0.51100000000E-03 0.  1.
         22    1    1    0    0    0  0.21754377395E+01  0.23026525221E+02  0.18671280869E+02  0.29724907441E+02  0.00000000000E+00 0. -1.
</event>
<event>
 5    1  0.8863861E-005  0.9118800E+02  0.7818608E-02  0.1130116E+00
         25   -1    0    0    0    0  0.00000000000E+00  0.00000000000E+00  0.99999998245E-14  0.12500000000E+03  0.12500000000E+03 0.  0.
        -11    1    3    3    0    0 -0.15093237262E+02  0.51575651352E+02  0.28147890319E+02  0.60664300483E+02  0.51100000000E-03 0.  1.
         23    2    1    0    0    0 -0.74168747444E+01  0.28299450624E+02  0.33112215122E+01  0.95557970102E+02  0.90909254345E+02 0.  0.
         11    1    3    3    0    0  0.76763625179E+01 -0.23276200728E+02 -0.24836668807E+02  0.34893669619E+02  0.51100000000E-03 0. -1.
         22    1    1    0    0    0  0.74168747444E+01 -0.28299450624E+02 -0.33112215122E+01  0.29442029898E+02  0.00000000000E+00 0.  1.
</event>
<event>
 5    1  0.8863861E-005  0.9118800E+02  0.7818608E-02  0.1130116E+00
         25   -1    0    0    0    0  0.00000000000E+00  0.00000000000E+00  0.99999998245E-14  0.12500000000E+03  0.12500000000E+03 0.  0.
        -11    1    3    3    0    0 -0.52845377893E+02 -0.23392132793E+02  0.15565127807E+02  0.59850639471E+02  0.51100000000E-03 0. -1.
         23    2    1    0    0    0 -0.24786938085E+02 -0.14394777959E+02 -0.51607803389E+01  0.95875515698E+02  0.91344835238E+02 0.  0.
         11    1    3    3    0    0  0.28058439808E+02  0.89973548340E+01 -0.20725908145E+02  0.36024876227E+02  0.51100000000E-03 0.  1.
         22    1    1    0    0    0  0.24786938085E+02  0.14394777959E+02  0.51607803389E+01  0.29124484302E+02  0.00000000000E+00 0. -1.
</event>
<event>
 5    1  0.8863861E-005  0.9118800E+02  0.7818608E-02  0.1130116E+00
         25   -1    0    0    0    0  0.00000000000E+00  0.00000000000E+00  0.99999998245E-14  0.12500000000E+03  0.12500000000E+03 0.  0.
        -11    1    3    3    0    0 -0.23901403994E+01  0.26345010210E+01 -0.56728013504E+02  0.56839430708E+02  0.51100000000E-03 0. -1.
         23    2    1    0    0    0  0.16765825272E+02  0.65611923036E+01 -0.23472593495E+02  0.95417829916E+02  0.90716357284E+02 0.  0.
         11    1    3    3    0    0  0.19155965671E+02  0.39266912825E+01  0.33255420009E+02  0.38578399208E+02  0.51100000000E-03 0.  1.
         22    1    1    0    0    0 -0.16765825272E+02 -0.65611923036E+01  0.23472593495E+02  0.29582170084E+02  0.00000000000E+00 0. -1.
</event>
<event>
 5    1  0.8863861E-005  0.9118800E+02  0.7818608E-02  0.1130116E+00
         25   -1    0    0    0    0  0.00000000000E+00  0.00000000000E+00  0.99999998245E-14  0.12500000000E+03  0.12500000000E+03 0.  0.
        -11    1    3    3    0    0  0.33726169258E+02 -0.14641785350E+02 -0.44001690150E+02  0.57340954887E+02  0.51100000000E-03 0.  1.
         23    2    1    0    0    0  0.21775685808E+02  0.89103232611E+01 -0.28789419238E+02  0.87819292461E+02  0.79560185491E+02 0.  0.
         11    1    3    3    0    0 -0.11950483450E+02  0.23552108611E+02  0.15212270912E+02  0.30478337574E+02  0.51100000000E-03 0. -1.
         22    1    1    0    0    0 -0.21775685808E+02 -0.89103232611E+01  0.28789419238E+02  0.37180707539E+02  0.00000000000E+00 0.  1.
</event>
<event>
 5    1  0.8863861E-005  0.9118800E+02  0.7818608E-02  0.1130116E+00
         25   -1    0    0    0    0  0.00000000000E+00  0.00000000000E+00  0.99999998245E-14  0.12500000000E+03  0.12500000000E+03 0.  0.
        -11    1    3    3    0    0 -0.29429290944E+02  0.18457395865E+02  0.50009421830E+02  0.60890893404E+02  0.51100000000E-03 0.  1.
         23    2    1    0    0    0 -0.22177059877E+02  0.33758610717E+01  0.21623894098E+02  0.93842156385E+02  0.88518580514E+02 0.  0.
         11    1    3    3    0    0  0.72522310664E+01 -0.15081534793E+02 -0.28385527732E+02  0.32951262981E+02  0.51100000000E-03 0. -1.
         22    1    1    0    0    0  0.22177059877E+02 -0.33758610717E+01 -0.21623894098E+02  0.31157843615E+02  0.00000000000E+00 0.  1.
</event>
<event>
 5    1  0.8863861E-005  0.9118800E+02  0.7818608E-02  0.1130116E+00
         25   -1    0    0    0    0  0.00000000000E+00  0.00000000000E+00  0.99999998245E-14  0.12500000000E+03  0.12500000000E+03 0.  0.
        -11    1    3    3    0    0  0.15225871873E+02  0.14810299077E+02  0.36294167261E+02  0.42052808592E+02  0.51100000000E-03 0. -1.
         23    2    1    0    0    0  0.21824367815E+02  0.59849212870E+01 -0.17140131871E+02  0.96611508777E+02  0.92346506129E+02 0.  0.
         11    1    3    3    0    0  0.65984959429E+01 -0.88253777904E+01 -0.53434299132E+02  0.54558700185E+02  0.51100000000E-03 0.  1.
         22    1    1    0    0    0 -0.21824367815E+02 -0.59849212870E+01  0.17140131871E+02  0.28388491223E+02  0.00000000000E+00 0. -1.
</event>
<event>
 5    1  0.8863861E-005  0.9118800E+02  0.7818608E-02  0.1130116E+00
         25   -1    0    0    0    0  0.00000000000E+00  0.00000000000E+00  0.99999998245E-14  0.12500000000E+03  0.12500000000E+03 0.  0.
        -11    1    3    3    0    0  0.25780789450E+02 -0.19180645102E+02 -0.48442403264E+02  0.58130995910E+02  0.51100000000E-03 0.  1.
         23    2    1    0    0    0  0.52663873647E+01  0.43985809864E+01 -0.29577028652E+02  0.94637474176E+02  0.89634639196E+02 0.  0.
         11    1    3    3    0    0 -0.20514402086E+02  0.23579226089E+02  0.18865374612E+02  0.36506478266E+02  0.51100000000E-03 0. -1.
         22    1    1    0    0    0 -0.52663873647E+01 -0.43985809864E+01  0.29577028652E+02  0.30362525824E+02  0.00000000000E+00 0.  1.
</event>
<event>
 5    1  0.8863861E-005  0.9118800E+02  0.7818608E-02  0.1130116E+00
         25   -1    0    0    0    0  0.00000000000E+00  0.00000000000E+00  0.99999998245E-14  0.12500000000E+03  0.12500000000E+03 0.  0.
        -11    1    3    3    0    0  0.16327896485E+02  0.33636203709E+02 -0.99964123169E+01  0.38703005866E+02  0.51100000000E-03 0.  1.
         23    2    1    0    0    0  0.14302161389E+02 -0.15095337899E+02  0.20152350677E+02  0.96042474476E+02  0.91573023423E+02 0.  0.
         11    1    3    3    0    0 -0.20257350956E+01 -0.48731541608E+02  0.30148762994E+02  0.57339468610E+02  0.51100000000E-03 0. -1.
         22    1    1    0    0    0 -0.14302161389E+02  0.15095337899E+02 -0.20152350677E+02  0.28957525524E+02  0.00000000000E+00 0. -1.
</event>
<event>
 5    1  0.8863861E-005  0.9118800E+02  0.7818608E-02  0.1130116E+00
         25   -1    0    0    0    0  0.00000000000E+00  0.00000000000E+00  0.99999998245E-14  0.12500000000E+03  0.12500000000E+03 0.  0.
        -11    1    3    3    0    0  0.39850828831E+01  0.10928778302E+02 -0.45219786084E+02  0.46692056439E+02  0.51100000000E-03 0. -1.
         23    2    1    0    0    0 -0.12544906028E+02  0.26832242496E+02 -0.23822865343E+01  0.95284361125E+02  0.90532260997E+02 0.  0.
         11    1    3    3    0    0 -0.16529988911E+02  0.15903464194E+02  0.42837499549E+02  0.48592304686E+02  0.51100000000E-03 0.  1.
         22    1    1    0    0    0  0.12544906028E+02 -0.26832242496E+02  0.23822865343E+01  0.29715638875E+02  0.00000000000E+00 0.  1.
</event>
<event>
 5    1  0.8863861E-005  0.9118800E+02  0.7818608E-02  0.1130116E+00
         25   -1    0    0    0    0  0.00000000000E+00  0.00000000000E+00  0.99999998245E-14  0.12500000000E+03  0.12500000000E+03 0.  0.
        -11    1    3    3    0    0  0.44623966341E+01 -0.58818858396E+01  0.32519479159E+02  0.33347055189E+02  0.51100000000E-03 0.  1.
         23    2    1    0    0    0 -0.16180116002E+02  0.11886547358E+02 -0.22564383347E+02  0.94796729354E+02  0.89856454072E+02 0.  0.
         11    1    3    3    0    0 -0.20642512636E+02  0.17768433198E+02 -0.55083862505E+02  0.61449674165E+02  0.51100000000E-03 0. -1.
         22    1    1    0    0    0  0.16180116002E+02 -0.11886547358E+02  0.22564383347E+02  0.30203270646E+02  0.00000000000E+00 0. -1.
</event>
<event>
 5    1  0.8863861E-005  0.9118800E+02  0.7818608E-02  0.1130116E+00
         25   -1    0    0    0    0  0.00000000000E+00  0.00000000000E+00  0.99999998245E-14  0.12500000000E+03  0.12500000000E+03 0.  0.
        -11    1    3    3    0    0  0.29966448762E+02  0.96887347778E+01  0.40532991603E+02  0.51330137751E+02  0.51100000000E-03 0. -1.
         23    2    1    0    0    0 -0.10298464446E+02  0.14655977483E+02  0.23792651232E+02  0.95218356349E+02  0.90441080750E+02 0.  0.
         11    1    3    3    0    0 -0.40264913208E+02  0.49672427056E+01 -0.16740340371E+02  0.43888218598E+02  0.51100000000E-03 0.  1.
         22    1    1    0    0    0  0.10298464446E+02 -0.14655977483E+02 -0.23792651232E+02  0.29781643651E+02  0.00000000000E+00 0.  1.
</event>
<event>
 5    1  0.8863861E-005  0.9118800E+02  0.7818608E-02  0.1130116E+00
         25   -1    0    0    0    0  0.00000000000E+00  0.00000000000E+00  0.99999998245E-14  0.12500000000E+03  0.12500000000E+03 0.  0.
        -11    1    3    3    0    0  0.30540357954E+02 -0.11603136741E+02 -0.37570484712E+02  0.49788428053E+02  0.51100000000E-03 0.  1.
         23    2    1    0    0    0  0.15206409842E+02  0.21728657869E+02 -0.69337185781E+01  0.97587485952E+02  0.93658269726E+02 0.  0.
         11    1    3    3    0    0 -0.15333948112E+02  0.33331794611E+02  0.30636766134E+02  0.47799057900E+02  0.51100000000E-03 0. -1.
         22    1    1    0    0    0 -0.15206409842E+02 -0.21728657869E+02  0.69337185781E+01  0.27412514048E+02  0.00000000000E+00 0. -1.
</event>
<event>
 5    1  0.8863861E-005  0.9118800E+02  0.7818608E-02  0.1130116E+00
         25   -1    0    0    0    0  0.00000000000E+00  0.00000000000E+00  0.99999998245E-14  0.12500000000E+03  0.12500000000E+03 0.  0.
        -11    1    3    3    0    0 -0.38921826032E+02 -0.97935539629E+01  0.16535114285E+02  0.43407744073E+02  0.51100000000E-03 0. -1.
         23    2    1    0    0    0 -0.75741982490E+01  0.28368927633E+02 -0.45084052653E+00  0.95633900645E+02  0.91013598771E+02 0.  0.
         11    1    3    3    0    0  0.31347627783E+02  0.38162481596E+02 -0.16985954812E+02  0.52226156572E+02  0.51100000000E-03 0.  1.
         22    1    1    0    0    0  0.75741982490E+01 -0.28368927633E+02  0.45084052653E+00  0.29366099355E+02  0.00000000000E+00 0.  1.
</event>
<event>
 5    1  0.8863861E-005  0.9118800E+02  0.7818608E-02  0.1130116E+00
         25   -1    0    0    0    0  0.00000000000E+00  0.00000000000E+00  0.99999998245E-14  0.12500000000E+03  0.12500000000E+03 0.  0.
        -11    1    3    3    0    0  0.18592590355E+02 -0.27821189533E+02  0.12525711853E+01  0.33485398877E+02  0.51100000000E-03 0.  1.
         23    2    1    0    0    0 -0.27503522102E+02  0.11697324428E+02  0.64492101176E+01  0.94424463407E+02  0.89337091131E+02 0.  0.
         11    1    3    3    0    0 -0.46096112457E+02  0.39518513961E+02  0.51966389324E+01  0.60939064530E+02  0.51100000000E-03 0. -1.
         22    1    1    0    0    0  0.27503522102E+02 -0.11697324428E+02 -0.64492101176E+01  0.30575536593E+02  0.00000000000E+00 0. -1.
</event>
<event>
 5    1  0.8863861E-005  0.9118800E+02  0.7818608E-02  0.1130116E+00
         25   -1    0    0    0    0  0.00000000000E+00  0.00000000000E+00  0.99999998245E-14  0.12500000000E+03  0.12500000000E+03 0.  0.
        -11    1    3    3    0    0  0.26129032466E+02  0.23688973398E+02  0.25430294612E+01  0.35360441137E+02  0.51100000000E-03 0. -1.
         23    2    1    0    0    0 -0.23353869086E+02 -0.36962774173E+01 -0.17737194773E+02  0.95442027363E+02  0.90749693337E+02 0.  0.
         11    1    3    3    0    0 -0.49482901552E+02 -0.27385250816E+02 -0.20280224234E+02  0.60081586226E+02  0.51100000000E-03 0.  1.
         22    1    1    0    0    0  0.23353869086E+02  0.36962774173E+01  0.17737194773E+02  0.29557972637E+02  0.00000000000E+00 0.  1.
</event>
<event>
 5    1  0.8863861E-005  0.9118800E+02  0.7818608E-02  0.1130116E+00
         25   -1    0    0    0    0  0.00000000000E+00  0.00000000000E+00  0.99999998245E-14  0.12500000000E+03  0.12500000000E+03 0.  0.
        -11    1    3    3    0    0  0.35998682212E+02  0.25992797550E+02  0.29829989963E+02  0.53491671753E+02  0.51100000000E-03 0.  1.
         23    2    1    0    0    0  0.80997883422E+01  0.26774829951E+02  0.33179849678E+02  0.81601837426E+02  0.69104698513E+02 0.  0.
         11    1    3    3    0    0 -0.27898893870E+02  0.78203240154E+00  0.33498597147E+01  0.28110165674E+02  0.51100000000E-03 0. -1.
         22    1    1    0    0    0 -0.80997883422E+01 -0.26774829951E+02 -0.33179849678E+02  0.43398162574E+02  0.00000000000E+00 0.  1.
</event>
<event>
 5    1  0.8863861E-005  0.9118800E+02  0.7818608E-02  0.1130116E+00
         25   -1    0    0    0    0  0.00000000000E+00  0.00000000000E+00  0.99999998245E-14  0.12500000000E+03  0.12500000000E+03 0.  0.
        -11    1    3    3    0    0  0.29059647571E+02 -0.16945401228E+02 -0.47423187413E+02  0.58142655980E+02  0.51100000000E-03 0. -1.
         23    2    1    0    0    0  0.99627864665E+01 -0.43953322801E+01 -0.41976109164E+02  0.81634462985E+02  0.69163688062E+02 0.  0.
         11    1    3    3    0    0 -0.19096861105E+02  0.12550068948E+02  0.54470782496E+01  0.23491807005E+02  0.51100000000E-03 0.  1.
         22    1    1    0    0    0 -0.99627864665E+01  0.43953322801E+01  0.41976109164E+02  0.43365537015E+02  0.00000000000E+00 0. -1.
</event>
<event>
 5    1  0.8863861E-005  0.9118800E+02  0.7818608E-02  0.1130116E+00
         25   -1    0    0    0    0  0.00000000000E+00  0.00000000000E+00  0.99999998245E-14  0.12500000000E+03  0.12500000000E+03 0.  0.
        -11    1    3    3    0    0  0.25494525640E-01  0.33593083899E+02 -0.31244149883E+02  0.45876931436E+02  0.51100000000E-03 0. -1.
         23    2    1    0    0    0  0.97657480360E+01 -0.14276070651E+02 -0.24232594025E+02  0.95227619492E+02  0.90453882576E+02 0.  0.
         11    1    3    3    0    0  0.97402535104E+01 -0.47869154550E+02  0.70115558580E+01  0.49350688056E+02  0.51100000000E-03 0.  1.
         22    1    1    0    0    0 -0.97657480360E+01  0.14276070651E+02  0.24232594025E+02  0.29772380508E+02  0.00000000000E+00 0.  1.
</event>
<event>
 5    1  0.8863861E-005  0.9118800E+02  0.7818608E-02  0.1130116E+00
         25   -1    0    0    0    0  0.00000000000E+00  0.00000000000E+00  0.99999998245E-14  0.12500000000E+03  0.12500000000E+03 0.  0.
        -11    1    3    3    0    0  0.13553592797E+02  0.33514874340E+02 -0.47974566001E+02  0.60070838707E+02  0.51100000000E-03 0.  1.
         23    2    1    0    0    0 -0.54784354946E+01  0.19093526971E+02 -0.21118877791E+02  0.96007190085E+02  0.91524846469E+02 0.  0.
         11    1    3    3    0    0 -0.19032028291E+02 -0.14421347370E+02  0.26855688210E+02  0.35936351378E+02  0.51100000000E-03 0. -1.
         22    1    1    0    0    0  0.54784354946E+01 -0.19093526971E+02  0.21118877791E+02  0.28992809915E+02  0.00000000000E+00 0.  1.
</event>
<event>
 5    1  0.8863861E-005  0.9118800E+02  0.7818608E-02  0.1130116E+00
         25   -1    0    0    0    0  0.00000000000E+00  0.00000000000E+00  0.99999998245E-14  0.12500000000E+03  0.12500000000E+03 0.  0.
        -11    1    3    3    0    0  0.28306420598E+02  0.18314874046E+02 -0.24531126294E+02  0.41694894362E+02  0.51100000000E-03 0.  1.
         23    2    1    0    0    0  0.18350607705E+02 -0.19889243761E+02  0.11920453242E+02  0.95429338424E+02  0.90732213717E+02 0.  0.
         11    1    3    3    0    0 -0.99558128926E+01 -0.38204117807E+02  0.36451579535E+02  0.53734444062E+02  0.51100000000E-03 0. -1.
         22    1    1    0    0    0 -0.18350607705E+02  0.19889243761E+02 -0.11920453242E+02  0.29570661576E+02  0.00000000000E+00 0. -1.
</event>
<event>
 5    1  0.8863861E-005  0.9118800E+02  0.7818608E-02  0.1130116E+00
         25   -1    0    0    0    0  0.00000000000E+00  0.00000000000E+00  0.99999998245E-14  0.12500000000E+03  0.12500000000E+03 0.  0.
        -11    1    3    3    0    0  0.22980939971E+02  0.27838590021E+02  0.27098602205E+01  0.36200193909E+02  0.51100000000E-03 0. -1.
         23    2    1    0    0    0 -0.15574365607E+02 -0.15620171473E+02  0.18285862356E+02  0.96348239443E+02  0.91989455161E+02 0.  0.
         11    1    3    3    0    0 -0.38555305578E+02 -0.43458761495E+02  0.15576002136E+02  0.60148045535E+02  0.51100000000E-03 0.  1.
         22    1    1    0    0    0  0.15574365607E+02  0.15620171473E+02 -0.18285862356E+02  0.28651760557E+02  0.00000000000E+00 0.  1.
</event>
<event>
 5    1  0.8863861E-005  0.9118800E+02  0.7818608E-02  0.1130116E+00
         25   -1    0    0    0    0  0.00000000000E+00  0.00000000000E+00  0.99999998245E-14  0.12500000000E+03  0.12500000000E+03 0.  0.
        -11    1    3    3    0    0  0.27787988428E+02 -0.76153953963E+01  0.26027371081E+02  0.38827703944E+02  0.51100000000E-03 0.  1.
         23    2    1    0    0    0  0.10295557901E+02  0.23743644622E+02 -0.16362167939E+02  0.94381709517E+02  0.89277250066E+02 0.  0.
         11    1    3    3    0    0 -0.17492430528E+02  0.31359040018E+02 -0.42389539020E+02  0.55554005573E+02  0.51100000000E-03 0. -1.
         22    1    1    0    0    0 -0.10295557901E+02 -0.23743644622E+02  0.16362167939E+02  0.30618290483E+02  0.00000000000E+00 0. -1.
</event>
<event>
 5    1  0.8863861E-005  0.9118800E+02  0.7818608E-02  0.1130116E+00
         25   -1    0    0    0    0  0.00000000000E+00  0.00000000000E+00  0.99999998245E-14  0.12500000000E+03  0.12500000000E+03 0.  0.
        -11    1    3    3    0    0  0.12571519386E+02  0.17224514066E+02  0.52759925273E+02  0.56906385402E+02  0.51100000000E-03 0. -1.
         23    2    1    0    0    0  0.16719559927E+02 -0.72437837484E+01  0.21639959471E+02  0.96710356435E+02  0.92480209282E+02 0.  0.
         11    1    3    3    0    0  0.41480405403E+01 -0.24468297814E+02 -0.31119965802E+02  0.39803971033E+02  0.51100000000E-03 0.  1.
         22    1    1    0    0    0 -0.16719559927E+02  0.72437837484E+01 -0.21639959471E+02  0.28289643565E+02  0.00000000000E+00 0. -1.
</event>
<event>
 5    1  0.8863861E-005  0.9118800E+02  0.7818608E-02  0.1130116E+00
         25   -1    0    0    0    0  0.00000000000E+00  0.00000000000E+00  0.99999998245E-14  0.12500000000E+03  0.12500000000E+03 0.  0.
        -11    1    3    3    0    0  0.11204995704E+02  0.45834843626E+02  0.40563101917E+02  0.62223388339E+02  0.51100000000E-03 0. -1.
         23    2    1    0    0    0  0.63634873346E+01  0.18382551886E+02  0.21565012881E+02  0.95957583340E+02  0.91457070995E+02 0.  0.
         11    1    3    3    0    0 -0.48415083699E+01 -0.27452291740E+02 -0.18998089036E+02  0.33734195001E+02  0.51100000000E-03 0.  1.
         22    1    1    0    0    0 -0.63634873346E+01 -0.18382551886E+02 -0.21565012881E+02  0.29042416660E+02  0.00000000000E+00 0. -1.
</event>
<event>
 5    1  0.8863861E-005  0.9118800E+02  0.7818608E-02  0.1130116E+00
         25   -1    0    0    0    0  0.00000000000E+00  0.00000000000E+00  0.99999998245E-14  0.12500000000E+03  0.12500000000E+03 0.  0.
        -11    1    3    3    0    0 -0.17899286691E+02  0.35394998853E+02 -0.27422285700E+01  0.39758146657E+02  0.51100000000E-03 0. -1.
         23    2    1    0    0    0 -0.14113857873E+02 -0.22759480827E+02 -0.31318373441E+01  0.98037000227E+02  0.94256299826E+02 0.  0.
         11    1    3    3    0    0  0.37854288174E+01 -0.58154479680E+02 -0.38960877408E+00  0.58278853570E+02  0.51100000000E-03 0.  1.
         22    1    1    0    0    0  0.14113857873E+02  0.22759480827E+02  0.31318373441E+01  0.26962999773E+02  0.00000000000E+00 0.  1.
</event>
<event>
 5    1  0.8863861E-005  0.9118800E+02  0.7818608E-02  0.1130116E+00
         25   -1    0    0    0    0  0.00000000000E+00  0.00000000000E+00  0.99999998245E-14  0.12500000000E+03  0.12500000000E+03 0.  0.
        -11    1    3    3    0    0  0.32918693651E+02 -0.28312163210E+02  0.25036208112E+02  0.50120162551E+02  0.51100000000E-03 0. -1.
         23    2    1    0    0    0  0.20609227566E+02  0.14586911598E+02  0.14139658613E+02  0.96061302784E+02  0.91598721040E+02 0.  0.
         11    1    3    3    0    0 -0.12309466085E+02  0.42899074808E+02 -0.10896549499E+02  0.45941140233E+02  0.51100000000E-03 0.  1.
         22    1    1    0    0    0 -0.20609227566E+02 -0.14586911598E+02 -0.14139658613E+02  0.28938697216E+02  0.00000000000E+00 0. -1.
</event>
<event>
 5    1  0.8863861E-005  0.9118800E+02  0.7818608E-02  0.1130116E+00
         25   -1    0    0    0    0  0.00000000000E+00  0.00000000000E+00  0.99999998245E-14  0.12500000000E+03  0.12500000000E+03 0.  0.
        -11    1    3    3    0    0  0.54386233008E+02  0.38770990518E+01  0.17659582424E+02  0.57312782951E+02  0.51100000000E-03 0. -1.
         23    2    1    0    0    0  0.24908573485E+02 -0.16164111617E+02  0.83986680806E+01  0.94141400502E+02  0.88940149121E+02 0.  0.
         11    1    3    3    0    0 -0.29477659523E+02 -0.20041210669E+02 -0.92609143438E+01  0.36828617552E+02  0.51100000000E-03 0.  1.
         22    1    1    0    0    0 -0.24908573485E+02  0.16164111617E+02 -0.83986680806E+01  0.30858599498E+02  0.00000000000E+00 0. -1.
</event>
<event>
 5    1  0.8863861E-005  0.9118800E+02  0.7818608E-02  0.1130116E+00
         25   -1    0    0    0    0  0.00000000000E+00  0.00000000000E+00  0.99999998245E-14  0.12500000000E+03  0.12500000000E+03 0.  0.
        -11    1    3    3    0    0  0.12086475202E+01  0.14075405164E+02  0.41547943700E+02  0.43884045909E+02  0.51100000000E-03 0.  1.
         23    2    1    0    0    0  0.24124173620E+02 -0.15884518554E+02  0.64548461030E+01  0.95403400183E+02  0.90696472069E+02 0.  0.
         11    1    3    3    0    0  0.22915526100E+02 -0.29959923717E+02 -0.35093097597E+02  0.51519354274E+02  0.51100000000E-03 0. -1.
         22    1    1    0    0    0 -0.24124173620E+02  0.15884518554E+02 -0.64548461030E+01  0.29596599817E+02  0.00000000000E+00 0. -1.
</event>
<event>
 5    1  0.8863861E-005  0.9118800E+02  0.7818608E-02  0.1130116E+00
         25   -1    0    0    0    0  0.00000000000E+00  0.00000000000E+00  0.99999998245E-14  0.12500000000E+03  0.12500000000E+03 0.  0.
        -11    1    3    3    0    0  0.14625525804E+02  0.20726041842E+02  0.22044916110E+02  0.33607337622E+02  0.51100000000E-03 0. -1.
         23    2    1    0    0    0 -0.97365561220E+01 -0.26591276195E+02 -0.90810939308E+01  0.95261762632E+02  0.90501053352E+02 0.  0.
         11    1    3    3    0    0 -0.24362081926E+02 -0.47317318037E+02 -0.31126010040E+02  0.61654425010E+02  0.51100000000E-03 0.  1.
         22    1    1    0    0    0  0.97365561220E+01  0.26591276195E+02  0.90810939308E+01  0.29738237368E+02  0.00000000000E+00 0.  1.
</event>
<event>
 5    1  0.8863861E-005  0.9118800E+02  0.7818608E-02  0.1130116E+00
         25   -1    0    0    0    0  0.00000000000E+00  0.00000000000E+00  0.99999998245E-14  0.12500000000E+03  0.12500000000E+03 0.  0.
        -11    1    3    3    0    0 -0.48128607708E+02  0.22327212991E+02 -0.97334914908E+01  0.53940783983E+02  0.51100000000E-03 0.  1.
         23    2    1    0    0    0 -0.25782968947E+02 -0.12057463879E+02 -0.96406339297E+01  0.94948614916E+02  0.90067495407E+02 0.  0.
         11    1    3    3    0    0  0.22345638761E+02 -0.34384676869E+02  0.92857561039E-01  0.41007830933E+02  0.51100000000E-03 0. -1.
         22    1    1    0    0    0  0.25782968947E+02  0.12057463879E+02  0.96406339297E+01  0.30051385084E+02  0.00000000000E+00 0.  1.
</event>
<event>
 5    1  0.8863861E-005  0.9118800E+02  0.7818608E-02  0.1130116E+00
         25   -1    0    0    0    0  0.00000000000E+00  0.00000000000E+00  0.99999998245E-14  0.12500000000E+03  0.12500000000E+03 0.  0.
        -11    1    3    3    0    0 -0.41162367005E+02  0.25108078425E+01 -0.42358639583E+02  0.59117670464E+02  0.51100000000E-03 0. -1.
         23    2    1    0    0    0 -0.93352943331E+01 -0.71555012079E+01 -0.26581681224E+02  0.95932239603E+02  0.91422425589E+02 0.  0.
         11    1    3    3    0    0  0.31827072672E+02 -0.96663090504E+01  0.15776958359E+02  0.36814569139E+02  0.51100000000E-03 0.  1.
         22    1    1    0    0    0  0.93352943331E+01  0.71555012079E+01  0.26581681224E+02  0.29067760397E+02  0.00000000000E+00 0. -1.
</event>
<event>
 5    1  0.8863861E-005  0.9118800E+02  0.7818608E-02  0.1130116E+00
         25   -1    0    0    0    0  0.00000000000E+00  0.00000000000E+00  0.99999998245E-14  0.12500000000E+03  0.12500000000E+03 0.  0.
        -11    1    3    3    0    0 -0.12439251610E+02  0.37858328354E+02 -0.13882646850E+02  0.42198529479E+02  0.51100000000E-03 0. -1.
         23    2    1    0    0    0  0.25799599476E+02  0.90039402901E+01  0.10221776878E+02  0.95825096463E+02  0.91275813421E+02 0.  0.
         11    1    3    3    0    0  0.38238851086E+02 -0.28854388064E+02  0.24104423729E+02  0.53626566984E+02  0.51100000000E-03 0.  1.
         22    1    1    0    0    0 -0.25799599476E+02 -0.90039402901E+01 -0.10221776878E+02  0.29174903537E+02  0.00000000000E+00 0.  1.
</event>
<event>
 5    1  0.8863861E-005  0.9118800E+02  0.7818608E-02  0.1130116E+00
         25   -1    0    0    0    0  0.00000000000E+00  0.00000000000E+00  0.99999998245E-14  0.12500000000E+03  0.12500000000E+03 0.  0.
        -11    1    3    3    0    0 -0.33198422707E+02  0.16922732750E+02 -0.12243009868E+01  0.37282879008E+02  0.51100000000E-03 0.  1.
         23    2    1    0    0    0  0.21158668569E+02  0.20896588977E+02 -0.12160811539E+02  0.92871476477E+02  0.87137070867E+02 0.  0.
         11    1    3    3    0    0  0.54357091276E+02  0.39738562267E+01 -0.10936510552E+02  0.55588597469E+02  0.51100000000E-03 0. -1.
         22    1    1    0    0    0 -0.21158668569E+02 -0.20896588977E+02  0.12160811539E+02  0.32128523523E+02  0.00000000000E+00 0. -1.
</event>
<event>
 5    1  0.8863861E-005  0.9118800E+02  0.7818608E-02  0.1130116E+00
         25   -1    0    0    0    0  0.00000000000E+00  0.00000000000E+00  0.99999998245E-14  0.12500000000E+03  0.12500000000E+03 0.  0.
        -11    1    3    3    0    0 -0.20440638823E+02 -0.41399230339E+02  0.19950453358E+02  0.50296486733E+02  0.51100000000E-03 0.  1.
         23    2    1    0    0    0 -0.29335212576E+02  0.28208673250E-01  0.49192115895E+01  0.95255183052E+02  0.90491965185E+02 0.  0.
         11    1    3    3    0    0 -0.88945737526E+01  0.41427439013E+02 -0.15031241768E+02  0.44958696319E+02  0.51100000000E-03 0. -1.
         22    1    1    0    0    0  0.29335212576E+02 -0.28208673250E-01 -0.49192115895E+01  0.29744816948E+02  0.00000000000E+00 0. -1.
</event>
<event>
 5    1  0.8863861E-005  0.9118800E+02  0.7818608E-02  0.1130116E+00
         25   -1    0    0    0    0  0.00000000000E+00  0.00000000000E+00  0.99999998245E-14  0.12500000000E+03  0.12500000000E+03 0.  0.
        -11    1    3    3    0    0  0.56866034140E+02 -0.41672452013E+01  0.75644918529E+01  0.57518112875E+02  0.51100000000E-03 0. -1.
         23    2    1    0    0    0  0.29907652220E+02 -0.11102587640E+02  0.19285978952E+02  0.87721533056E+02  0.79406443466E+02 0.  0.
         11    1    3    3    0    0 -0.26958381921E+02 -0.69353424392E+01  0.11721487099E+02  0.30203420181E+02  0.51100000000E-03 0.  1.
         22    1    1    0    0    0 -0.29907652220E+02  0.11102587640E+02 -0.19285978952E+02  0.37278466944E+02  0.00000000000E+00 0. -1.
</event>
<event>
 5    1  0.8863861E-005  0.9118800E+02  0.7818608E-02  0.1130116E+00
         25   -1    0    0    0    0  0.00000000000E+00  0.00000000000E+00  0.99999998245E-14  0.12500000000E+03  0.12500000000E+03 0.  0.
        -11    1    3    3    0    0 -0.31905661322E+02 -0.37086335668E+02 -0.29997526652E+02  0.57386576158E+02  0.51100000000E-03 0.  1.
         23    2    1    0    0    0 -0.13266982539E+02 -0.29184494413E+02 -0.78044778322E+00  0.92931999772E+02  0.87223849623E+02 0.  0.
         11    1    3    3    0    0  0.18638678783E+02  0.79018412547E+01  0.29217078869E+02  0.35545423614E+02  0.51100000000E-03 0. -1.
         22    1    1    0    0    0  0.13266982539E+02  0.29184494413E+02  0.78044778322E+00  0.32068000228E+02  0.00000000000E+00 0.  1.
</event>
<event>
 5    1  0.8863861E-005  0.9118800E+02  0.7818608E-02  0.1130116E+00
         25   -1    0    0    0    0  0.00000000000E+00  0.00000000000E+00  0.99999998245E-14  0.12500000000E+03  0.12500000000E+03 0.  0.
        -11    1    3    3    0    0 -0.16833407609E+02  0.25639835325E+02 -0.13746903923E+02  0.33611636898E+02  0.51100000000E-03 0. -1.
         23    2    1    0    0    0  0.15138649030E+02 -0.36187677188E+01  0.27473897368E+02  0.93423280556E+02  0.87925082537E+02 0.  0.
         11    1    3    3    0    0  0.31972056638E+02 -0.29258603044E+02  0.41220801291E+02  0.59811643658E+02  0.51100000000E-03 0.  1.
         22    1    1    0    0    0 -0.15138649030E+02  0.36187677188E+01 -0.27473897368E+02  0.31576719444E+02  0.00000000000E+00 0.  1.
</event>
<event>
 5    1  0.8863861E-005  0.9118800E+02  0.7818608E-02  0.1130116E+00
         25   -1    0    0    0    0  0.00000000000E+00  0.00000000000E+00  0.99999998245E-14  0.12500000000E+03  0.12500000000E+03 0.  0.
        -11    1    3    3    0    0 -0.10975758592E+02 -0.34788756419E+02  0.40026011023E+02  0.54155391315E+02  0.51100000000E-03 0. -1.
         23    2    1    0    0    0 -0.16910158726E+02  0.91616069208E+00  0.27965412018E+02  0.92306620122E+02  0.86322969310E+02 0.  0.
         11    1    3    3    0    0 -0.59344001332E+01  0.35704917111E+02 -0.12060599005E+02  0.38151228807E+02  0.51100000000E-03 0.  1.
         22    1    1    0    0    0  0.16910158726E+02 -0.91616069208E+00 -0.27965412018E+02  0.32693379878E+02  0.00000000000E+00 0. -1.
</event>
<event>
 5    1  0.8863861E-005  0.9118800E+02  0.7818608E-02  0.1130116E+00
         25   -1    0    0    0    0  0.00000000000E+00  0.00000000000E+00  0.99999998245E-14  0.12500000000E+03  0.12500000000E+03 0.  0.
        -11    1    3    3    0    0 -0.22127210568E+02  0.24281664099E+02 -0.50806618161E+01  0.33241928098E+02  0.51100000000E-03 0.  1.
         23    2    1    0    0    0  0.10055720257E+02 -0.28195867936E+02 -0.38858092798E+01  0.94813513085E+02  0.89879799016E+02 0.  0.
         11    1    3    3    0    0  0.32182930825E+02 -0.52477532035E+02  0.11948525363E+01  0.61571584987E+02  0.51100000000E-03 0. -1.
         22    1    1    0    0    0 -0.10055720257E+02  0.28195867936E+02  0.38858092798E+01  0.30186486915E+02  0.00000000000E+00 0. -1.
</event>
<event>
 5    1  0.8863861E-005  0.9118800E+02  0.7818608E-02  0.1130116E+00
         25   -1    0    0    0    0  0.00000000000E+00  0.00000000000E+00  0.99999998245E-14  0.12500000000E+03  0.12500000000E+03 0.  0.
        -11    1    3    3    0    0 -0.43414095482E+00  0.49659407785E+02 -0.33700476428E+00  0.49662448917E+02  0.51100000000E-03 0. -1.
         23    2    1    0    0    0 -0.24824106394E+02  0.88980669736E+01 -0.72179152329E+01  0.97659368068E+02  0.93754157332E+02 0.  0.
         11    1    3    3    0    0 -0.24389965439E+02 -0.40761340812E+02 -0.68809104687E+01  0.47996919151E+02  0.51100000000E-03 0.  1.
         22    1    1    0    0    0  0.24824106394E+02 -0.88980669736E+01  0.72179152329E+01  0.27340631932E+02  0.00000000000E+00 0.  1.
</event>
<event>
 5    1  0.8863861E-005  0.9118800E+02  0.7818608E-02  0.1130116E+00
         25   -1    0    0    0    0  0.00000000000E+00  0.00000000000E+00  0.99999998245E-14  0.12500000000E+03  0.12500000000E+03 0.  0.
        -11    1    3    3    0    0 -0.92792077736E+01  0.82505298721E+01  0.40676483082E+02  0.42529415893E+02  0.51100000000E-03 0.  1.
         23    2    1    0    0    0 -0.24788422894E+02  0.10363959679E+02 -0.10581181372E+02  0.96123730001E+02  0.91683872629E+02 0.  0.
         11    1    3    3    0    0 -0.15509215121E+02  0.21134298067E+01 -0.51257664454E+02  0.53594314108E+02  0.51100000000E-03 0. -1.
         22    1    1    0    0    0  0.24788422894E+02 -0.10363959679E+02  0.10581181372E+02  0.28876269999E+02  0.00000000000E+00 0.  1.
</event>
<event>
 5    1  0.8863861E-005  0.9118800E+02  0.7818608E-02  0.1130116E+00
         25   -1    0    0    0    0  0.00000000000E+00  0.00000000000E+00  0.99999998245E-14  0.12500000000E+03  0.12500000000E+03 0.  0.
        -11    1    3    3    0    0  0.40692990963E+02  0.42340499138E+02  0.10389020587E+02  0.59636977872E+02  0.51100000000E-03 0. -1.
         23    2    1    0    0    0  0.12814038273E+02  0.26293824298E+02 -0.50496450718E+01  0.95317283001E+02  0.90577705592E+02 0.  0.
         11    1    3    3    0    0 -0.27878952690E+02 -0.16046674840E+02 -0.15438665659E+02  0.35680305129E+02  0.51100000000E-03 0.  1.
         22    1    1    0    0    0 -0.12814038273E+02 -0.26293824298E+02  0.50496450718E+01  0.29682716999E+02  0.00000000000E+00 0. -1.
</event>
<event>
 5    1  0.8863861E-005  0.9118800E+02  0.7818608E-02  0.1130116E+00
         25   -1    0    0    0    0  0.00000000000E+00  0.00000000000E+00  0.99999998245E-14  0.12500000000E+03  0.12500000000E+03 0.  0.
        -11    1    3    3    0    0  0.34112994350E+02  0.39256008538E+02  0.11450698171E+02  0.53252690813E+02  0.51100000000E-03 0.  1.
         23    2    1    0    0    0  0.21042461760E+02 -0.26357633161E+00  0.20247461704E+02  0.95797014281E+02  0.91237347454E+02 0.  0.
         11    1    3    3    0    0 -0.13070532590E+02 -0.39519584870E+02  0.87967635337E+01  0.42544323469E+02  0.51100000000E-03 0. -1.
         22    1    1    0    0    0 -0.21042461760E+02  0.26357633161E+00 -0.20247461704E+02  0.29202985719E+02  0.00000000000E+00 0.  1.
</event>
<event>
 5    1  0.8863861E-005  0.9118800E+02  0.7818608E-02  0.1130116E+00
         25   -1    0    0    0    0  0.00000000000E+00  0.00000000000E+00  0.99999998245E-14  0.12500000000E+03  0.12500000000E+03 0.  0.
        -11    1    3    3    0    0  0.17448842325E+02  0.29001948506E+02 -0.91183280962E+01  0.35053088639E+02  0.51100000000E-03 0. -1.
         23    2    1    0    0    0 -0.11243474801E+01 -0.27687217225E+02 -0.12058952072E+02  0.94779733952E+02  0.89832808528E+02 0.  0.
         11    1    3    3    0    0 -0.18573189805E+02 -0.56689165730E+02 -0.29406239762E+01  0.59726645313E+02  0.51100000000E-03 0.  1.
         22    1    1    0    0    0  0.11243474801E+01  0.27687217225E+02  0.12058952072E+02  0.30220266048E+02  0.00000000000E+00 0.  1.
</event>
<event>
 5    1  0.8863861E-005  0.9118800E+02  0.7818608E-02  0.1130116E+00
         25   -1    0    0    0    0  0.00000000000E+00  0.00000000000E+00  0.99999998245E-14  0.12500000000E+03  0.12500000000E+03 0.  0.
        -11    1    3    3    0    0  0.14296758409E+02 -0.33266263885E+02 -0.15812727933E+02  0.39510555283E+02  0.51100000000E-03 0. -1.
         23    2    1    0    0    0  0.76454011243E+01  0.23532303217E+02 -0.13657523726E+02  0.96737844962E+02  0.92517356429E+02 0.  0.
         11    1    3    3    0    0 -0.66513572849E+01  0.56798567102E+02  0.21552042071E+01  0.57227289679E+02  0.51100000000E-03 0.  1.
         22    1    1    0    0    0 -0.76454011243E+01 -0.23532303217E+02  0.13657523726E+02  0.28262155038E+02  0.00000000000E+00 0.  1.
</event>
<event>
 5    1  0.8863861E-005  0.9118800E+02  0.7818608E-02  0.1130116E+00
         25   -1    0    0    0    0  0.00000000000E+00  0.00000000000E+00  0.99999998245E-14  0.12500000000E+03  0.12500000000E+03 0.  0.
        -11    1    3    3    0    0  0.12155762087E+02  0.58360758965E+02  0.91760796112E+01  0.60315347767E+02  0.51100000000E-03 0.  1.
         23    2    1    0    0    0 -0.58068893712E+01  0.28842243563E+02  0.28822329704E+01  0.95438162357E+02  0.90744369464E+02 0.  0.
         11    1    3    3    0    0 -0.17962651459E+02 -0.29518515402E+02 -0.62938466408E+01  0.35122814591E+02  0.51100000000E-03 0. -1.
         22    1    1    0    0    0  0.58068893712E+01 -0.28842243563E+02 -0.28822329704E+01  0.29561837643E+02  0.00000000000E+00 0.  1.
</event>
<event>
 5    1  0.8863861E-005  0.9118800E+02  0.7818608E-02  0.1130116E+00
         25   -1    0    0    0    0  0.00000000000E+00  0.00000000000E+00  0.99999998245E-14  0.12500000000E+03  0.12500000000E+03 0.  0.
        -11    1    3    3    0    0 -0.88502913822E+01  0.55765068727E+02 -0.82429473618E+01  0.57061517059E+02  0.51100000000E-03 0. -1.
         23    2    1    0    0    0  0.57925088832E+01  0.24276981426E+02 -0.19238958519E+02  0.93487105636E+02  0.88015773637E+02 0.  0.
         11    1    3    3    0    0  0.14642800265E+02 -0.31488087301E+02 -0.10996011158E+02  0.36425588576E+02  0.51100000000E-03 0.  1.
         22    1    1    0    0    0 -0.57925088832E+01 -0.24276981426E+02  0.19238958519E+02  0.31512894364E+02  0.00000000000E+00 0. -1.
</event>
<event>
 5    1  0.8863861E-005  0.9118800E+02  0.7818608E-02  0.1130116E+00
         25   -1    0    0    0    0  0.00000000000E+00  0.00000000000E+00  0.99999998245E-14  0.12500000000E+03  0.12500000000E+03 0.  0.
        -11    1    3    3    0    0 -0.13540212912E+01 -0.45039769041E+02 -0.47817286453E+01  0.45313122802E+02  0.51100000000E-03 0.  1.
         23    2    1    0    0    0  0.12190529991E+02 -0.73538286627E+01  0.25686388979E+02  0.95632017498E+02  0.91011012380E+02 0.  0.
         11    1    3    3    0    0  0.13544551282E+02  0.37685940378E+02  0.30468117624E+02  0.50318894696E+02  0.51100000000E-03 0. -1.
         22    1    1    0    0    0 -0.12190529991E+02  0.73538286627E+01 -0.25686388979E+02  0.29367982502E+02  0.00000000000E+00 0. -1.
</event>
<event>
 5    1  0.8863861E-005  0.9118800E+02  0.7818608E-02  0.1130116E+00
         25   -1    0    0    0    0  0.00000000000E+00  0.00000000000E+00  0.99999998245E-14  0.12500000000E+03  0.12500000000E+03 0.  0.
        -11    1    3    3    0    0  0.52421585625E+01  0.10308114925E+02 -0.59320849510E+02  0.60437576445E+02  0.51100000000E-03 0. -1.
         23    2    1    0    0    0 -0.86656396686E+01  0.61571415327E+01 -0.30377848736E+02  0.92815882853E+02  0.87057284091E+02 0.  0.
         11    1    3    3    0    0 -0.13907798231E+02 -0.41509733924E+01  0.28943000774E+02  0.32378306408E+02  0.51100000000E-03 0.  1.
         22    1    1    0    0    0  0.86656396686E+01 -0.61571415327E+01  0.30377848736E+02  0.32184117147E+02  0.00000000000E+00 0. -1.
</event>
<event>
 5    1  0.8863861E-005  0.9118800E+02  0.7818608E-02  0.1130116E+00
         25   -1    0    0    0    0  0.00000000000E+00  0.00000000000E+00  0.99999998245E-14  0.12500000000E+03  0.12500000000E+03 0.  0.
        -11    1    3    3    0    0 -0.16282514940E+02  0.31132385354E+02  0.75591385107E+01  0.35937254846E+02  0.51100000000E-03 0.  1.
         23    2    1    0    0    0 -0.32965266909E+01 -0.22836319044E+02 -0.16701669736E+02  0.96516490251E+02  0.92217799598E+02 0.  0.
         11    1    3    3    0    0  0.12985988250E+02 -0.53968704397E+02 -0.24260808246E+02  0.60579235404E+02  0.51100000000E-03 0. -1.
         22    1    1    0    0    0  0.32965266909E+01  0.22836319044E+02  0.16701669736E+02  0.28483509749E+02  0.00000000000E+00 0. -1.
</event>
<event>
 5    1  0.8863861E-005  0.9118800E+02  0.7818608E-02  0.1130116E+00
         25   -1    0    0    0    0  0.00000000000E+00  0.00000000000E+00  0.99999998245E-14  0.12500000000E+03  0.12500000000E+03 0.  0.
        -11    1    3    3    0    0  0.50960996177E+02  0.10640458908E+02 -0.33467034066E+02  0.61889295250E+02  0.51100000000E-03 0.  1.
         23    2    1    0    0    0  0.20285601901E+02 -0.87620748849E+00 -0.16776267507E+02  0.98661500887E+02  0.95080887784E+02 0.  0.
         11    1    3    3    0    0 -0.30675394276E+02 -0.11516666396E+02  0.16690766559E+02  0.36772205637E+02  0.51100000000E-03 0. -1.
         22    1    1    0    0    0 -0.20285601901E+02  0.87620748849E+00  0.16776267507E+02  0.26338499113E+02  0.00000000000E+00 0.  1.
</event>
<event>
 5    1  0.8863861E-005  0.9118800E+02  0.7818608E-02  0.1130116E+00
         25   -1    0    0    0    0  0.00000000000E+00  0.00000000000E+00  0.99999998245E-14  0.12500000000E+03  0.12500000000E+03 0.  0.
        -11    1    3    3    0    0  0.19326689037E+02  0.20378997154E+02 -0.33940582681E+02  0.44054370806E+02  0.51100000000E-03 0. -1.
         23    2    1    0    0    0  0.14801606796E+02 -0.23705174176E+02 -0.60827267049E+01  0.96398908926E+02  0.92058281710E+02 0.  0.
         11    1    3    3    0    0 -0.45250822405E+01 -0.44084171330E+02  0.27857855976E+02  0.52344538120E+02  0.51100000000E-03 0.  1.
         22    1    1    0    0    0 -0.14801606796E+02  0.23705174176E+02  0.60827267049E+01  0.28601091074E+02  0.00000000000E+00 0.  1.
</event>
<event>
 5    1  0.8863861E-005  0.9118800E+02  0.7818608E-02  0.1130116E+00
         25   -1    0    0    0    0  0.00000000000E+00  0.00000000000E+00  0.99999998245E-14  0.12500000000E+03  0.12500000000E+03 0.  0.
        -11    1    3    3    0    0  0.24668722413E+02 -0.21407379205E+02 -0.11347913098E+02  0.34577404209E+02  0.51100000000E-03 0.  1.
         23    2    1    0    0    0 -0.21693623268E+02  0.45619642802E+01  0.19026972004E+02  0.95786125347E+02  0.91222427816E+02 0.  0.
         11    1    3    3    0    0 -0.46362345681E+02  0.25969343485E+02  0.30374885102E+02  0.61208721138E+02  0.51100000000E-03 0. -1.
         22    1    1    0    0    0  0.21693623268E+02 -0.45619642802E+01 -0.19026972004E+02  0.29213874653E+02  0.00000000000E+00 0. -1.
</event>
<event>
 5    1  0.8863861E-005  0.9118800E+02  0.7818608E-02  0.1130116E+00
         25   -1    0    0    0    0  0.00000000000E+00  0.00000000000E+00  0.99999998245E-14  0.12500000000E+03  0.12500000000E+03 0.  0.
        -11    1    3    3    0    0 -0.30594279715E+02 -0.19238881569E+01 -0.27825283199E+02  0.41399972008E+02  0.51100000000E-03 0.  1.
         23    2    1    0    0    0  0.16152039557E+02  0.20684312365E+02 -0.14534626235E+02  0.95000258007E+02  0.90139139677E+02 0.  0.
         11    1    3    3    0    0  0.46746319272E+02  0.22608200522E+02  0.13290656964E+02  0.53600285998E+02  0.51100000000E-03 0. -1.
         22    1    1    0    0    0 -0.16152039557E+02 -0.20684312365E+02  0.14534626235E+02  0.29999741993E+02  0.00000000000E+00 0. -1.
</event>
<event>
 5    1  0.8863861E-005  0.9118800E+02  0.7818608E-02  0.1130116E+00
         25   -1    0    0    0    0  0.00000000000E+00  0.00000000000E+00  0.99999998245E-14  0.12500000000E+03  0.12500000000E+03 0.  0.
        -11    1    3    3    0    0 -0.41164874256E+01 -0.34033933836E+02 -0.80662004153E+01  0.35218144620E+02  0.51100000000E-03 0. -1.
         23    2    1    0    0    0  0.20202532076E+02  0.20481033711E+02  0.34931351354E+01  0.96020403087E+02  0.91542890340E+02 0.  0.
         11    1    3    3    0    0  0.24319019502E+02  0.54514967546E+02  0.11559335551E+02  0.60802258468E+02  0.51100000000E-03 0.  1.
         22    1    1    0    0    0 -0.20202532076E+02 -0.20481033711E+02 -0.34931351354E+01  0.28979596913E+02  0.00000000000E+00 0.  1.
</event>
<event>
 5    1  0.8863861E-005  0.9118800E+02  0.7818608E-02  0.1130116E+00
         25   -1    0    0    0    0  0.00000000000E+00  0.00000000000E+00  0.99999998245E-14  0.12500000000E+03  0.12500000000E+03 0.  0.
        -11    1    3    3    0    0 -0.37130535295E+02 -0.20560102894E+02 -0.40922527245E+02  0.58958016577E+02  0.51100000000E-03 0. -1.
         23    2    1    0    0    0 -0.16138654865E+02  0.27322920206E+01 -0.27351626562E+02  0.93124726258E+02  0.87499608939E+02 0.  0.
         11    1    3    3    0    0  0.20991880430E+02  0.23292394915E+02  0.13570900683E+02  0.34166709681E+02  0.51100000000E-03 0.  1.
         22    1    1    0    0    0  0.16138654865E+02 -0.27322920206E+01  0.27351626562E+02  0.31875273742E+02  0.00000000000E+00 0. -1.
</event>
<event>
 5    1  0.8863861E-005  0.9118800E+02  0.7818608E-02  0.1130116E+00
         25   -1    0    0    0    0  0.00000000000E+00  0.00000000000E+00  0.99999998245E-14  0.12500000000E+03  0.12500000000E+03 0.  0.
        -11    1    3    3    0    0  0.82482484963E+01 -0.50006365188E+02  0.35175908460E+02  0.61692906390E+02  0.51100000000E-03 0.  1.
         23    2    1    0    0    0  0.53243484074E+01 -0.20082440870E+02  0.22650651446E+02  0.94263944166E+02  0.89112210396E+02 0.  0.
         11    1    3    3    0    0 -0.29239000889E+01  0.29923924318E+02 -0.12525257014E+02  0.32571037776E+02  0.51100000000E-03 0. -1.
         22    1    1    0    0    0 -0.53243484074E+01  0.20082440870E+02 -0.22650651446E+02  0.30736055834E+02  0.00000000000E+00 0.  1.
</event>
<event>
 5    1  0.8863861E-005  0.9118800E+02  0.7818608E-02  0.1130116E+00
         25   -1    0    0    0    0  0.00000000000E+00  0.00000000000E+00  0.99999998245E-14  0.12500000000E+03  0.12500000000E+03 0.  0.
        -11    1    3    3    0    0 -0.20817308917E+02 -0.41507922861E+02  0.35970451809E+02  0.58737904409E+02  0.51100000000E-03 0.  1.
         23    2    1    0    0    0 -0.13533938567E+02 -0.60804423387E+01  0.23903346694E+02  0.96866225718E+02  0.92690649094E+02 0.  0.
         11    1    3    3    0    0  0.72833703503E+01  0.35427480522E+02 -0.12067105114E+02  0.38128321309E+02  0.51100000000E-03 0. -1.
         22    1    1    0    0    0  0.13533938567E+02  0.60804423387E+01 -0.23903346694E+02  0.28133774282E+02  0.00000000000E+00 0.  1.
</event>
<event>
 5    1  0.8863861E-005  0.9118800E+02  0.7818608E-02  0.1130116E+00
         25   -1    0    0    0    0  0.00000000000E+00  0.00000000000E+00  0.99999998245E-14  0.12500000000E+03  0.12500000000E+03 0.  0.
        -11    1    3    3    0    0 -0.27036118758E+02 -0.13917672438E+02 -0.27230696776E+02  0.40818674290E+02  0.51100000000E-03 0. -1.
         23    2    1    0    0    0 -0.33458390987E+02  0.23741594557E+02 -0.18442478153E+02  0.80019423748E+02  0.66180480029E+02 0.  0.
         11    1    3    3    0    0 -0.64222722291E+01  0.37659266996E+02  0.87882186232E+01  0.39200749458E+02  0.51100000000E-03 0.  1.
         22    1    1    0    0    0  0.33458390987E+02 -0.23741594557E+02  0.18442478153E+02  0.44980576252E+02  0.00000000000E+00 0. -1.
</event>
<event>
 5    1  0.8863861E-005  0.9118800E+02  0.7818608E-02  0.1130116E+00
         25   -1    0    0    0    0  0.00000000000E+00  0.00000000000E+00  0.99999998245E-14  0.12500000000E+03  0.12500000000E+03 0.  0.
        -11    1    3    3    0    0  0.20527300654E+02 -0.16963255206E+02  0.39992012118E+02  0.48046676606E+02  0.51100000000E-03 0.  1.
         23    2    1    0    0    0  0.19627148058E+02 -0.25636584022E+02 -0.36096231405E+01  0.92511713489E+02  0.86619445693E+02 0.  0.
         11    1    3    3    0    0 -0.90015259613E+00 -0.86733288162E+01 -0.43601635259E+02  0.44465036883E+02  0.51100000000E-03 0. -1.
         22    1    1    0    0    0 -0.19627148058E+02  0.25636584022E+02  0.36096231405E+01  0.32488286511E+02  0.00000000000E+00 0.  1.
</event>
<event>
 5    1  0.8863861E-005  0.9118800E+02  0.7818608E-02  0.1130116E+00
         25   -1    0    0    0    0  0.00000000000E+00  0.00000000000E+00  0.99999998245E-14  0.12500000000E+03  0.12500000000E+03 0.  0.
        -11    1    3    3    0    0  0.25105467641E+02 -0.26697730440E+02 -0.75797928763E+01  0.37423342668E+02  0.51100000000E-03 0. -1.
         23    2    1    0    0    0 -0.37225636080E+01  0.26470916017E+02 -0.34773117295E+01  0.98043394660E+02  0.94264779558E+02 0.  0.
         11    1    3    3    0    0 -0.28828031249E+02  0.53168646457E+02  0.41024811468E+01  0.60620051992E+02  0.51100000000E-03 0.  1.
         22    1    1    0    0    0  0.37225636080E+01 -0.26470916017E+02  0.34773117295E+01  0.26956605340E+02  0.00000000000E+00 0.  1.
</event>
<event>
 5    1  0.8863861E-005  0.9118800E+02  0.7818608E-02  0.1130116E+00
         25   -1    0    0    0    0  0.00000000000E+00  0.00000000000E+00  0.99999998245E-14  0.12500000000E+03  0.12500000000E+03 0.  0.
        -11    1    3    3    0    0 -0.19270399559E+02 -0.51755261148E+02  0.15972830965E+02  0.57489883327E+02  0.51100000000E-03 0.  1.
         23    2    1    0    0    0 -0.21859954320E+02 -0.19621527075E+02 -0.39104254544E+01  0.95366347595E+02  0.90645390941E+02 0.  0.
         11    1    3    3    0    0 -0.25895547609E+01  0.32133734073E+02 -0.19883256420E+02  0.37876464268E+02  0.51100000000E-03 0. -1.
         22    1    1    0    0    0  0.21859954320E+02  0.19621527075E+02  0.39104254544E+01  0.29633652405E+02  0.00000000000E+00 0. -1.
</event>
<event>
 5    1  0.8863861E-005  0.9118800E+02  0.7818608E-02  0.1130116E+00
         25   -1    0    0    0    0  0.00000000000E+00  0.00000000000E+00  0.99999998245E-14  0.12500000000E+03  0.12500000000E+03 0.  0.
        -11    1    3    3    0    0  0.56358844649E+02 -0.67785797282E+01 -0.43856760226E+01  0.56934195944E+02  0.51100000000E-03 0. -1.
         23    2    1    0    0    0  0.24033299527E+02 -0.64345297336E+01  0.16247421984E+02  0.95284997389E+02  0.90533139497E+02 0.  0.
         11    1    3    3    0    0 -0.32325545122E+02  0.34404999466E+00  0.20633098007E+02  0.38350801445E+02  0.51100000000E-03 0.  1.
         22    1    1    0    0    0 -0.24033299527E+02  0.64345297336E+01 -0.16247421984E+02  0.29715002611E+02  0.00000000000E+00 0. -1.
</event>
<event>
 5    1  0.8863861E-005  0.9118800E+02  0.7818608E-02  0.1130116E+00
         25   -1    0    0    0    0  0.00000000000E+00  0.00000000000E+00  0.99999998245E-14  0.12500000000E+03  0.12500000000E+03 0.  0.
        -11    1    3    3    0    0 -0.13267383540E+02  0.49773486267E+02 -0.42017767150E+01  0.51682476033E+02  0.51100000000E-03 0.  1.
         23    2    1    0    0    0  0.19202816357E+02  0.26346690784E+02  0.25967872713E+01  0.92294655246E+02  0.86305641829E+02 0.  0.
         11    1    3    3    0    0  0.32470199897E+02 -0.23426795482E+02  0.67985639863E+01  0.40612179213E+02  0.51100000000E-03 0. -1.
         22    1    1    0    0    0 -0.19202816357E+02 -0.26346690784E+02 -0.25967872713E+01  0.32705344754E+02  0.00000000000E+00 0. -1.
</event>
<event>
 5    1  0.8863861E-005  0.9118800E+02  0.7818608E-02  0.1130116E+00
         25   -1    0    0    0    0  0.00000000000E+00  0.00000000000E+00  0.99999998245E-14  0.12500000000E+03  0.12500000000E+03 0.  0.
        -11    1    3    3    0    0 -0.32767393014E+02 -0.84670293132E+01  0.84535238316E+01  0.34883444437E+02  0.51100000000E-03 0.  1.
         23    2    1    0    0    0  0.25690889904E+02  0.87681910530E+01  0.10576353597E+02  0.95866475431E+02  0.91332463329E+02 0.  0.
         11    1    3    3    0    0  0.58458282918E+02  0.17235220366E+02  0.21228297649E+01  0.60983030995E+02  0.51100000000E-03 0. -1.
         22    1    1    0    0    0 -0.25690889904E+02 -0.87681910530E+01 -0.10576353597E+02  0.29133524569E+02  0.00000000000E+00 0. -1.
</event>
<event>
 5    1  0.8863861E-005  0.9118800E+02  0.7818608E-02  0.1130116E+00
         25   -1    0    0    0    0  0.00000000000E+00  0.00000000000E+00  0.99999998245E-14  0.12500000000E+03  0.12500000000E+03 0.  0.
        -11    1    3    3    0    0  0.10459500263E+02 -0.90464534256E+01  0.29239367730E+02  0.32344707308E+02  0.51100000000E-03 0. -1.
         23    2    1    0    0    0 -0.19972011581E+02  0.15361295029E+02 -0.18313402320E+02  0.93851463339E+02  0.88531722195E+02 0.  0.
         11    1    3    3    0    0 -0.30431511844E+02  0.24407748455E+02 -0.47552770050E+02  0.61506756031E+02  0.51100000000E-03 0.  1.
         22    1    1    0    0    0  0.19972011581E+02 -0.15361295029E+02  0.18313402320E+02  0.31148536661E+02  0.00000000000E+00 0.  1.
</event>
<event>
 5    1  0.8863861E-005  0.9118800E+02  0.7818608E-02  0.1130116E+00
         25   -1    0    0    0    0  0.00000000000E+00  0.00000000000E+00  0.99999998245E-14  0.12500000000E+03  0.12500000000E+03 0.  0.
        -11    1    3    3    0    0 -0.41332897191E+02 -0.20918581112E+02  0.10233674490E+02  0.47441790858E+02  0.51100000000E-03 0. -1.
         23    2    1    0    0    0 -0.13245649203E+02  0.63766729835E+00 -0.24564067299E+02  0.97084999648E+02  0.92985213405E+02 0.  0.
         11    1    3    3    0    0  0.28087247989E+02  0.21556248410E+02 -0.34797741789E+02  0.49643208790E+02  0.51100000000E-03 0.  1.
         22    1    1    0    0    0  0.13245649203E+02 -0.63766729835E+00  0.24564067299E+02  0.27915000352E+02  0.00000000000E+00 0.  1.
</event>
<event>
 5    1  0.8863861E-005  0.9118800E+02  0.7818608E-02  0.1130116E+00
         25   -1    0    0    0    0  0.00000000000E+00  0.00000000000E+00  0.99999998245E-14  0.12500000000E+03  0.12500000000E+03 0.  0.
        -11    1    3    3    0    0  0.33203813500E+02  0.15359139209E+02 -0.13936160986E+02  0.39148601144E+02  0.51100000000E-03 0.  1.
         23    2    1    0    0    0 -0.21387165641E+02  0.20371925169E+02 -0.11491426567E+01  0.95440793006E+02  0.90747993100E+02 0.  0.
         11    1    3    3    0    0 -0.54590979141E+02  0.50127859591E+01  0.12787018330E+02  0.56292191863E+02  0.51100000000E-03 0. -1.
         22    1    1    0    0    0  0.21387165641E+02 -0.20371925169E+02  0.11491426567E+01  0.29559206994E+02  0.00000000000E+00 0. -1.
</event>
<event>
 5    1  0.8863861E-005  0.9118800E+02  0.7818608E-02  0.1130116E+00
         25   -1    0    0    0    0  0.00000000000E+00  0.00000000000E+00  0.99999998245E-14  0.12500000000E+03  0.12500000000E+03 0.  0.
        -11    1    3    3    0    0 -0.17027224629E+02 -0.45318864137E+02 -0.12871172515E+02  0.50093841013E+02  0.51100000000E-03 0.  1.
         23    2    1    0    0    0 -0.22254163612E+02 -0.20565860066E+01  0.11333318348E+02  0.99941639143E+02  0.96749210775E+02 0.  0.
         11    1    3    3    0    0 -0.52269389832E+01  0.43262278130E+02  0.24204490863E+02  0.49847798130E+02  0.51100000000E-03 0. -1.
         22    1    1    0    0    0  0.22254163612E+02  0.20565860066E+01 -0.11333318348E+02  0.25058360857E+02  0.00000000000E+00 0. -1.
</event>
<event>
 5    1  0.8863861E-005  0.9118800E+02  0.7818608E-02  0.1130116E+00
         25   -1    0    0    0    0  0.00000000000E+00  0.00000000000E+00  0.99999998245E-14  0.12500000000E+03  0.12500000000E+03 0.  0.
        -11    1    3    3    0    0  0.14172212391E+02 -0.39171794275E+02  0.40409050633E+02  0.58035958199E+02  0.51100000000E-03 0. -1.
         23    2    1    0    0    0  0.50465426231E+01 -0.29497242460E+02  0.66164147948E+01  0.94351478830E+02  0.89234913053E+02 0.  0.
         11    1    3    3    0    0 -0.91256697684E+01  0.96745518157E+01 -0.33792635838E+02  0.36315520631E+02  0.51100000000E-03 0.  1.
         22    1    1    0    0    0 -0.50465426231E+01  0.29497242460E+02 -0.66164147948E+01  0.30648521170E+02  0.00000000000E+00 0. -1.
</event>
<event>
 5    1  0.8863861E-005  0.9118800E+02  0.7818608E-02  0.1130116E+00
         25   -1    0    0    0    0  0.00000000000E+00  0.00000000000E+00  0.99999998245E-14  0.12500000000E+03  0.12500000000E+03 0.  0.
        -11    1    3    3    0    0  0.32497758515E+00  0.13907070947E+02  0.23062162049E+02  0.26932796947E+02  0.51100000000E-03 0.  1.
         23    2    1    0    0    0  0.25442630340E+02 -0.17780813810E+02 -0.21603087519E+02  0.87182303498E+02  0.78553013147E+02 0.  0.
         11    1    3    3    0    0  0.25117652754E+02 -0.31687884757E+02 -0.44665249569E+02  0.60249506551E+02  0.51100000000E-03 0. -1.
         22    1    1    0    0    0 -0.25442630340E+02  0.17780813810E+02  0.21603087519E+02  0.37817696502E+02  0.00000000000E+00 0. -1.
</event>
<event>
 5    1  0.8863861E-005  0.9118800E+02  0.7818608E-02  0.1130116E+00
         25   -1    0    0    0    0  0.00000000000E+00  0.00000000000E+00  0.99999998245E-14  0.12500000000E+03  0.12500000000E+03 0.  0.
        -11    1    3    3    0    0  0.18454875217E+02 -0.33191952573E+02 -0.27649557333E+01  0.38077987281E+02  0.51100000000E-03 0.  1.
         23    2    1    0    0    0  0.10057158610E+02  0.24237659230E+02 -0.10705307469E+02  0.96658966634E+02  0.92410722638E+02 0.  0.
         11    1    3    3    0    0 -0.83977166070E+01  0.57429611803E+02 -0.79403517361E+01  0.58580979353E+02  0.51100000000E-03 0. -1.
         22    1    1    0    0    0 -0.10057158610E+02 -0.24237659230E+02  0.10705307469E+02  0.28341033366E+02  0.00000000000E+00 0. -1.
</event>
<event>
 5    1  0.8863861E-005  0.9118800E+02  0.7818608E-02  0.1130116E+00
         25   -1    0    0    0    0  0.00000000000E+00  0.00000000000E+00  0.99999998245E-14  0.12500000000E+03  0.12500000000E+03 0.  0.
        -11    1    3    3    0    0  0.21588702447E+02 -0.52834380056E+02 -0.45631452362E+01  0.57257017770E+02  0.51100000000E-03 0. -1.
         23    2    1    0    0    0  0.29914602836E+01 -0.21227316848E+02 -0.18693136270E+02  0.96557405906E+02  0.92273243556E+02 0.  0.
         11    1    3    3    0    0 -0.18597242164E+02  0.31607063207E+02 -0.14129991034E+02  0.39300388135E+02  0.51100000000E-03 0.  1.
         22    1    1    0    0    0 -0.29914602836E+01  0.21227316848E+02  0.18693136270E+02  0.28442594094E+02  0.00000000000E+00 0. -1.
</event>
<event>
 5    1  0.8863861E-005  0.9118800E+02  0.7818608E-02  0.1130116E+00
         25   -1    0    0    0    0  0.00000000000E+00  0.00000000000E+00  0.99999998245E-14  0.12500000000E+03  0.12500000000E+03 0.  0.
        -11    1    3    3    0    0  0.24603271136E+01 -0.44133566061E+02  0.40083482888E+02  0.59670013101E+02  0.51100000000E-03 0.  1.
         23    2    1    0    0    0  0.14141045850E+02 -0.20067570541E+02  0.15749928565E+02  0.95832606991E+02  0.91286098327E+02 0.  0.
         11    1    3    3    0    0  0.11680718736E+02  0.24065995520E+02 -0.24333554324E+02  0.36162593890E+02  0.51100000000E-03 0. -1.
         22    1    1    0    0    0 -0.14141045850E+02  0.20067570541E+02 -0.15749928565E+02  0.29167393009E+02  0.00000000000E+00 0.  1.
</event>
<event>
 5    1  0.8863861E-005  0.9118800E+02  0.7818608E-02  0.1130116E+00
         25   -1    0    0    0    0  0.00000000000E+00  0.00000000000E+00  0.99999998245E-14  0.12500000000E+03  0.12500000000E+03 0.  0.
        -11    1    3    3    0    0 -0.54094003204E+01  0.35989705066E+02  0.44523135557E+02  0.57505043975E+02  0.51100000000E-03 0.  1.
         23    2    1    0    0    0 -0.13964240558E+02  0.34052110488E+02  0.20964367624E+02  0.82643761346E+02  0.70964359621E+02 0.  0.
         11    1    3    3    0    0 -0.85548402373E+01 -0.19375945774E+01 -0.23558767933E+02  0.25138717370E+02  0.51100000000E-03 0. -1.
         22    1    1    0    0    0  0.13964240558E+02 -0.34052110488E+02 -0.20964367624E+02  0.42356238654E+02  0.00000000000E+00 0.  1.
</event>
<event>
 5    1  0.8863861E-005  0.9118800E+02  0.7818608E-02  0.1130116E+00
         25   -1    0    0    0    0  0.00000000000E+00  0.00000000000E+00  0.99999998245E-14  0.12500000000E+03  0.12500000000E+03 0.  0.
        -11    1    3    3    0    0 -0.46815732361E+02  0.45460213844E+01 -0.89018395852E+00  0.47044357097E+02  0.51100000000E-03 0.  1.
         23    2    1    0    0    0 -0.12502597018E+02 -0.22115277056E+02  0.17418263628E+02  0.94197462454E+02  0.89018905933E+02 0.  0.
         11    1    3    3    0    0  0.34313135343E+02 -0.26661298440E+02  0.18308447586E+02  0.47153105358E+02  0.51100000000E-03 0. -1.
         22    1    1    0    0    0  0.12502597018E+02  0.22115277056E+02 -0.17418263628E+02  0.30802537546E+02  0.00000000000E+00 0. -1.
</event>
<event>
 5    1  0.8863861E-005  0.9118800E+02  0.7818608E-02  0.1130116E+00
         25   -1    0    0    0    0  0.00000000000E+00  0.00000000000E+00  0.99999998245E-14  0.12500000000E+03  0.12500000000E+03 0.  0.
        -11    1    3    3    0    0 -0.50715515183E+02  0.63053281038E+01 -0.25827088168E+02  0.57261323127E+02  0.51100000000E-03 0.  1.
         23    2    1    0    0    0 -0.11571102665E+02  0.78806161651E+01 -0.24883271787E+02  0.96448787366E+02  0.92125983531E+02 0.  0.
         11    1    3    3    0    0  0.39144412518E+02  0.15752880613E+01  0.94381638044E+00  0.39187464239E+02  0.51100000000E-03 0. -1.
         22    1    1    0    0    0  0.11571102665E+02 -0.78806161651E+01  0.24883271787E+02  0.28551212634E+02  0.00000000000E+00 0.  1.
</event>
<event>
 5    1  0.8863861E-005  0.9118800E+02  0.7818608E-02  0.1130116E+00
         25   -1    0    0    0    0  0.00000000000E+00  0.00000000000E+00  0.99999998245E-14  0.12500000000E+03  0.12500000000E+03 0.  0.
        -11    1    3    3    0    0  0.15283194573E+02 -0.48408157943E+01 -0.39269727957E+02  0.42416047293E+02  0.51100000000E-03 0.  1.
         23    2    1    0    0    0  0.25001542324E+02 -0.77177093081E+01  0.13086525829E+02  0.95744277247E+02  0.91165066291E+02 0.  0.
         11    1    3    3    0    0  0.97183477508E+01 -0.28768935139E+01  0.52356253785E+02  0.53328229954E+02  0.51100000000E-03 0. -1.
         22    1    1    0    0    0 -0.25001542324E+02  0.77177093081E+01 -0.13086525829E+02  0.29255722753E+02  0.00000000000E+00 0. -1.
</event>
<event>
 5    1  0.8863861E-005  0.9118800E+02  0.7818608E-02  0.1130116E+00
         25   -1    0    0    0    0  0.00000000000E+00  0.00000000000E+00  0.99999998245E-14  0.12500000000E+03  0.12500000000E+03 0.  0.
        -11    1    3    3    0    0  0.37754382542E+02  0.26354088986E+01  0.25539535951E+02  0.45657493120E+02  0.51100000000E-03 0. -1.
         23    2    1    0    0    0  0.55971864000E+01  0.25892297981E+02 -0.76876433539E+01  0.97416681660E+02  0.93430029514E+02 0.  0.
         11    1    3    3    0    0 -0.32157196142E+02  0.23256889082E+02 -0.33227179305E+02  0.51759188540E+02  0.51100000000E-03 0.  1.
         22    1    1    0    0    0 -0.55971864000E+01 -0.25892297981E+02  0.76876433539E+01  0.27583318340E+02  0.00000000000E+00 0.  1.
</event>
<event>
 5    1  0.8863861E-005  0.9118800E+02  0.7818608E-02  0.1130116E+00
         25   -1    0    0    0    0  0.00000000000E+00  0.00000000000E+00  0.99999998245E-14  0.12500000000E+03  0.12500000000E+03 0.  0.
        -11    1    3    3    0    0 -0.25514910885E+02 -0.27817409321E+02 -0.14205726527E+02  0.40331397263E+02  0.51100000000E-03 0. -1.
         23    2    1    0    0    0 -0.15062429526E+02  0.18353673496E+01  0.28114082036E+02  0.93052434126E+02  0.87396272984E+02 0.  0.
         11    1    3    3    0    0  0.10452481360E+02  0.29652776671E+02  0.42319808563E+02  0.52721036863E+02  0.51100000000E-03 0.  1.
         22    1    1    0    0    0  0.15062429526E+02 -0.18353673496E+01 -0.28114082036E+02  0.31947565874E+02  0.00000000000E+00 0.  1.
</event>
<event>
 5    1  0.8863861E-005  0.9118800E+02  0.7818608E-02  0.1130116E+00
         25   -1    0    0    0    0  0.00000000000E+00  0.00000000000E+00  0.99999998245E-14  0.12500000000E+03  0.12500000000E+03 0.  0.
        -11    1    3    3    0    0  0.42642866047E+02  0.26236342838E+02  0.32844220253E+02  0.59879065745E+02  0.51100000000E-03 0.  1.
         23    2    1    0    0    0  0.19797139733E+02  0.21750316584E+02  0.67988845875E+01  0.94813449274E+02  0.89879710271E+02 0.  0.
         11    1    3    3    0    0 -0.22845726314E+02 -0.44860262545E+01 -0.26045335665E+02  0.34934383529E+02  0.51100000000E-03 0. -1.
         22    1    1    0    0    0 -0.19797139733E+02 -0.21750316584E+02 -0.67988845875E+01  0.30186550726E+02  0.00000000000E+00 0.  1.
</event>
<event>
 5    1  0.8863861E-005  0.9118800E+02  0.7818608E-02  0.1130116E+00
         25   -1    0    0    0    0  0.00000000000E+00  0.00000000000E+00  0.99999998245E-14  0.12500000000E+03  0.12500000000E+03 0.  0.
        -11    1    3    3    0    0 -0.39944905854E+02 -0.22404129221E+02 -0.36111760396E+02  0.58323235070E+02  0.51100000000E-03 0.  1.
         23    2    1    0    0    0 -0.16347315070E+02  0.42372869722E+01 -0.23458527116E+02  0.96095124886E+02  0.91644864676E+02 0.  0.
         11    1    3    3    0    0  0.23597590783E+02  0.26641416193E+02  0.12653233280E+02  0.37771889816E+02  0.51100000000E-03 0. -1.
         22    1    1    0    0    0  0.16347315070E+02 -0.42372869722E+01  0.23458527116E+02  0.28904875114E+02  0.00000000000E+00 0.  1.
</event>
<event>
 5    1  0.8863861E-005  0.9118800E+02  0.7818608E-02  0.1130116E+00
         25   -1    0    0    0    0  0.00000000000E+00  0.00000000000E+00  0.99999998245E-14  0.12500000000E+03  0.12500000000E+03 0.  0.
        -11    1    3    3    0    0  0.16451606826E+02  0.32043458353E+02 -0.28707314202E+02  0.46060270075E+02  0.51100000000E-03 0. -1.
         23    2    1    0    0    0  0.18840873281E+02  0.14214046159E+02  0.17482261469E+02  0.95629145735E+02  0.91007068043E+02 0.  0.
         11    1    3    3    0    0  0.23892664551E+01 -0.17829412195E+02  0.46189575670E+02  0.49568875661E+02  0.51100000000E-03 0.  1.
         22    1    1    0    0    0 -0.18840873281E+02 -0.14214046159E+02 -0.17482261469E+02  0.29370854265E+02  0.00000000000E+00 0. -1.
</event>
<event>
 5    1  0.8863861E-005  0.9118800E+02  0.7818608E-02  0.1130116E+00
         25   -1    0    0    0    0  0.00000000000E+00  0.00000000000E+00  0.99999998245E-14  0.12500000000E+03  0.12500000000E+03 0.  0.
        -11    1    3    3    0    0 -0.87912055399E+01  0.41515575864E+02  0.29984562648E+02  0.51960584404E+02  0.51100000000E-03 0. -1.
         23    2    1    0    0    0  0.16993001702E+02  0.24254661938E+02 -0.39120585057E+00  0.95382373920E+02  0.90667488550E+02 0.  0.
         11    1    3    3    0    0  0.25784207242E+02 -0.17260913926E+02 -0.30375768498E+02  0.43421789516E+02  0.51100000000E-03 0.  1.
         22    1    1    0    0    0 -0.16993001702E+02 -0.24254661938E+02  0.39120585057E+00  0.29617626080E+02  0.00000000000E+00 0. -1.
</event>
<event>
 5    1  0.8863861E-005  0.9118800E+02  0.7818608E-02  0.1130116E+00
         25   -1    0    0    0    0  0.00000000000E+00  0.00000000000E+00  0.99999998245E-14  0.12500000000E+03  0.12500000000E+03 0.  0.
        -11    1    3    3    0    0  0.50477955961E+02 -0.45510893608E+01 -0.76905154992E+01  0.51262856741E+02  0.51100000000E-03 0.  1.
         23    2    1    0    0    0  0.98486506597E+01 -0.14332362478E+02 -0.23345882286E+02  0.95889129973E+02  0.91363463667E+02 0.  0.
         11    1    3    3    0    0 -0.40629305301E+02 -0.97812731171E+01 -0.15655366787E+02  0.44626273232E+02  0.51100000000E-03 0. -1.
         22    1    1    0    0    0 -0.98486506597E+01  0.14332362478E+02  0.23345882286E+02  0.29110870027E+02  0.00000000000E+00 0. -1.
</event>
<event>
 5    1  0.8863861E-005  0.9118800E+02  0.7818608E-02  0.1130116E+00
         25   -1    0    0    0    0  0.00000000000E+00  0.00000000000E+00  0.99999998245E-14  0.12500000000E+03  0.12500000000E+03 0.  0.
        -11    1    3    3    0    0 -0.54119608599E+02  0.38926871906E+01  0.19235815463E+02  0.57568234689E+02  0.51100000000E-03 0. -1.
         23    2    1    0    0    0 -0.25936404960E+02  0.94527464802E+01 -0.70529051430E+01  0.96507983764E+02  0.92206268447E+02 0.  0.
         11    1    3    3    0    0  0.28183203639E+02  0.55600592896E+01 -0.26288720606E+02  0.38939749075E+02  0.51100000000E-03 0.  1.
         22    1    1    0    0    0  0.25936404960E+02 -0.94527464802E+01  0.70529051430E+01  0.28492016236E+02  0.00000000000E+00 0. -1.
</event>
<event>
 5    1  0.8863861E-005  0.9118800E+02  0.7818608E-02  0.1130116E+00
         25   -1    0    0    0    0  0.00000000000E+00  0.00000000000E+00  0.99999998245E-14  0.12500000000E+03  0.12500000000E+03 0.  0.
        -11    1    3    3    0    0 -0.31996773533E+02  0.50290071277E+01  0.43136155748E+01  0.32675552157E+02  0.51100000000E-03 0.  1.
         23    2    1    0    0    0  0.26121351573E+02  0.41793267107E+01 -0.15806587054E+02  0.94183770931E+02  0.88999678273E+02 0.  0.
         11    1    3    3    0    0  0.58118125105E+02 -0.84968041708E+00 -0.20120202629E+02  0.61508218773E+02  0.51100000000E-03 0. -1.
         22    1    1    0    0    0 -0.26121351573E+02 -0.41793267107E+01  0.15806587054E+02  0.30816229069E+02  0.00000000000E+00 0. -1.
</event>
<event>
 5    1  0.8863861E-005  0.9118800E+02  0.7818608E-02  0.1130116E+00
         25   -1    0    0    0    0  0.00000000000E+00  0.00000000000E+00  0.99999998245E-14  0.12500000000E+03  0.12500000000E+03 0.  0.
        -11    1    3    3    0    0  0.10635005932E+02 -0.40780101147E+02  0.25712319467E+02  0.49368445118E+02  0.51100000000E-03 0.  1.
         23    2    1    0    0    0 -0.13698095846E+02 -0.23667801532E+02 -0.10031887316E+02  0.95871982177E+02  0.91339999695E+02 0.  0.
         11    1    3    3    0    0 -0.24333101778E+02  0.17112299614E+02 -0.35744206783E+02  0.46503537059E+02  0.51100000000E-03 0. -1.
         22    1    1    0    0    0  0.13698095846E+02  0.23667801532E+02  0.10031887316E+02  0.29128017823E+02  0.00000000000E+00 0. -1.
</event>
<event>
 5    1  0.8863861E-005  0.9118800E+02  0.7818608E-02  0.1130116E+00
         25   -1    0    0    0    0  0.00000000000E+00  0.00000000000E+00  0.99999998245E-14  0.12500000000E+03  0.12500000000E+03 0.  0.
        -11    1    3    3    0    0 -0.28588576747E+02 -0.56537885054E+01  0.44901636119E+02  0.53529701768E+02  0.51100000000E-03 0. -1.
         23    2    1    0    0    0 -0.20108569594E+02 -0.23367283674E+02  0.11855977666E+02  0.91970487078E+02  0.85834851718E+02 0.  0.
         11    1    3    3    0    0  0.84800071528E+01 -0.17713495169E+02 -0.33045658453E+02  0.38440785310E+02  0.51100000000E-03 0.  1.
         22    1    1    0    0    0  0.20108569594E+02  0.23367283674E+02 -0.11855977666E+02  0.33029512922E+02  0.00000000000E+00 0. -1.
</event>
<event>
 5    1  0.8863861E-005  0.9118800E+02  0.7818608E-02  0.1130116E+00
         25   -1    0    0    0    0  0.00000000000E+00  0.00000000000E+00  0.99999998245E-14  0.12500000000E+03  0.12500000000E+03 0.  0.
        -11    1    3    3    0    0  0.18683711863E+02  0.20179327039E+02 -0.26571842510E+02  0.38240673940E+02  0.51100000000E-03 0.  1.
         23    2    1    0    0    0  0.41628358385E+02 -0.68754573484E+01  0.40274292826E+00  0.82805754688E+02  0.71249131027E+02 0.  0.
         11    1    3    3    0    0  0.22944646522E+02 -0.27054784388E+02  0.26974585439E+02  0.44565080749E+02  0.51100000000E-03 0. -1.
         22    1    1    0    0    0 -0.41628358385E+02  0.68754573484E+01 -0.40274292826E+00  0.42194245312E+02  0.00000000000E+00 0.  1.
</event>
<event>
 5    1  0.8863861E-005  0.9118800E+02  0.7818608E-02  0.1130116E+00
         25   -1    0    0    0    0  0.00000000000E+00  0.00000000000E+00  0.99999998245E-14  0.12500000000E+03  0.12500000000E+03 0.  0.
        -11    1    3    3    0    0  0.52054911403E+02 -0.71694110181E+01  0.22862400383E+02  0.57304481562E+02  0.51100000000E-03 0.  1.
         23    2    1    0    0    0  0.15372398575E+02  0.38096309613E+01  0.24722273988E+02  0.95639912174E+02  0.91021854757E+02 0.  0.
         11    1    3    3    0    0 -0.36682512827E+02  0.10979041979E+02  0.18598736054E+01  0.38335430612E+02  0.51100000000E-03 0. -1.
         22    1    1    0    0    0 -0.15372398575E+02 -0.38096309613E+01 -0.24722273988E+02  0.29360087826E+02  0.00000000000E+00 0.  1.
</event>
<event>
 5    1  0.8863861E-005  0.9118800E+02  0.7818608E-02  0.1130116E+00
         25   -1    0    0    0    0  0.00000000000E+00  0.00000000000E+00  0.99999998245E-14  0.12500000000E+03  0.12500000000E+03 0.  0.
        -11    1    3    3    0    0 -0.41238637467E+02  0.34122784278E+01  0.16829709134E+02  0.44671108940E+02  0.51100000000E-03 0.  1.
         23    2    1    0    0    0 -0.13564533365E+02 -0.35826712027E+01 -0.25599326016E+02  0.95808261600E+02  0.91252755575E+02 0.  0.
         11    1    3    3    0    0  0.27674104102E+02 -0.69949496305E+01 -0.42429035149E+02  0.51137152660E+02  0.51100000000E-03 0. -1.
         22    1    1    0    0    0  0.13564533365E+02  0.35826712027E+01  0.25599326016E+02  0.29191738400E+02  0.00000000000E+00 0. -1.
</event>
<event>
 5    1  0.8863861E-005  0.9118800E+02  0.7818608E-02  0.1130116E+00
         25   -1    0    0    0    0  0.00000000000E+00  0.00000000000E+00  0.99999998245E-14  0.12500000000E+03  0.12500000000E+03 0.  0.
        -11    1    3    3    0    0  0.97010867779E+01 -0.31513500383E+02  0.13492439483E+02  0.35626643324E+02  0.51100000000E-03 0. -1.
         23    2    1    0    0    0  0.98676999649E+01  0.27162845333E+02 -0.10600124081E+01  0.96080883563E+02  0.91625438011E+02 0.  0.
         11    1    3    3    0    0  0.16661318696E+00  0.58676345716E+02 -0.14552451891E+02  0.60454240239E+02  0.51100000000E-03 0.  1.
         22    1    1    0    0    0 -0.98676999649E+01 -0.27162845333E+02  0.10600124081E+01  0.28919116437E+02  0.00000000000E+00 0.  1.
</event>
<event>
 5    1  0.8863861E-005  0.9118800E+02  0.7818608E-02  0.1130116E+00
         25   -1    0    0    0    0  0.00000000000E+00  0.00000000000E+00  0.99999998245E-14  0.12500000000E+03  0.12500000000E+03 0.  0.
        -11    1    3    3    0    0  0.31697012243E+02 -0.21572459850E+02 -0.31720468615E+02  0.49762031093E+02  0.51100000000E-03 0.  1.
         23    2    1    0    0    0  0.36612272189E+02 -0.25075637510E+01  0.13808137717E+01  0.88275988816E+02  0.80274511546E+02 0.  0.
         11    1    3    3    0    0  0.49152599465E+01  0.19064896099E+02  0.33101282386E+02  0.38513957723E+02  0.51100000000E-03 0. -1.
         22    1    1    0    0    0 -0.36612272189E+02  0.25075637510E+01 -0.13808137717E+01  0.36724011184E+02  0.00000000000E+00 0.  1.
</event>
<event>
 5    1  0.8863861E-005  0.9118800E+02  0.7818608E-02  0.1130116E+00
         25   -1    0    0    0    0  0.00000000000E+00  0.00000000000E+00  0.99999998245E-14  0.12500000000E+03  0.12500000000E+03 0.  0.
        -11    1    3    3    0    0  0.28499783397E+02 -0.11921201980E+02  0.13176120250E+02  0.33585158261E+02  0.51100000000E-03 0. -1.
         23    2    1    0    0    0 -0.29198794694E+02 -0.21752555317E+01 -0.58996363762E+01  0.95131838731E+02  0.90321424274E+02 0.  0.
         11    1    3    3    0    0 -0.57698578090E+02  0.97459464482E+01 -0.19075756626E+02  0.61546680471E+02  0.51100000000E-03 0.  1.
         22    1    1    0    0    0  0.29198794694E+02  0.21752555317E+01  0.58996363762E+01  0.29868161269E+02  0.00000000000E+00 0.  1.
</event>
<event>
 5    1  0.8863861E-005  0.9118800E+02  0.7818608E-02  0.1130116E+00
         25   -1    0    0    0    0  0.00000000000E+00  0.00000000000E+00  0.99999998245E-14  0.12500000000E+03  0.12500000000E+03 0.  0.
        -11    1    3    3    0    0  0.40845756592E+02 -0.19508259248E+02  0.34782917965E+02  0.57085894868E+02  0.51100000000E-03 0. -1.
         23    2    1    0    0    0  0.63043462807E+01 -0.24697771948E+00  0.26845176225E+02  0.97423392765E+02  0.93439007868E+02 0.  0.
         11    1    3    3    0    0 -0.34541410312E+02  0.19261281528E+02 -0.79377417400E+01  0.40337497897E+02  0.51100000000E-03 0.  1.
         22    1    1    0    0    0 -0.63043462807E+01  0.24697771948E+00 -0.26845176225E+02  0.27576607235E+02  0.00000000000E+00 0. -1.
</event>
<event>
 5    1  0.8863861E-005  0.9118800E+02  0.7818608E-02  0.1130116E+00
         25   -1    0    0    0    0  0.00000000000E+00  0.00000000000E+00  0.99999998245E-14  0.12500000000E+03  0.12500000000E+03 0.  0.
        -11    1    3    3    0    0  0.30735114131E+02  0.24542922464E+02 -0.24746032155E+02  0.46469004630E+02  0.51100000000E-03 0.  1.
         23    2    1    0    0    0  0.25264528373E+02 -0.12803606945E+02  0.70393211940E+01  0.95814716249E+02  0.91261596865E+02 0.  0.
         11    1    3    3    0    0 -0.54705857576E+01 -0.37346529409E+02  0.31785353349E+02  0.49345711619E+02  0.51100000000E-03 0. -1.
         22    1    1    0    0    0 -0.25264528373E+02  0.12803606945E+02 -0.70393211940E+01  0.29185283751E+02  0.00000000000E+00 0.  1.
</event>
<event>
 5    1  0.8863861E-005  0.9118800E+02  0.7818608E-02  0.1130116E+00
         25   -1    0    0    0    0  0.00000000000E+00  0.00000000000E+00  0.99999998245E-14  0.12500000000E+03  0.12500000000E+03 0.  0.
        -11    1    3    3    0    0  0.20447651355E+02  0.27578186621E+02  0.29644198943E+02  0.45359027265E+02  0.51100000000E-03 0. -1.
         23    2    1    0    0    0  0.20364717279E+02 -0.18496912414E+02  0.14765504616E+02  0.93776969954E+02  0.88426480698E+02 0.  0.
         11    1    3    3    0    0 -0.82934076015E-01 -0.46075099034E+02 -0.14878694327E+02  0.48417942689E+02  0.51100000000E-03 0.  1.
         22    1    1    0    0    0 -0.20364717279E+02  0.18496912414E+02 -0.14765504616E+02  0.31223030046E+02  0.00000000000E+00 0. -1.
</event>
<event>
 5    1  0.8863861E-005  0.9118800E+02  0.7818608E-02  0.1130116E+00
         25   -1    0    0    0    0  0.00000000000E+00  0.00000000000E+00  0.99999998245E-14  0.12500000000E+03  0.12500000000E+03 0.  0.
        -11    1    3    3    0    0 -0.31586315158E+02  0.38279039859E+02  0.29013103804E+02  0.57486871461E+02  0.51100000000E-03 0.  1.
         23    2    1    0    0    0  0.19348750561E+01  0.10631416625E+02  0.20588650508E+02  0.10174783256E+03  0.99055328680E+02 0.  0.
         11    1    3    3    0    0  0.33521190214E+02 -0.27647623234E+02 -0.84244532958E+01  0.44260961099E+02  0.51100000000E-03 0. -1.
         22    1    1    0    0    0 -0.19348750561E+01 -0.10631416625E+02 -0.20588650508E+02  0.23252167440E+02  0.00000000000E+00 0.  1.
</event>
<event>
 5    1  0.8863861E-005  0.9118800E+02  0.7818608E-02  0.1130116E+00
         25   -1    0    0    0    0  0.00000000000E+00  0.00000000000E+00  0.99999998245E-14  0.12500000000E+03  0.12500000000E+03 0.  0.
        -11    1    3    3    0    0  0.37984395726E+02 -0.19211396911E+01 -0.56636174902E+01  0.38452329705E+02  0.51100000000E-03 0.  1.
         23    2    1    0    0    0 -0.17989698289E+02 -0.13187497642E+02 -0.17360388718E+02  0.96734784009E+02  0.92513220689E+02 0.  0.
         11    1    3    3    0    0 -0.55974094015E+02 -0.11266357951E+02 -0.11696771227E+02  0.58282454304E+02  0.51100000000E-03 0. -1.
         22    1    1    0    0    0  0.17989698289E+02  0.13187497642E+02  0.17360388718E+02  0.28265215991E+02  0.00000000000E+00 0. -1.
</event>
<event>
 5    1  0.8863861E-005  0.9118800E+02  0.7818608E-02  0.1130116E+00
         25   -1    0    0    0    0  0.00000000000E+00  0.00000000000E+00  0.99999998245E-14  0.12500000000E+03  0.12500000000E+03 0.  0.
        -11    1    3    3    0    0 -0.32863364614E+02 -0.25882857852E+02  0.94282844910E+01  0.42881413375E+02  0.51100000000E-03 0.  1.
         23    2    1    0    0    0  0.35520924062E+01 -0.11767443446E+02 -0.26398307178E+02  0.95880235104E+02  0.91351293237E+02 0.  0.
         11    1    3    3    0    0  0.36415457020E+02  0.14115414406E+02 -0.35826591669E+02  0.52998821730E+02  0.51100000000E-03 0. -1.
         22    1    1    0    0    0 -0.35520924062E+01  0.11767443446E+02  0.26398307178E+02  0.29119764896E+02  0.00000000000E+00 0. -1.
</event>
<event>
 5    1  0.8863861E-005  0.9118800E+02  0.7818608E-02  0.1130116E+00
         25   -1    0    0    0    0  0.00000000000E+00  0.00000000000E+00  0.99999998245E-14  0.12500000000E+03  0.12500000000E+03 0.  0.
        -11    1    3    3    0    0 -0.20389190435E+02  0.44120340960E+02  0.49914450740E+01  0.48859370618E+02  0.51100000000E-03 0. -1.
         23    2    1    0    0    0 -0.25518445406E+02  0.26713332148E+01 -0.15124161810E+02  0.95216324144E+02  0.90438271965E+02 0.  0.
         11    1    3    3    0    0 -0.51292549706E+01 -0.41449007745E+02 -0.20115606884E+02  0.46356953526E+02  0.51100000000E-03 0.  1.
         22    1    1    0    0    0  0.25518445406E+02 -0.26713332148E+01  0.15124161810E+02  0.29783675856E+02  0.00000000000E+00 0. -1.
</event>
<event>
 5    1  0.8863861E-005  0.9118800E+02  0.7818608E-02  0.1130116E+00
         25   -1    0    0    0    0  0.00000000000E+00  0.00000000000E+00  0.99999998245E-14  0.12500000000E+03  0.12500000000E+03 0.  0.
        -11    1    3    3    0    0 -0.89703483174E+01  0.39144940194E+02  0.13694716412E+02  0.42430398886E+02  0.51100000000E-03 0.  1.
         23    2    1    0    0    0 -0.22356558516E+02 -0.11775295262E+02  0.15932519658E+02  0.95128299850E+02  0.90316526519E+02 0.  0.
         11    1    3    3    0    0 -0.13386210199E+02 -0.50920235456E+02  0.22378032468E+01  0.52697900964E+02  0.51100000000E-03 0. -1.
         22    1    1    0    0    0  0.22356558516E+02  0.11775295262E+02 -0.15932519658E+02  0.29871700150E+02  0.00000000000E+00 0. -1.
</event>
<event>
 5    1  0.8863861E-005  0.9118800E+02  0.7818608E-02  0.1130116E+00
         25   -1    0    0    0    0  0.00000000000E+00  0.00000000000E+00  0.99999998245E-14  0.12500000000E+03  0.12500000000E+03 0.  0.
        -11    1    3    3    0    0  0.25900121529E+02  0.15106852263E+02 -0.30405887364E+02  0.42703059225E+02  0.51100000000E-03 0.  1.
         23    2    1    0    0    0  0.18335797235E+02 -0.21182445470E+02  0.77814524545E+01  0.95923403593E+02  0.91410343497E+02 0.  0.
         11    1    3    3    0    0 -0.75643242939E+01 -0.36289297733E+02  0.38187339818E+02  0.53220344368E+02  0.51100000000E-03 0. -1.
         22    1    1    0    0    0 -0.18335797235E+02  0.21182445470E+02 -0.77814524545E+01  0.29076596407E+02  0.00000000000E+00 0. -1.
</event>
<event>
 5    1  0.8863861E-005  0.9118800E+02  0.7818608E-02  0.1130116E+00
         25   -1    0    0    0    0  0.00000000000E+00  0.00000000000E+00  0.99999998245E-14  0.12500000000E+03  0.12500000000E+03 0.  0.
        -11    1    3    3    0    0  0.19111678955E+02  0.60737426817E+01 -0.56666927738E+02  0.60110625701E+02  0.51100000000E-03 0.  1.
         23    2    1    0    0    0  0.14709798992E+02  0.11639053146E+02 -0.19523334467E+02  0.97925910297E+02  0.94108860233E+02 0.  0.
         11    1    3    3    0    0 -0.44018799634E+01  0.55653104642E+01  0.37143593271E+02  0.37815284596E+02  0.51100000000E-03 0. -1.
         22    1    1    0    0    0 -0.14709798992E+02 -0.11639053146E+02  0.19523334467E+02  0.27074089703E+02  0.00000000000E+00 0.  1.
</event>
<event>
 5    1  0.8863861E-005  0.9118800E+02  0.7818608E-02  0.1130116E+00
         25   -1    0    0    0    0  0.00000000000E+00  0.00000000000E+00  0.99999998245E-14  0.12500000000E+03  0.12500000000E+03 0.  0.
        -11    1    3    3    0    0 -0.13554323888E+02 -0.51252160149E+02 -0.25294507640E+02  0.58739388259E+02  0.51100000000E-03 0.  1.
         23    2    1    0    0    0 -0.74957175385E+01 -0.13205913734E+02 -0.23136586124E+02  0.97325398712E+02  0.93307822170E+02 0.  0.
         11    1    3    3    0    0  0.60586063490E+01  0.38046246415E+02  0.21579215164E+01  0.38586010453E+02  0.51100000000E-03 0. -1.
         22    1    1    0    0    0  0.74957175385E+01  0.13205913734E+02  0.23136586124E+02  0.27674601288E+02  0.00000000000E+00 0.  1.
</event>
<event>
 5    1  0.8863861E-005  0.9118800E+02  0.7818608E-02  0.1130116E+00
         25   -1    0    0    0    0  0.00000000000E+00  0.00000000000E+00  0.99999998245E-14  0.12500000000E+03  0.12500000000E+03 0.  0.
        -11    1    3    3    0    0  0.17005991223E+02 -0.29265815644E+02  0.58486229129E+01  0.34349644729E+02  0.51100000000E-03 0. -1.
         23    2    1    0    0    0 -0.23807725029E+02  0.50785508623E+01  0.24117441415E+02  0.90732662339E+02  0.84012889397E+02 0.  0.
         11    1    3    3    0    0 -0.40813716252E+02  0.34344366507E+02  0.18268818502E+02  0.56383017610E+02  0.51100000000E-03 0.  1.
         22    1    1    0    0    0  0.23807725029E+02 -0.50785508623E+01 -0.24117441415E+02  0.34267337661E+02  0.00000000000E+00 0. -1.
</event>
<event>
 5    1  0.8863861E-005  0.9118800E+02  0.7818608E-02  0.1130116E+00
         25   -1    0    0    0    0  0.00000000000E+00  0.00000000000E+00  0.99999998245E-14  0.12500000000E+03  0.12500000000E+03 0.  0.
        -11    1    3    3    0    0 -0.47998637758E+02 -0.12402928592E+02 -0.34043008159E+02  0.60138409266E+02  0.51100000000E-03 0. -1.
         23    2    1    0    0    0 -0.22676877524E+02  0.62015205432E+01 -0.17813824931E+02  0.95503695317E+02  0.90834595993E+02 0.  0.
         11    1    3    3    0    0  0.25321760234E+02  0.18604449135E+02  0.16229183228E+02  0.35365286051E+02  0.51100000000E-03 0.  1.
         22    1    1    0    0    0  0.22676877524E+02 -0.62015205432E+01  0.17813824931E+02  0.29496304683E+02  0.00000000000E+00 0. -1.
</event>
<event>
 5    1  0.8863861E-005  0.9118800E+02  0.7818608E-02  0.1130116E+00
         25   -1    0    0    0    0  0.00000000000E+00  0.00000000000E+00  0.99999998245E-14  0.12500000000E+03  0.12500000000E+03 0.  0.
        -11    1    3    3    0    0  0.27191612676E+02 -0.50849846866E+00  0.53456019288E+02  0.59976565165E+02  0.51100000000E-03 0.  1.
         23    2    1    0    0    0  0.39565791908E+01 -0.87430074785E+01  0.27951240956E+02  0.95447223994E+02  0.90756850973E+02 0.  0.
         11    1    3    3    0    0 -0.23235033486E+02 -0.82345090099E+01 -0.25504778332E+02  0.35470658829E+02  0.51100000000E-03 0. -1.
         22    1    1    0    0    0 -0.39565791908E+01  0.87430074785E+01 -0.27951240956E+02  0.29552776006E+02  0.00000000000E+00 0.  1.
</event>
<event>
 5    1  0.8863861E-005  0.9118800E+02  0.7818608E-02  0.1130116E+00
         25   -1    0    0    0    0  0.00000000000E+00  0.00000000000E+00  0.99999998245E-14  0.12500000000E+03  0.12500000000E+03 0.  0.
        -11    1    3    3    0    0 -0.26461912752E+01 -0.29874388638E+02 -0.19669220939E+02  0.35865856707E+02  0.51100000000E-03 0.  1.
         23    2    1    0    0    0 -0.16631248849E+02  0.91013220205E+01  0.22911810518E+02  0.95261412912E+02  0.90500570318E+02 0.  0.
         11    1    3    3    0    0 -0.13985057574E+02  0.38975710658E+02  0.42581031456E+02  0.59395556204E+02  0.51100000000E-03 0. -1.
         22    1    1    0    0    0  0.16631248849E+02 -0.91013220205E+01 -0.22911810518E+02  0.29738587088E+02  0.00000000000E+00 0. -1.
</event>
<event>
 5    1  0.8863861E-005  0.9118800E+02  0.7818608E-02  0.1130116E+00
         25   -1    0    0    0    0  0.00000000000E+00  0.00000000000E+00  0.99999998245E-14  0.12500000000E+03  0.12500000000E+03 0.  0.
        -11    1    3    3    0    0  0.18387602966E+02  0.42806172234E+02 -0.25854516724E+02  0.53281594941E+02  0.51100000000E-03 0.  1.
         23    2    1    0    0    0  0.20095334764E+02  0.16118379922E+01 -0.22712658190E+02  0.94630848826E+02  0.89625399338E+02 0.  0.
         11    1    3    3    0    0  0.17077317980E+01 -0.41194334242E+02  0.31418585342E+01  0.41349253885E+02  0.51100000000E-03 0. -1.
         22    1    1    0    0    0 -0.20095334764E+02 -0.16118379922E+01  0.22712658190E+02  0.30369151174E+02  0.00000000000E+00 0.  1.
</event>
<event>
 5    1  0.8863861E-005  0.9118800E+02  0.7818608E-02  0.1130116E+00
         25   -1    0    0    0    0  0.00000000000E+00  0.00000000000E+00  0.99999998245E-14  0.12500000000E+03  0.12500000000E+03 0.  0.
        -11    1    3    3    0    0  0.79566566894E+01  0.36769470130E+02 -0.24189482193E+02  0.44726204493E+02  0.51100000000E-03 0.  1.
         23    2    1    0    0    0  0.28974719457E+02 -0.14369228102E+01  0.25500000511E+01  0.95877815758E+02  0.91347982679E+02 0.  0.
         11    1    3    3    0    0  0.21018062767E+02 -0.38206392941E+02  0.26739482244E+02  0.51151611265E+02  0.51100000000E-03 0. -1.
         22    1    1    0    0    0 -0.28974719457E+02  0.14369228102E+01 -0.25500000511E+01  0.29122184242E+02  0.00000000000E+00 0. -1.
</event>
<event>
 5    1  0.8863861E-005  0.9118800E+02  0.7818608E-02  0.1130116E+00
         25   -1    0    0    0    0  0.00000000000E+00  0.00000000000E+00  0.99999998245E-14  0.12500000000E+03  0.12500000000E+03 0.  0.
        -11    1    3    3    0    0  0.31054505015E+02  0.48113058167E+02 -0.18475982814E+02  0.60171509779E+02  0.51100000000E-03 0.  1.
         23    2    1    0    0    0  0.50973329308E+01  0.28383434765E+02 -0.38476759405E+01  0.95906928966E+02  0.91387812324E+02 0.  0.
         11    1    3    3    0    0 -0.25957172085E+02 -0.19729623402E+02  0.14628306873E+02  0.35735419187E+02  0.51100000000E-03 0. -1.
         22    1    1    0    0    0 -0.50973329308E+01 -0.28383434765E+02  0.38476759405E+01  0.29093071034E+02  0.00000000000E+00 0.  1.
</event>
<event>
 5    1  0.8863861E-005  0.9118800E+02  0.7818608E-02  0.1130116E+00
         25   -1    0    0    0    0  0.00000000000E+00  0.00000000000E+00  0.99999998245E-14  0.12500000000E+03  0.12500000000E+03 0.  0.
        -11    1    3    3    0    0  0.20283577573E+02 -0.50833647314E+02  0.21951420087E+02  0.58969043256E+02  0.51100000000E-03 0.  1.
         23    2    1    0    0    0  0.22633114015E+02 -0.18660871582E+02  0.55954481668E+01  0.95137062797E+02  0.90328653810E+02 0.  0.
         11    1    3    3    0    0  0.23495364422E+01  0.32172775732E+02 -0.16355971921E+02  0.36168019541E+02  0.51100000000E-03 0. -1.
         22    1    1    0    0    0 -0.22633114015E+02  0.18660871582E+02 -0.55954481668E+01  0.29862937203E+02  0.00000000000E+00 0.  1.
</event>
<event>
 5    1  0.8863861E-005  0.9118800E+02  0.7818608E-02  0.1130116E+00
         25   -1    0    0    0    0  0.00000000000E+00  0.00000000000E+00  0.99999998245E-14  0.12500000000E+03  0.12500000000E+03 0.  0.
        -11    1    3    3    0    0  0.45520572950E+02 -0.25290702881E+02 -0.16382844215E+02  0.54590656698E+02  0.51100000000E-03 0.  1.
         23    2    1    0    0    0  0.12077866796E+02 -0.33683679494E+01 -0.26364948130E+02  0.95805287142E+02  0.91248681007E+02 0.  0.
         11    1    3    3    0    0 -0.33442706154E+02  0.21922334931E+02 -0.99821039152E+01  0.41214630444E+02  0.51100000000E-03 0. -1.
         22    1    1    0    0    0 -0.12077866796E+02  0.33683679494E+01  0.26364948130E+02  0.29194712858E+02  0.00000000000E+00 0.  1.
</event>
<event>
 5    1  0.8863861E-005  0.9118800E+02  0.7818608E-02  0.1130116E+00
         25   -1    0    0    0    0  0.00000000000E+00  0.00000000000E+00  0.99999998245E-14  0.12500000000E+03  0.12500000000E+03 0.  0.
        -11    1    3    3    0    0  0.28849453309E+02 -0.10518815390E+02  0.12664705974E+02  0.33216429837E+02  0.51100000000E-03 0. -1.
         23    2    1    0    0    0 -0.24391844108E+02 -0.25371159274E+02  0.93233564580E+01  0.88591446643E+02  0.80764235035E+02 0.  0.
         11    1    3    3    0    0 -0.53241297417E+02 -0.14852343884E+02 -0.33413495160E+01  0.55375016806E+02  0.51100000000E-03 0.  1.
         22    1    1    0    0    0  0.24391844108E+02  0.25371159274E+02 -0.93233564580E+01  0.36408553357E+02  0.00000000000E+00 0.  1.
</event>
<event>
 5    1  0.8863861E-005  0.9118800E+02  0.7818608E-02  0.1130116E+00
         25   -1    0    0    0    0  0.00000000000E+00  0.00000000000E+00  0.99999998245E-14  0.12500000000E+03  0.12500000000E+03 0.  0.
        -11    1    3    3    0    0  0.11340984834E+02  0.52249407598E+02  0.23747569600E+02  0.58502697318E+02  0.51100000000E-03 0.  1.
         23    2    1    0    0    0  0.16236286868E+02  0.23026390852E+02 -0.54731418388E+00  0.96819665727E+02  0.92627838319E+02 0.  0.
         11    1    3    3    0    0  0.48953020340E+01 -0.29223016745E+02 -0.24294883784E+02  0.38316968409E+02  0.51100000000E-03 0. -1.
         22    1    1    0    0    0 -0.16236286868E+02 -0.23026390852E+02  0.54731418388E+00  0.28180334273E+02  0.00000000000E+00 0.  1.
</event>
<event>
 5    1  0.8863861E-005  0.9118800E+02  0.7818608E-02  0.1130116E+00
         25   -1    0    0    0    0  0.00000000000E+00  0.00000000000E+00  0.99999998245E-14  0.12500000000E+03  0.12500000000E+03 0.  0.
        -11    1    3    3    0    0 -0.25154375517E+02  0.36235209220E+02  0.24380280192E+02  0.50399712870E+02  0.51100000000E-03 0.  1.
         23    2    1    0    0    0 -0.21151451070E+02 -0.79357656697E+01  0.19750390526E+02  0.94992697804E+02  0.90128654994E+02 0.  0.
         11    1    3    3    0    0  0.40029244470E+01 -0.44170974890E+02 -0.46298896658E+01  0.44592984935E+02  0.51100000000E-03 0. -1.
         22    1    1    0    0    0  0.21151451070E+02  0.79357656697E+01 -0.19750390526E+02  0.30007302196E+02  0.00000000000E+00 0.  1.
</event>
<event>
 5    1  0.8863861E-005  0.9118800E+02  0.7818608E-02  0.1130116E+00
         25   -1    0    0    0    0  0.00000000000E+00  0.00000000000E+00  0.99999998245E-14  0.12500000000E+03  0.12500000000E+03 0.  0.
        -11    1    3    3    0    0 -0.16186191529E+02  0.29743240524E+02  0.11042075377E+02  0.35617138880E+02  0.51100000000E-03 0. -1.
         23    2    1    0    0    0  0.91740998524E+01 -0.25728166070E+02 -0.43739892593E+00  0.97681618730E+02  0.93783818873E+02 0.  0.
         11    1    3    3    0    0  0.25360291381E+02 -0.55471406594E+02 -0.11479474303E+02  0.62064479850E+02  0.51100000000E-03 0.  1.
         22    1    1    0    0    0 -0.91740998524E+01  0.25728166070E+02  0.43739892593E+00  0.27318381270E+02  0.00000000000E+00 0.  1.
</event>
<event>
 5    1  0.8863861E-005  0.9118800E+02  0.7818608E-02  0.1130116E+00
         25   -1    0    0    0    0  0.00000000000E+00  0.00000000000E+00  0.99999998245E-14  0.12500000000E+03  0.12500000000E+03 0.  0.
        -11    1    3    3    0    0  0.29049533683E+02 -0.12525463948E+01 -0.28312626249E+02  0.40583852516E+02  0.51100000000E-03 0.  1.
         23    2    1    0    0    0  0.29667235913E+02  0.32460894725E+02 -0.24871950196E+02  0.74478039630E+02  0.54722115342E+02 0.  0.
         11    1    3    3    0    0  0.61770222997E+00  0.33713441119E+02  0.34406760526E+01  0.33894187114E+02  0.51100000000E-03 0. -1.
         22    1    1    0    0    0 -0.29667235913E+02 -0.32460894725E+02  0.24871950196E+02  0.50521960370E+02  0.00000000000E+00 0. -1.
</event>
<event>
 5    1  0.8863861E-005  0.9118800E+02  0.7818608E-02  0.1130116E+00
         25   -1    0    0    0    0  0.00000000000E+00  0.00000000000E+00  0.99999998245E-14  0.12500000000E+03  0.12500000000E+03 0.  0.
        -11    1    3    3    0    0 -0.36105086690E+01 -0.39599524131E+01  0.32167333373E+02  0.32610647533E+02  0.51100000000E-03 0. -1.
         23    2    1    0    0    0 -0.14540611977E+01 -0.18601001354E+02 -0.26205972650E+02  0.92830689347E+02  0.87078541196E+02 0.  0.
         11    1    3    3    0    0  0.21564474713E+01 -0.14641048940E+02 -0.58373306023E+02  0.60220041814E+02  0.51100000000E-03 0.  1.
         22    1    1    0    0    0  0.14540611977E+01  0.18601001354E+02  0.26205972650E+02  0.32169310653E+02  0.00000000000E+00 0.  1.
</event>
<event>
 5    1  0.8863861E-005  0.9118800E+02  0.7818608E-02  0.1130116E+00
         25   -1    0    0    0    0  0.00000000000E+00  0.00000000000E+00  0.99999998245E-14  0.12500000000E+03  0.12500000000E+03 0.  0.
        -11    1    3    3    0    0 -0.56371570927E+02  0.11829047019E+01  0.39929566983E+01  0.56525188861E+02  0.51100000000E-03 0.  1.
         23    2    1    0    0    0 -0.22164856539E+02  0.12886287493E+02 -0.12748604499E+02  0.96366729362E+02  0.92014576783E+02 0.  0.
         11    1    3    3    0    0  0.34206714388E+02  0.11703382791E+02 -0.16741561197E+02  0.39841540501E+02  0.51100000000E-03 0. -1.
         22    1    1    0    0    0  0.22164856539E+02 -0.12886287493E+02  0.12748604499E+02  0.28633270638E+02  0.00000000000E+00 0.  1.
</event>
<event>
 5    1  0.8863861E-005  0.9118800E+02  0.7818608E-02  0.1130116E+00
         25   -1    0    0    0    0  0.00000000000E+00  0.00000000000E+00  0.99999998245E-14  0.12500000000E+03  0.12500000000E+03 0.  0.
        -11    1    3    3    0    0 -0.28929194214E+02  0.21606519267E+02 -0.66225829503E+01  0.36709652109E+02  0.51100000000E-03 0. -1.
         23    2    1    0    0    0  0.27368565227E+02 -0.48870377268E+00  0.61913666101E+00  0.97620070778E+02  0.93701748621E+02 0.  0.
         11    1    3    3    0    0  0.56297759442E+02 -0.22095223040E+02  0.72417196113E+01  0.60910418670E+02  0.51100000000E-03 0.  1.
         22    1    1    0    0    0 -0.27368565227E+02  0.48870377268E+00 -0.61913666101E+00  0.27379929222E+02  0.00000000000E+00 0.  1.
</event>
<event>
 5    1  0.8863861E-005  0.9118800E+02  0.7818608E-02  0.1130116E+00
         25   -1    0    0    0    0  0.00000000000E+00  0.00000000000E+00  0.99999998245E-14  0.12500000000E+03  0.12500000000E+03 0.  0.
        -11    1    3    3    0    0  0.72932817152E+01  0.30575769010E+02 -0.24569371403E+02  0.39896411118E+02  0.51100000000E-03 0. -1.
         23    2    1    0    0    0  0.22160255598E+02 -0.16068678747E+02  0.51205956953E+01  0.97152201791E+02  0.93075509387E+02 0.  0.
         11    1    3    3    0    0  0.14866973883E+02 -0.46644447756E+02  0.29689967099E+02  0.57255790672E+02  0.51100000000E-03 0.  1.
         22    1    1    0    0    0 -0.22160255598E+02  0.16068678747E+02 -0.51205956953E+01  0.27847798209E+02  0.00000000000E+00 0.  1.
</event>
<event>
 5    1  0.8863861E-005  0.9118800E+02  0.7818608E-02  0.1130116E+00
         25   -1    0    0    0    0  0.00000000000E+00  0.00000000000E+00  0.99999998245E-14  0.12500000000E+03  0.12500000000E+03 0.  0.
        -11    1    3    3    0    0  0.17674219988E+02  0.31496351165E+02  0.16463359843E+01  0.36153957063E+02  0.51100000000E-03 0.  1.
         23    2    1    0    0    0  0.75829792389E+01 -0.26449902077E+02  0.10329009583E+02  0.95609740849E+02  0.90980411146E+02 0.  0.
         11    1    3    3    0    0 -0.10091240749E+02 -0.57946253241E+02  0.86826735984E+01  0.59455783786E+02  0.51100000000E-03 0. -1.
         22    1    1    0    0    0 -0.75829792389E+01  0.26449902077E+02 -0.10329009583E+02  0.29390259151E+02  0.00000000000E+00 0. -1.
</event>
<event>
 5    1  0.8863861E-005  0.9118800E+02  0.7818608E-02  0.1130116E+00
         25   -1    0    0    0    0  0.00000000000E+00  0.00000000000E+00  0.99999998245E-14  0.12500000000E+03  0.12500000000E+03 0.  0.
        -11    1    3    3    0    0  0.28323494595E+02 -0.17432968827E+02 -0.51870129871E+02  0.61616873673E+02  0.51100000000E-03 0. -1.
         23    2    1    0    0    0  0.12819823301E+02 -0.72922975375E+00 -0.25346061191E+02  0.96586931468E+02  0.92313232351E+02 0.  0.
         11    1    3    3    0    0 -0.15503671294E+02  0.16703739073E+02  0.26524068680E+02  0.34970057795E+02  0.51100000000E-03 0.  1.
         22    1    1    0    0    0 -0.12819823301E+02  0.72922975375E+00  0.25346061191E+02  0.28413068532E+02  0.00000000000E+00 0. -1.
</event>
<event>
 5    1  0.8863861E-005  0.9118800E+02  0.7818608E-02  0.1130116E+00
         25   -1    0    0    0    0  0.00000000000E+00  0.00000000000E+00  0.99999998245E-14  0.12500000000E+03  0.12500000000E+03 0.  0.
        -11    1    3    3    0    0 -0.35628972106E+02  0.27142775881E+02  0.12890662440E+02  0.46608187202E+02  0.51100000000E-03 0.  1.
         23    2    1    0    0    0 -0.88381998700E+01  0.10868642996E+02 -0.25339277343E+02  0.96046241111E+02  0.91578164852E+02 0.  0.
         11    1    3    3    0    0  0.26790772236E+02 -0.16274132885E+02 -0.38229939783E+02  0.49438053909E+02  0.51100000000E-03 0. -1.
         22    1    1    0    0    0  0.88381998700E+01 -0.10868642996E+02  0.25339277343E+02  0.28953758889E+02  0.00000000000E+00 0.  1.
</event>
<event>
 5    1  0.8863861E-005  0.9118800E+02  0.7818608E-02  0.1130116E+00
         25   -1    0    0    0    0  0.00000000000E+00  0.00000000000E+00  0.99999998245E-14  0.12500000000E+03  0.12500000000E+03 0.  0.
        -11    1    3    3    0    0 -0.22445380201E+02  0.38356471330E+02  0.18719060162E+02  0.48222579762E+02  0.51100000000E-03 0. -1.
         23    2    1    0    0    0  0.15340699781E+02  0.21599981877E+02 -0.78599270198E+01  0.97365334458E+02  0.93361306838E+02 0.  0.
         11    1    3    3    0    0  0.37786079983E+02 -0.16756489453E+02 -0.26578987181E+02  0.49142754696E+02  0.51100000000E-03 0.  1.
         22    1    1    0    0    0 -0.15340699781E+02 -0.21599981877E+02  0.78599270198E+01  0.27634665542E+02  0.00000000000E+00 0.  1.
</event>
<event>
 5    1  0.8863861E-005  0.9118800E+02  0.7818608E-02  0.1130116E+00
         25   -1    0    0    0    0  0.00000000000E+00  0.00000000000E+00  0.99999998245E-14  0.12500000000E+03  0.12500000000E+03 0.  0.
        -11    1    3    3    0    0  0.31050900926E+02  0.17348286426E+02 -0.11191398448E+02  0.37287650633E+02  0.51100000000E-03 0. -1.
         23    2    1    0    0    0 -0.22396263949E+02  0.22019667858E+02  0.46993889843E+01  0.93242439195E+02  0.87667609747E+02 0.  0.
         11    1    3    3    0    0 -0.53447164875E+02  0.46713814320E+01  0.15890787432E+02  0.55954788563E+02  0.51100000000E-03 0.  1.
         22    1    1    0    0    0  0.22396263949E+02 -0.22019667858E+02 -0.46993889843E+01  0.31757560805E+02  0.00000000000E+00 0.  1.
</event>
<event>
 5    1  0.8863861E-005  0.9118800E+02  0.7818608E-02  0.1130116E+00
         25   -1    0    0    0    0  0.00000000000E+00  0.00000000000E+00  0.99999998245E-14  0.12500000000E+03  0.12500000000E+03 0.  0.
        -11    1    3    3    0    0  0.61125943402E+01 -0.53179368831E+02  0.37424721845E+01  0.53660182418E+02  0.51100000000E-03 0.  1.
         23    2    1    0    0    0 -0.11515392977E+02 -0.22185410811E+02 -0.16868267585E+02  0.94844815047E+02  0.89923321567E+02 0.  0.
         11    1    3    3    0    0 -0.17627987317E+02  0.30993958021E+02 -0.20610739770E+02  0.41184632628E+02  0.51100000000E-03 0. -1.
         22    1    1    0    0    0  0.11515392977E+02  0.22185410811E+02  0.16868267585E+02  0.30155184953E+02  0.00000000000E+00 0.  1.
</event>
<event>
 5    1  0.8863861E-005  0.9118800E+02  0.7818608E-02  0.1130116E+00
         25   -1    0    0    0    0  0.00000000000E+00  0.00000000000E+00  0.99999998245E-14  0.12500000000E+03  0.12500000000E+03 0.  0.
        -11    1    3    3    0    0  0.16946935325E+02 -0.89327864461E+01  0.44578802846E+02  0.48520747666E+02  0.51100000000E-03 0.  1.
         23    2    1    0    0    0 -0.20302172886E+02  0.66579382954E+01  0.19622304500E+02  0.95990670464E+02  0.91502282026E+02 0.  0.
         11    1    3    3    0    0 -0.37249108211E+02  0.15590724741E+02 -0.24956498346E+02  0.47469922798E+02  0.51100000000E-03 0. -1.
         22    1    1    0    0    0  0.20302172886E+02 -0.66579382954E+01 -0.19622304500E+02  0.29009329536E+02  0.00000000000E+00 0.  1.
</event>
<event>
 5    1  0.8863861E-005  0.9118800E+02  0.7818608E-02  0.1130116E+00
         25   -1    0    0    0    0  0.00000000000E+00  0.00000000000E+00  0.99999998245E-14  0.12500000000E+03  0.12500000000E+03 0.  0.
        -11    1    3    3    0    0  0.35165443761E+02 -0.48156326474E+01  0.30307456242E+02  0.46672697124E+02  0.51100000000E-03 0. -1.
         23    2    1    0    0    0  0.10868314868E+02 -0.33080033871E+02  0.12255102109E+02  0.88086636070E+02  0.79979116133E+02 0.  0.
         11    1    3    3    0    0 -0.24297128893E+02 -0.28264401223E+02 -0.18052354133E+02  0.41413938946E+02  0.51100000000E-03 0.  1.
         22    1    1    0    0    0 -0.10868314868E+02  0.33080033871E+02 -0.12255102109E+02  0.36913363930E+02  0.00000000000E+00 0.  1.
</event>
<event>
 5    1  0.8863861E-005  0.9118800E+02  0.7818608E-02  0.1130116E+00
         25   -1    0    0    0    0  0.00000000000E+00  0.00000000000E+00  0.99999998245E-14  0.12500000000E+03  0.12500000000E+03 0.  0.
        -11    1    3    3    0    0  0.23974501945E+01 -0.38734095847E+00 -0.48703454978E+02  0.48763965461E+02  0.51100000000E-03 0. -1.
         23    2    1    0    0    0 -0.13218053747E+02  0.22981273761E+02 -0.98488555317E+01  0.96718277213E+02  0.92490914706E+02 0.  0.
         11    1    3    3    0    0 -0.15615503942E+02  0.23368614719E+02  0.38854599446E+02  0.47954311752E+02  0.51100000000E-03 0.  1.
         22    1    1    0    0    0  0.13218053747E+02 -0.22981273761E+02  0.98488555317E+01  0.28281722787E+02  0.00000000000E+00 0.  1.
</event>
<event>
 5    1  0.8863861E-005  0.9118800E+02  0.7818608E-02  0.1130116E+00
         25   -1    0    0    0    0  0.00000000000E+00  0.00000000000E+00  0.99999998245E-14  0.12500000000E+03  0.12500000000E+03 0.  0.
        -11    1    3    3    0    0  0.39971936828E+02 -0.11479276336E+02 -0.29514971624E+02  0.50996696650E+02  0.51100000000E-03 0.  1.
         23    2    1    0    0    0  0.22355471936E+02  0.18911020454E+02 -0.19393540430E+01  0.95654558886E+02  0.91041966815E+02 0.  0.
         11    1    3    3    0    0 -0.17616464892E+02  0.30390296790E+02  0.27575617581E+02  0.44657862236E+02  0.51100000000E-03 0. -1.
         22    1    1    0    0    0 -0.22355471936E+02 -0.18911020454E+02  0.19393540430E+01  0.29345441114E+02  0.00000000000E+00 0.  1.
</event>
<event>
 5    1  0.8863861E-005  0.9118800E+02  0.7818608E-02  0.1130116E+00
         25   -1    0    0    0    0  0.00000000000E+00  0.00000000000E+00  0.99999998245E-14  0.12500000000E+03  0.12500000000E+03 0.  0.
        -11    1    3    3    0    0 -0.31681163794E+02 -0.31384086243E+02 -0.15843446336E+02  0.47325170900E+02  0.51100000000E-03 0.  1.
         23    2    1    0    0    0 -0.12431516536E+02 -0.21910664540E+02 -0.38795380077E+02  0.78743094145E+02  0.63724198985E+02 0.  0.
         11    1    3    3    0    0  0.19249647258E+02  0.94734217031E+01 -0.22951933741E+02  0.31417923245E+02  0.51100000000E-03 0. -1.
         22    1    1    0    0    0  0.12431516536E+02  0.21910664540E+02  0.38795380077E+02  0.46256905855E+02  0.00000000000E+00 0.  1.
</event>
<event>
 5    1  0.8863861E-005  0.9118800E+02  0.7818608E-02  0.1130116E+00
         25   -1    0    0    0    0  0.00000000000E+00  0.00000000000E+00  0.99999998245E-14  0.12500000000E+03  0.12500000000E+03 0.  0.
        -11    1    3    3    0    0  0.22793047274E+02 -0.41229913706E+02 -0.14685652309E+01  0.47133697842E+02  0.51100000000E-03 0.  1.
         23    2    1    0    0    0  0.12887500654E+02 -0.24924892142E+01 -0.27280837648E+02  0.94725517703E+02  0.89757336334E+02 0.  0.
         11    1    3    3    0    0 -0.99055466194E+01  0.38737424491E+02 -0.25812272417E+02  0.47591819861E+02  0.51100000000E-03 0. -1.
         22    1    1    0    0    0 -0.12887500654E+02  0.24924892142E+01  0.27280837648E+02  0.30274482297E+02  0.00000000000E+00 0. -1.
</event>
<event>
 5    1  0.8863861E-005  0.9118800E+02  0.7818608E-02  0.1130116E+00
         25   -1    0    0    0    0  0.00000000000E+00  0.00000000000E+00  0.99999998245E-14  0.12500000000E+03  0.12500000000E+03 0.  0.
        -11    1    3    3    0    0 -0.23630193185E+02  0.23777006181E+02  0.32098579386E+01  0.33675439732E+02  0.51100000000E-03 0.  1.
         23    2    1    0    0    0  0.21106350944E+02 -0.18946669208E+02 -0.53870341752E+01  0.96130042233E+02  0.91692478199E+02 0.  0.
         11    1    3    3    0    0  0.44736544129E+02 -0.42723675389E+02 -0.85968921138E+01  0.62454602501E+02  0.51100000000E-03 0. -1.
         22    1    1    0    0    0 -0.21106350944E+02  0.18946669208E+02  0.53870341752E+01  0.28869957767E+02  0.00000000000E+00 0. -1.
</event>
<event>
 5    1  0.8863861E-005  0.9118800E+02  0.7818608E-02  0.1130116E+00
         25   -1    0    0    0    0  0.00000000000E+00  0.00000000000E+00  0.99999998245E-14  0.12500000000E+03  0.12500000000E+03 0.  0.
        -11    1    3    3    0    0 -0.73721595579E+01  0.35228599604E+02  0.49686185562E+02  0.61352424586E+02  0.51100000000E-03 0. -1.
         23    2    1    0    0    0  0.32458574407E+01  0.12604098260E+02  0.26649137898E+02  0.95342362971E+02  0.90612310105E+02 0.  0.
         11    1    3    3    0    0  0.10618016999E+02 -0.22624501344E+02 -0.23037047664E+02  0.33989938385E+02  0.51100000000E-03 0.  1.
         22    1    1    0    0    0 -0.32458574407E+01 -0.12604098260E+02 -0.26649137898E+02  0.29657637029E+02  0.00000000000E+00 0. -1.
</event>
<event>
 5    1  0.8863861E-005  0.9118800E+02  0.7818608E-02  0.1130116E+00
         25   -1    0    0    0    0  0.00000000000E+00  0.00000000000E+00  0.99999998245E-14  0.12500000000E+03  0.12500000000E+03 0.  0.
        -11    1    3    3    0    0  0.24897064254E+02  0.12008626820E+02  0.50998627153E+02  0.58008024430E+02  0.51100000000E-03 0.  1.
         23    2    1    0    0    0 -0.38353332233E+00 -0.53914949209E+01  0.28321766640E+02  0.96167071239E+02  0.91742944196E+02 0.  0.
         11    1    3    3    0    0 -0.25280597576E+02 -0.17400121741E+02 -0.22676860512E+02  0.38159046809E+02  0.51100000000E-03 0. -1.
         22    1    1    0    0    0  0.38353332233E+00  0.53914949209E+01 -0.28321766640E+02  0.28832928761E+02  0.00000000000E+00 0.  1.
</event>
<event>
 5    1  0.8863861E-005  0.9118800E+02  0.7818608E-02  0.1130116E+00
         25   -1    0    0    0    0  0.00000000000E+00  0.00000000000E+00  0.99999998245E-14  0.12500000000E+03  0.12500000000E+03 0.  0.
        -11    1    3    3    0    0 -0.68398127084E+01 -0.26659094154E+02  0.18100038948E+02  0.32940882641E+02  0.51100000000E-03 0.  1.
         23    2    1    0    0    0  0.35155348670E+01  0.26774613090E+02 -0.12347786679E+02  0.95306453102E+02  0.90562758767E+02 0.  0.
         11    1    3    3    0    0  0.10355347575E+02  0.53433707244E+02 -0.30447825627E+02  0.62365570461E+02  0.51100000000E-03 0. -1.
         22    1    1    0    0    0 -0.35155348670E+01 -0.26774613090E+02  0.12347786679E+02  0.29693546898E+02  0.00000000000E+00 0. -1.
</event>
<event>
 5    1  0.8863861E-005  0.9118800E+02  0.7818608E-02  0.1130116E+00
         25   -1    0    0    0    0  0.00000000000E+00  0.00000000000E+00  0.99999998245E-14  0.12500000000E+03  0.12500000000E+03 0.  0.
        -11    1    3    3    0    0 -0.37816494763E+02 -0.17363690329E+02 -0.30697087833E+02  0.51709730416E+02  0.51100000000E-03 0. -1.
         23    2    1    0    0    0 -0.24036485078E+02 -0.10260359812E+02  0.11337418540E+02  0.96512026090E+02  0.92211748288E+02 0.  0.
         11    1    3    3    0    0  0.13780009685E+02  0.71033305174E+01  0.42034506373E+02  0.44802295673E+02  0.51100000000E-03 0.  1.
         22    1    1    0    0    0  0.24036485078E+02  0.10260359812E+02 -0.11337418540E+02  0.28487973910E+02  0.00000000000E+00 0. -1.
</event>
<event>
 5    1  0.8863861E-005  0.9118800E+02  0.7818608E-02  0.1130116E+00
         25   -1    0    0    0    0  0.00000000000E+00  0.00000000000E+00  0.99999998245E-14  0.12500000000E+03  0.12500000000E+03 0.  0.
        -11    1    3    3    0    0 -0.66235784669E+01  0.22832666335E+02 -0.31144586646E+02  0.39181471658E+02  0.51100000000E-03 0. -1.
         23    2    1    0    0    0  0.22075636232E+01  0.14412767805E+02  0.24685783473E+02  0.96329647393E+02  0.91964187857E+02 0.  0.
         11    1    3    3    0    0  0.88311420901E+01 -0.84198985301E+01  0.55830370119E+02  0.57148175735E+02  0.51100000000E-03 0.  1.
         22    1    1    0    0    0 -0.22075636232E+01 -0.14412767805E+02 -0.24685783473E+02  0.28670352607E+02  0.00000000000E+00 0.  1.
</event>
<event>
 5    1  0.8863861E-005  0.9118800E+02  0.7818608E-02  0.1130116E+00
         25   -1    0    0    0    0  0.00000000000E+00  0.00000000000E+00  0.99999998245E-14  0.12500000000E+03  0.12500000000E+03 0.  0.
        -11    1    3    3    0    0 -0.12916827674E+02 -0.17162000982E+02  0.26459999385E+02  0.34080937231E+02  0.51100000000E-03 0.  1.
         23    2    1    0    0    0 -0.38922826372E+01  0.51173501814E+01 -0.29406242193E+02  0.94899099401E+02  0.89998749159E+02 0.  0.
         11    1    3    3    0    0  0.90245450370E+01  0.22279351163E+02 -0.55866241577E+02  0.60818162169E+02  0.51100000000E-03 0. -1.
         22    1    1    0    0    0  0.38922826372E+01 -0.51173501814E+01  0.29406242193E+02  0.30100900599E+02  0.00000000000E+00 0. -1.
</event>
<event>
 5    1  0.8863861E-005  0.9118800E+02  0.7818608E-02  0.1130116E+00
         25   -1    0    0    0    0  0.00000000000E+00  0.00000000000E+00  0.99999998245E-14  0.12500000000E+03  0.12500000000E+03 0.  0.
        -11    1    3    3    0    0  0.97859653573E+01  0.15766402193E+02  0.29509477456E+02  0.34859056442E+02  0.51100000000E-03 0. -1.
         23    2    1    0    0    0 -0.15303512061E+02 -0.26457515984E+02 -0.37937189995E+01  0.94200812717E+02  0.89023610235E+02 0.  0.
         11    1    3    3    0    0 -0.25089477418E+02 -0.42223918177E+02 -0.33303196455E+02  0.59341756275E+02  0.51100000000E-03 0.  1.
         22    1    1    0    0    0  0.15303512061E+02  0.26457515984E+02  0.37937189995E+01  0.30799187283E+02  0.00000000000E+00 0.  1.
</event>
<event>
 5    1  0.8863861E-005  0.9118800E+02  0.7818608E-02  0.1130116E+00
         25   -1    0    0    0    0  0.00000000000E+00  0.00000000000E+00  0.99999998245E-14  0.12500000000E+03  0.12500000000E+03 0.  0.
        -11    1    3    3    0    0  0.61689082929E+01  0.42697202008E+02  0.25866797942E+02  0.50301070812E+02  0.51100000000E-03 0. -1.
         23    2    1    0    0    0 -0.17069750079E+02  0.24458218234E+02 -0.68667157161E+01  0.94393912506E+02  0.89294334235E+02 0.  0.
         11    1    3    3    0    0 -0.23238658372E+02 -0.18238983773E+02 -0.32733513658E+02  0.44092841694E+02  0.51100000000E-03 0.  1.
         22    1    1    0    0    0  0.17069750079E+02 -0.24458218234E+02  0.68667157161E+01  0.30606087494E+02  0.00000000000E+00 0. -1.
</event>
<event>
 5    1  0.8863861E-005  0.9118800E+02  0.7818608E-02  0.1130116E+00
         25   -1    0    0    0    0  0.00000000000E+00  0.00000000000E+00  0.99999998245E-14  0.12500000000E+03  0.12500000000E+03 0.  0.
        -11    1    3    3    0    0 -0.15732280489E+02 -0.10750819083E+02  0.56455414524E+02  0.59584382095E+02  0.51100000000E-03 0. -1.
         23    2    1    0    0    0  0.47572070817E+01 -0.89031045679E-03  0.29544694318E+02  0.95074760112E+02  0.90242395957E+02 0.  0.
         11    1    3    3    0    0  0.20489487570E+02  0.10749928772E+02 -0.26910720206E+02  0.35490378017E+02  0.51100000000E-03 0.  1.
         22    1    1    0    0    0 -0.47572070817E+01  0.89031045679E-03 -0.29544694318E+02  0.29925239888E+02  0.00000000000E+00 0. -1.
</event>
<event>
 5    1  0.8863861E-005  0.9118800E+02  0.7818608E-02  0.1130116E+00
         25   -1    0    0    0    0  0.00000000000E+00  0.00000000000E+00  0.99999998245E-14  0.12500000000E+03  0.12500000000E+03 0.  0.
        -11    1    3    3    0    0  0.14639320225E+02  0.22407638482E+02 -0.37329964255E+02  0.45934063510E+02  0.51100000000E-03 0.  1.
         23    2    1    0    0    0  0.47693782721E-01 -0.21954852418E+02 -0.18507343735E+02  0.96285202569E+02  0.91903757498E+02 0.  0.
         11    1    3    3    0    0 -0.14591626443E+02 -0.44362490899E+02  0.18822620521E+02  0.50351139059E+02  0.51100000000E-03 0. -1.
         22    1    1    0    0    0 -0.47693782721E-01  0.21954852418E+02  0.18507343735E+02  0.28714797431E+02  0.00000000000E+00 0. -1.
</event>
<event>
 5    1  0.8863861E-005  0.9118800E+02  0.7818608E-02  0.1130116E+00
         25   -1    0    0    0    0  0.00000000000E+00  0.00000000000E+00  0.99999998245E-14  0.12500000000E+03  0.12500000000E+03 0.  0.
        -11    1    3    3    0    0 -0.29726014614E+02 -0.30453065284E+02 -0.39437093110E+02  0.58019905578E+02  0.51100000000E-03 0.  1.
         23    2    1    0    0    0 -0.21079276741E+02  0.13304209585E+01 -0.17188644465E+02  0.97768484684E+02  0.93899527001E+02 0.  0.
         11    1    3    3    0    0  0.86467378732E+01  0.31783486243E+02  0.22248448645E+02  0.39748579106E+02  0.51100000000E-03 0. -1.
         22    1    1    0    0    0  0.21079276741E+02 -0.13304209585E+01  0.17188644465E+02  0.27231515316E+02  0.00000000000E+00 0. -1.
</event>
<event>
 5    1  0.8863861E-005  0.9118800E+02  0.7818608E-02  0.1130116E+00
         25   -1    0    0    0    0  0.00000000000E+00  0.00000000000E+00  0.99999998245E-14  0.12500000000E+03  0.12500000000E+03 0.  0.
        -11    1    3    3    0    0  0.26541063162E+02  0.26296782266E+02 -0.98004493600E+01  0.38626384755E+02  0.51100000000E-03 0. -1.
         23    2    1    0    0    0 -0.21483486421E+02 -0.49871167766E+01  0.11933094755E+02  0.99923910334E+02  0.96726302439E+02 0.  0.
         11    1    3    3    0    0 -0.48024549583E+02 -0.31283899043E+02  0.21733544115E+02  0.61297525578E+02  0.51100000000E-03 0.  1.
         22    1    1    0    0    0  0.21483486421E+02  0.49871167766E+01 -0.11933094755E+02  0.25076089666E+02  0.00000000000E+00 0.  1.
</event>
<event>
 5    1  0.8863861E-005  0.9118800E+02  0.7818608E-02  0.1130116E+00
         25   -1    0    0    0    0  0.00000000000E+00  0.00000000000E+00  0.99999998245E-14  0.12500000000E+03  0.12500000000E+03 0.  0.
        -11    1    3    3    0    0  0.41310196184E+02 -0.29060112611E+02  0.65087633359E+01  0.50925302691E+02  0.51100000000E-03 0.  1.
         23    2    1    0    0    0  0.11112955542E+02 -0.16548199510E+02 -0.22720569002E+02  0.94774763132E+02  0.89825891496E+02 0.  0.
         11    1    3    3    0    0 -0.30197240642E+02  0.12511913100E+02 -0.29229332338E+02  0.43849460442E+02  0.51100000000E-03 0. -1.
         22    1    1    0    0    0 -0.11112955542E+02  0.16548199510E+02  0.22720569002E+02  0.30225236868E+02  0.00000000000E+00 0.  1.
</event>
<event>
 5    1  0.8863861E-005  0.9118800E+02  0.7818608E-02  0.1130116E+00
         25   -1    0    0    0    0  0.00000000000E+00  0.00000000000E+00  0.99999998245E-14  0.12500000000E+03  0.12500000000E+03 0.  0.
        -11    1    3    3    0    0 -0.18659657588E+02  0.57183237197E+02 -0.11620914669E+02  0.61262966755E+02  0.51100000000E-03 0. -1.
         23    2    1    0    0    0 -0.14807616700E+02  0.21574052109E+02 -0.95680839160E+01  0.97138674358E+02  0.93057340331E+02 0.  0.
         11    1    3    3    0    0  0.38520408885E+01 -0.35609185088E+02  0.20528307530E+01  0.35875707603E+02  0.51100000000E-03 0.  1.
         22    1    1    0    0    0  0.14807616700E+02 -0.21574052109E+02  0.95680839160E+01  0.27861325642E+02  0.00000000000E+00 0. -1.
</event>
<event>
 5    1  0.8863861E-005  0.9118800E+02  0.7818608E-02  0.1130116E+00
         25   -1    0    0    0    0  0.00000000000E+00  0.00000000000E+00  0.99999998245E-14  0.12500000000E+03  0.12500000000E+03 0.  0.
        -11    1    3    3    0    0  0.29191722601E+02 -0.41587202321E+01  0.29436579624E+02  0.41664899408E+02  0.51100000000E-03 0. -1.
         23    2    1    0    0    0  0.15771512003E+02 -0.35460255832E+01 -0.23610043692E+02  0.96386208719E+02  0.92041035304E+02 0.  0.
         11    1    3    3    0    0 -0.13420210598E+02  0.61269464893E+00 -0.53046623317E+02  0.54721309312E+02  0.51100000000E-03 0.  1.
         22    1    1    0    0    0 -0.15771512003E+02  0.35460255832E+01  0.23610043692E+02  0.28613791281E+02  0.00000000000E+00 0. -1.
</event>
<event>
 5    1  0.8863861E-005  0.9118800E+02  0.7818608E-02  0.1130116E+00
         25   -1    0    0    0    0  0.00000000000E+00  0.00000000000E+00  0.99999998245E-14  0.12500000000E+03  0.12500000000E+03 0.  0.
        -11    1    3    3    0    0  0.30525803645E+02 -0.26534800471E+02 -0.11212531481E+02  0.41971909496E+02  0.51100000000E-03 0.  1.
         23    2    1    0    0    0  0.12754775765E+02  0.68147750833E+01  0.26153097501E+02  0.95115054407E+02  0.90298192682E+02 0.  0.
         11    1    3    3    0    0 -0.17771027881E+02  0.33349575554E+02  0.37365628982E+02  0.53143144911E+02  0.51100000000E-03 0. -1.
         22    1    1    0    0    0 -0.12754775765E+02 -0.68147750833E+01 -0.26153097501E+02  0.29884945593E+02  0.00000000000E+00 0. -1.
</event>
<event>
 5    1  0.8863861E-005  0.9118800E+02  0.7818608E-02  0.1130116E+00
         25   -1    0    0    0    0  0.00000000000E+00  0.00000000000E+00  0.99999998245E-14  0.12500000000E+03  0.12500000000E+03 0.  0.
        -11    1    3    3    0    0  0.18259513094E+02 -0.89815896419E+01  0.26844023597E+02  0.33685017056E+02  0.51100000000E-03 0.  1.
         23    2    1    0    0    0 -0.16216107035E+02 -0.23887871740E+01 -0.24283904490E+02  0.95701937798E+02  0.91106994515E+02 0.  0.
         11    1    3    3    0    0 -0.34475620129E+02  0.65928024679E+01 -0.51127928086E+02  0.62016920742E+02  0.51100000000E-03 0. -1.
         22    1    1    0    0    0  0.16216107035E+02  0.23887871740E+01  0.24283904490E+02  0.29298062202E+02  0.00000000000E+00 0. -1.
</event>
<event>
 5    1  0.8863861E-005  0.9118800E+02  0.7818608E-02  0.1130116E+00
         25   -1    0    0    0    0  0.00000000000E+00  0.00000000000E+00  0.99999998245E-14  0.12500000000E+03  0.12500000000E+03 0.  0.
        -11    1    3    3    0    0  0.25868173799E+02  0.94818161736E+01 -0.20752539188E+02  0.34492537406E+02  0.51100000000E-03 0.  1.
         23    2    1    0    0    0 -0.23685873684E+02  0.95571392408E+01  0.14799561824E+02  0.95480742678E+02  0.90803004738E+02 0.  0.
         11    1    3    3    0    0 -0.49554047484E+02  0.75323067179E-01  0.35552101013E+02  0.60988205272E+02  0.51100000000E-03 0. -1.
         22    1    1    0    0    0  0.23685873684E+02 -0.95571392408E+01 -0.14799561824E+02  0.29519257322E+02  0.00000000000E+00 0. -1.
</event>
<event>
 5    1  0.8863861E-005  0.9118800E+02  0.7818608E-02  0.1130116E+00
         25   -1    0    0    0    0  0.00000000000E+00  0.00000000000E+00  0.99999998245E-14  0.12500000000E+03  0.12500000000E+03 0.  0.
        -11    1    3    3    0    0 -0.12006898564E+02 -0.60599455018E+02 -0.32005713221E+01  0.61860352559E+02  0.51100000000E-03 0.  1.
         23    2    1    0    0    0 -0.27701839682E+01 -0.30137450850E+02 -0.70538913418E+01  0.93924330320E+02  0.88634545072E+02 0.  0.
         11    1    3    3    0    0  0.92367145960E+01  0.30462004168E+02 -0.38533200197E+01  0.32063977762E+02  0.51100000000E-03 0. -1.
         22    1    1    0    0    0  0.27701839682E+01  0.30137450850E+02  0.70538913418E+01  0.31075669680E+02  0.00000000000E+00 0.  1.
</event>
<event>
 5    1  0.8863861E-005  0.9118800E+02  0.7818608E-02  0.1130116E+00
         25   -1    0    0    0    0  0.00000000000E+00  0.00000000000E+00  0.99999998245E-14  0.12500000000E+03  0.12500000000E+03 0.  0.
        -11    1    3    3    0    0  0.45586766613E+01  0.30102401581E+02  0.20308395166E+02  0.36597363680E+02  0.51100000000E-03 0. -1.
         23    2    1    0    0    0 -0.18943885800E+02 -0.21904879043E+02  0.73643928433E+01  0.95118085452E+02  0.90302388468E+02 0.  0.
         11    1    3    3    0    0 -0.23502562461E+02 -0.52007280625E+02 -0.12944002323E+02  0.58520721771E+02  0.51100000000E-03 0.  1.
         22    1    1    0    0    0  0.18943885800E+02  0.21904879043E+02 -0.73643928433E+01  0.29881914548E+02  0.00000000000E+00 0.  1.
</event>
<event>
 5    1  0.8863861E-005  0.9118800E+02  0.7818608E-02  0.1130116E+00
         25   -1    0    0    0    0  0.00000000000E+00  0.00000000000E+00  0.99999998245E-14  0.12500000000E+03  0.12500000000E+03 0.  0.
        -11    1    3    3    0    0  0.16532409775E+02  0.43985953330E+02  0.15130773763E+02  0.49366233178E+02  0.51100000000E-03 0.  1.
         23    2    1    0    0    0 -0.13303404733E+02  0.23697476784E+02 -0.12767051435E+02  0.94974201330E+02  0.90102998466E+02 0.  0.
         11    1    3    3    0    0 -0.29835814508E+02 -0.20288476546E+02 -0.27897825198E+02  0.45607968152E+02  0.51100000000E-03 0. -1.
         22    1    1    0    0    0  0.13303404733E+02 -0.23697476784E+02  0.12767051435E+02  0.30025798670E+02  0.00000000000E+00 0.  1.
</event>
<event>
 5    1  0.8863861E-005  0.9118800E+02  0.7818608E-02  0.1130116E+00
         25   -1    0    0    0    0  0.00000000000E+00  0.00000000000E+00  0.99999998245E-14  0.12500000000E+03  0.12500000000E+03 0.  0.
        -11    1    3    3    0    0  0.33633424127E+02  0.25018532041E+02 -0.71740346931E+01  0.42527649101E+02  0.51100000000E-03 0.  1.
         23    2    1    0    0    0  0.64965637898E+01 -0.14807395552E+02 -0.26094912548E+02  0.94301323074E+02  0.89164627339E+02 0.  0.
         11    1    3    3    0    0 -0.27136860338E+02 -0.39825927593E+02 -0.18920877855E+02  0.51773673973E+02  0.51100000000E-03 0. -1.
         22    1    1    0    0    0 -0.64965637898E+01  0.14807395552E+02  0.26094912548E+02  0.30698676926E+02  0.00000000000E+00 0. -1.
</event>
<event>
 5    1  0.8863861E-005  0.9118800E+02  0.7818608E-02  0.1130116E+00
         25   -1    0    0    0    0  0.00000000000E+00  0.00000000000E+00  0.99999998245E-14  0.12500000000E+03  0.12500000000E+03 0.  0.
        -11    1    3    3    0    0 -0.42790291208E+02  0.39658984948E+01  0.81019960746E+01  0.43730763922E+02  0.51100000000E-03 0. -1.
         23    2    1    0    0    0  0.65164003703E+00 -0.20564522831E+02  0.21350503547E+02  0.95349228750E+02  0.90621780977E+02 0.  0.
         11    1    3    3    0    0  0.43441931245E+02 -0.24530421326E+02  0.13248507472E+02  0.51618464828E+02  0.51100000000E-03 0.  1.
         22    1    1    0    0    0 -0.65164003703E+00  0.20564522831E+02 -0.21350503547E+02  0.29650771250E+02  0.00000000000E+00 0.  1.
</event>
<event>
 5    1  0.8863861E-005  0.9118800E+02  0.7818608E-02  0.1130116E+00
         25   -1    0    0    0    0  0.00000000000E+00  0.00000000000E+00  0.99999998245E-14  0.12500000000E+03  0.12500000000E+03 0.  0.
        -11    1    3    3    0    0 -0.90244772575E+01  0.47467091044E+02 -0.96314231336E+00  0.48326944506E+02  0.51100000000E-03 0.  1.
         23    2    1    0    0    0 -0.21699124853E+02  0.15636337554E+02 -0.23550013561E+02  0.89363639212E+02  0.81950654684E+02 0.  0.
         11    1    3    3    0    0 -0.12674647595E+02 -0.31830753490E+02 -0.22586871247E+02  0.41036694706E+02  0.51100000000E-03 0. -1.
         22    1    1    0    0    0  0.21699124853E+02 -0.15636337554E+02  0.23550013561E+02  0.35636360788E+02  0.00000000000E+00 0. -1.
</event>
<event>
 5    1  0.8863861E-005  0.9118800E+02  0.7818608E-02  0.1130116E+00
         25   -1    0    0    0    0  0.00000000000E+00  0.00000000000E+00  0.99999998245E-14  0.12500000000E+03  0.12500000000E+03 0.  0.
        -11    1    3    3    0    0 -0.65241837323E+01  0.46173823604E+02 -0.28229614501E+02  0.54511449208E+02  0.51100000000E-03 0.  1.
         23    2    1    0    0    0  0.14813157665E+02  0.10918812508E+02 -0.22207998513E+02  0.96158271471E+02  0.91730953706E+02 0.  0.
         11    1    3    3    0    0  0.21337341397E+02 -0.35255011096E+02  0.60216159883E+01  0.41646822263E+02  0.51100000000E-03 0. -1.
         22    1    1    0    0    0 -0.14813157665E+02 -0.10918812508E+02  0.22207998513E+02  0.28841728529E+02  0.00000000000E+00 0.  1.
</event>
<event>
 5    1  0.8863861E-005  0.9118800E+02  0.7818608E-02  0.1130116E+00
         25   -1    0    0    0    0  0.00000000000E+00  0.00000000000E+00  0.99999998245E-14  0.12500000000E+03  0.12500000000E+03 0.  0.
        -11    1    3    3    0    0  0.53377158905E+02  0.19805896229E+02 -0.21713767706E+02  0.60933425363E+02  0.51100000000E-03 0.  1.
         23    2    1    0    0    0  0.30825070162E+02  0.15409004595E+02 -0.32957786904E+01  0.90380864680E+02  0.83487820490E+02 0.  0.
         11    1    3    3    0    0 -0.22552088743E+02 -0.43968916342E+01  0.18417989016E+02  0.29447439318E+02  0.51100000000E-03 0. -1.
         22    1    1    0    0    0 -0.30825070162E+02 -0.15409004595E+02  0.32957786904E+01  0.34619135320E+02  0.00000000000E+00 0.  1.
</event>
<event>
 5    1  0.8863861E-005  0.9118800E+02  0.7818608E-02  0.1130116E+00
         25   -1    0    0    0    0  0.00000000000E+00  0.00000000000E+00  0.99999998245E-14  0.12500000000E+03  0.12500000000E+03 0.  0.
        -11    1    3    3    0    0 -0.17903421439E+02 -0.34891328334E+02 -0.47494805937E+01  0.39503099350E+02  0.51100000000E-03 0. -1.
         23    2    1    0    0    0  0.24182602335E+02 -0.16936671614E+01 -0.18102955280E+02  0.94744690482E+02  0.89784033216E+02 0.  0.
         11    1    3    3    0    0  0.42086023774E+02  0.33197661172E+02 -0.13353474686E+02  0.55241591132E+02  0.51100000000E-03 0.  1.
         22    1    1    0    0    0 -0.24182602335E+02  0.16936671614E+01  0.18102955280E+02  0.30255309518E+02  0.00000000000E+00 0.  1.
</event>
<event>
 5    1  0.8863861E-005  0.9118800E+02  0.7818608E-02  0.1130116E+00
         25   -1    0    0    0    0  0.00000000000E+00  0.00000000000E+00  0.99999998245E-14  0.12500000000E+03  0.12500000000E+03 0.  0.
        -11    1    3    3    0    0  0.12326474906E+02  0.57698685052E+02 -0.10369102476E+02  0.59904912376E+02  0.51100000000E-03 0.  1.
         23    2    1    0    0    0 -0.58793250817E+00  0.31385365277E+02  0.53360114450E+01  0.93158834249E+02  0.87548321300E+02 0.  0.
         11    1    3    3    0    0 -0.12914407415E+02 -0.26313319775E+02  0.15705113921E+02  0.33253921874E+02  0.51100000000E-03 0. -1.
         22    1    1    0    0    0  0.58793250817E+00 -0.31385365277E+02 -0.53360114450E+01  0.31841165751E+02  0.00000000000E+00 0.  1.
</event>
<event>
 5    1  0.8863861E-005  0.9118800E+02  0.7818608E-02  0.1130116E+00
         25   -1    0    0    0    0  0.00000000000E+00  0.00000000000E+00  0.99999998245E-14  0.12500000000E+03  0.12500000000E+03 0.  0.
        -11    1    3    3    0    0  0.73465445760E+01  0.20024642060E+02  0.42741114084E+02  0.47767780357E+02  0.51100000000E-03 0. -1.
         23    2    1    0    0    0 -0.25887754398E+02  0.17111553253E+01  0.12995352377E+02  0.95983055576E+02  0.91491878842E+02 0.  0.
         11    1    3    3    0    0 -0.33234298974E+02 -0.18313486735E+02 -0.29745761707E+02  0.48215275219E+02  0.51100000000E-03 0.  1.
         22    1    1    0    0    0  0.25887754398E+02 -0.17111553253E+01 -0.12995352377E+02  0.29016944424E+02  0.00000000000E+00 0.  1.
</event>
<event>
 5    1  0.8863861E-005  0.9118800E+02  0.7818608E-02  0.1130116E+00
         25   -1    0    0    0    0  0.00000000000E+00  0.00000000000E+00  0.99999998245E-14  0.12500000000E+03  0.12500000000E+03 0.  0.
        -11    1    3    3    0    0  0.20237780450E+02 -0.36470426428E+02  0.40651784427E+02  0.58242830792E+02  0.51100000000E-03 0. -1.
         23    2    1    0    0    0  0.21409009273E+02 -0.58643631274E+01  0.19371351541E+02  0.95538403073E+02  0.90882345746E+02 0.  0.
         11    1    3    3    0    0  0.11712288233E+01  0.30606063300E+02 -0.21280432886E+02  0.37295572281E+02  0.51100000000E-03 0.  1.
         22    1    1    0    0    0 -0.21409009273E+02  0.58643631274E+01 -0.19371351541E+02  0.29461596927E+02  0.00000000000E+00 0. -1.
</event>
<event>
 5    1  0.8863861E-005  0.9118800E+02  0.7818608E-02  0.1130116E+00
         25   -1    0    0    0    0  0.00000000000E+00  0.00000000000E+00  0.99999998245E-14  0.12500000000E+03  0.12500000000E+03 0.  0.
        -11    1    3    3    0    0 -0.39183964243E+02 -0.17357193646E+02 -0.20035520680E+02  0.47308321828E+02  0.51100000000E-03 0. -1.
         23    2    1    0    0    0 -0.22319149390E+02  0.14561785072E+02  0.12185588739E+02  0.95696781970E+02  0.91099920376E+02 0.  0.
         11    1    3    3    0    0  0.16864814853E+02  0.31918978718E+02  0.32221109420E+02  0.48388460142E+02  0.51100000000E-03 0.  1.
         22    1    1    0    0    0  0.22319149390E+02 -0.14561785072E+02 -0.12185588739E+02  0.29303218030E+02  0.00000000000E+00 0. -1.
</event>
<event>
 5    1  0.8863861E-005  0.9118800E+02  0.7818608E-02  0.1130116E+00
         25   -1    0    0    0    0  0.00000000000E+00  0.00000000000E+00  0.99999998245E-14  0.12500000000E+03  0.12500000000E+03 0.  0.
        -11    1    3    3    0    0  0.23532266670E+02  0.32941989038E+02 -0.31871459327E+02  0.51524092775E+02  0.51100000000E-03 0.  1.
         23    2    1    0    0    0  0.29783521903E+02 -0.14695715729E+00 -0.45862043661E+01  0.94865085966E+02  0.89951495216E+02 0.  0.
         11    1    3    3    0    0  0.62512552324E+01 -0.33088946195E+02  0.27285254960E+02  0.43340993191E+02  0.51100000000E-03 0. -1.
         22    1    1    0    0    0 -0.29783521903E+02  0.14695715729E+00  0.45862043661E+01  0.30134914034E+02  0.00000000000E+00 0.  1.
</event>
<event>
 5    1  0.8863861E-005  0.9118800E+02  0.7818608E-02  0.1130116E+00
         25   -1    0    0    0    0  0.00000000000E+00  0.00000000000E+00  0.99999998245E-14  0.12500000000E+03  0.12500000000E+03 0.  0.
        -11    1    3    3    0    0 -0.37482871139E+02  0.19037551813E+01  0.65286823678E+01  0.38094797628E+02  0.51100000000E-03 0.  1.
         23    2    1    0    0    0  0.15540293928E+02 -0.22474443041E+02  0.81827167183E+01  0.96477058737E+02  0.92164335208E+02 0.  0.
         11    1    3    3    0    0  0.53023165067E+02 -0.24378198223E+02  0.16540343505E+01  0.58382261109E+02  0.51100000000E-03 0. -1.
         22    1    1    0    0    0 -0.15540293928E+02  0.22474443041E+02 -0.81827167183E+01  0.28522941263E+02  0.00000000000E+00 0. -1.
</event>
<event>
 5    1  0.8863861E-005  0.9118800E+02  0.7818608E-02  0.1130116E+00
         25   -1    0    0    0    0  0.00000000000E+00  0.00000000000E+00  0.99999998245E-14  0.12500000000E+03  0.12500000000E+03 0.  0.
        -11    1    3    3    0    0  0.16722535602E+02  0.54292642013E+02 -0.19055447152E+02  0.59920315755E+02  0.51100000000E-03 0. -1.
         23    2    1    0    0    0  0.14302699560E+02  0.18846817837E+02 -0.17660576277E+02  0.95476014637E+02  0.90796495854E+02 0.  0.
         11    1    3    3    0    0 -0.24198360421E+01 -0.35445824176E+02  0.13948708749E+01  0.35555698883E+02  0.51100000000E-03 0.  1.
         22    1    1    0    0    0 -0.14302699560E+02 -0.18846817837E+02  0.17660576277E+02  0.29523985363E+02  0.00000000000E+00 0. -1.
</event>
<event>
 5    1  0.8863861E-005  0.9118800E+02  0.7818608E-02  0.1130116E+00
         25   -1    0    0    0    0  0.00000000000E+00  0.00000000000E+00  0.99999998245E-14  0.12500000000E+03  0.12500000000E+03 0.  0.
        -11    1    3    3    0    0 -0.24335505068E+02 -0.33939726634E+02 -0.54817233908E+01  0.42120910988E+02  0.51100000000E-03 0. -1.
         23    2    1    0    0    0  0.72378388800E+01 -0.75993563458E+01  0.27968963348E+02  0.95126944594E+02  0.90314650796E+02 0.  0.
         11    1    3    3    0    0  0.31573343948E+02  0.26340370288E+02  0.33450686739E+02  0.53006033605E+02  0.51100000000E-03 0.  1.
         22    1    1    0    0    0 -0.72378388800E+01  0.75993563458E+01 -0.27968963348E+02  0.29873055406E+02  0.00000000000E+00 0.  1.
</event>
<event>
 5    1  0.8863861E-005  0.9118800E+02  0.7818608E-02  0.1130116E+00
         25   -1    0    0    0    0  0.00000000000E+00  0.00000000000E+00  0.99999998245E-14  0.12500000000E+03  0.12500000000E+03 0.  0.
        -11    1    3    3    0    0  0.58557846127E+01  0.49659934718E+02 -0.10704823520E+02  0.51136998117E+02  0.51100000000E-03 0. -1.
         23    2    1    0    0    0  0.25553792155E+02  0.82151259644E+01 -0.74674486827E+01  0.97138783624E+02  0.93057487104E+02 0.  0.
         11    1    3    3    0    0  0.19698007542E+02 -0.41444808753E+02  0.32373748370E+01  0.46001785507E+02  0.51100000000E-03 0.  1.
         22    1    1    0    0    0 -0.25553792155E+02 -0.82151259644E+01  0.74674486827E+01  0.27861216376E+02  0.00000000000E+00 0. -1.
</event>
<event>
 5    1  0.8863861E-005  0.9118800E+02  0.7818608E-02  0.1130116E+00
         25   -1    0    0    0    0  0.00000000000E+00  0.00000000000E+00  0.99999998245E-14  0.12500000000E+03  0.12500000000E+03 0.  0.
        -11    1    3    3    0    0  0.27927260559E+00  0.45405885609E+02 -0.20688067759E+02  0.49897580993E+02  0.51100000000E-03 0.  1.
         23    2    1    0    0    0  0.24243916784E+02  0.17141148140E+02  0.48678711624E+01  0.94912084980E+02  0.90016783130E+02 0.  0.
         11    1    3    3    0    0  0.23964644178E+02 -0.28264737469E+02  0.25555938921E+02  0.45014503987E+02  0.51100000000E-03 0. -1.
         22    1    1    0    0    0 -0.24243916784E+02 -0.17141148140E+02 -0.48678711624E+01  0.30087915020E+02  0.00000000000E+00 0.  1.
</event>
<event>
 5    1  0.8863861E-005  0.9118800E+02  0.7818608E-02  0.1130116E+00
         25   -1    0    0    0    0  0.00000000000E+00  0.00000000000E+00  0.99999998245E-14  0.12500000000E+03  0.12500000000E+03 0.  0.
        -11    1    3    3    0    0 -0.56922915692E+01  0.60958610293E+02  0.10719996109E+02  0.62155230424E+02  0.51100000000E-03 0. -1.
         23    2    1    0    0    0  0.12693916995E+01  0.28040891671E+02  0.74435795171E+01  0.95960202532E+02  0.91460650735E+02 0.  0.
         11    1    3    3    0    0  0.69616832687E+01 -0.32917718623E+02 -0.32764165915E+01  0.33804972108E+02  0.51100000000E-03 0.  1.
         22    1    1    0    0    0 -0.12693916995E+01 -0.28040891671E+02 -0.74435795171E+01  0.29039797468E+02  0.00000000000E+00 0. -1.
</event>
<event>
 5    1  0.8863861E-005  0.9118800E+02  0.7818608E-02  0.1130116E+00
         25   -1    0    0    0    0  0.00000000000E+00  0.00000000000E+00  0.99999998245E-14  0.12500000000E+03  0.12500000000E+03 0.  0.
        -11    1    3    3    0    0 -0.23002290106E+02 -0.26524417731E+02  0.13431877553E+02  0.37590762442E+02  0.51100000000E-03 0.  1.
         23    2    1    0    0    0 -0.15995716359E+01  0.76559229075E+01 -0.28308646055E+02  0.95630777564E+02  0.91009309365E+02 0.  0.
         11    1    3    3    0    0  0.21402718470E+02  0.34180340639E+02 -0.41740523608E+02  0.58040015123E+02  0.51100000000E-03 0. -1.
         22    1    1    0    0    0  0.15995716359E+01 -0.76559229075E+01  0.28308646055E+02  0.29369222436E+02  0.00000000000E+00 0. -1.
</event>
<event>
 5    1  0.8863861E-005  0.9118800E+02  0.7818608E-02  0.1130116E+00
         25   -1    0    0    0    0  0.00000000000E+00  0.00000000000E+00  0.99999998245E-14  0.12500000000E+03  0.12500000000E+03 0.  0.
        -11    1    3    3    0    0  0.33373415262E+02 -0.31397121578E+02 -0.37067045639E+02  0.58936660597E+02  0.51100000000E-03 0.  1.
         23    2    1    0    0    0  0.19701280885E+02 -0.21771459654E+02 -0.48421781743E+01  0.95241243080E+02  0.90472707321E+02 0.  0.
         11    1    3    3    0    0 -0.13672134377E+02  0.96256619236E+01  0.32224867465E+02  0.36304582483E+02  0.51100000000E-03 0. -1.
         22    1    1    0    0    0 -0.19701280885E+02  0.21771459654E+02  0.48421781743E+01  0.29758756920E+02  0.00000000000E+00 0.  1.
</event>
<event>
 5    1  0.8863861E-005  0.9118800E+02  0.7818608E-02  0.1130116E+00
         25   -1    0    0    0    0  0.00000000000E+00  0.00000000000E+00  0.99999998245E-14  0.12500000000E+03  0.12500000000E+03 0.  0.
        -11    1    3    3    0    0 -0.28463357391E+02 -0.95015026305E+01  0.48958752297E+02  0.57422997945E+02  0.51100000000E-03 0.  1.
         23    2    1    0    0    0 -0.77115033645E+00 -0.17203297105E+02  0.23810994460E+02  0.95614432772E+02  0.90986857254E+02 0.  0.
         11    1    3    3    0    0  0.27692207054E+02 -0.77017944745E+01 -0.25147757837E+02  0.38191434827E+02  0.51100000000E-03 0. -1.
         22    1    1    0    0    0  0.77115033645E+00  0.17203297105E+02 -0.23810994460E+02  0.29385567228E+02  0.00000000000E+00 0.  1.
</event>
<event>
 5    1  0.8863861E-005  0.9118800E+02  0.7818608E-02  0.1130116E+00
         25   -1    0    0    0    0  0.00000000000E+00  0.00000000000E+00  0.99999998245E-14  0.12500000000E+03  0.12500000000E+03 0.  0.
        -11    1    3    3    0    0 -0.13394184217E+02  0.29452991766E+02 -0.11673475570E+02  0.34396990086E+02  0.51100000000E-03 0.  1.
         23    2    1    0    0    0  0.13461874159E+02 -0.15067565104E+02  0.21042712863E+02  0.95827250067E+02  0.91278762682E+02 0.  0.
         11    1    3    3    0    0  0.26856058376E+02 -0.44520556870E+02  0.32716188433E+02  0.61430259981E+02  0.51100000000E-03 0. -1.
         22    1    1    0    0    0 -0.13461874159E+02  0.15067565104E+02 -0.21042712863E+02  0.29172749933E+02  0.00000000000E+00 0. -1.
</event>
<event>
 5    1  0.8863861E-005  0.9118800E+02  0.7818608E-02  0.1130116E+00
         25   -1    0    0    0    0  0.00000000000E+00  0.00000000000E+00  0.99999998245E-14  0.12500000000E+03  0.12500000000E+03 0.  0.
        -11    1    3    3    0    0 -0.12527624915E+02  0.33387350031E+02  0.37485543498E+02  0.51738017934E+02  0.51100000000E-03 0. -1.
         23    2    1    0    0    0 -0.10199339402E+02  0.26076039956E+02 -0.63907396638E+01  0.96280182147E+02  0.91896928876E+02 0.  0.
         11    1    3    3    0    0  0.23282855128E+01 -0.73113100748E+01 -0.43876283162E+02  0.44542164214E+02  0.51100000000E-03 0.  1.
         22    1    1    0    0    0  0.10199339402E+02 -0.26076039956E+02  0.63907396638E+01  0.28719817853E+02  0.00000000000E+00 0. -1.
</event>
<event>
 5    1  0.8863861E-005  0.9118800E+02  0.7818608E-02  0.1130116E+00
         25   -1    0    0    0    0  0.00000000000E+00  0.00000000000E+00  0.99999998245E-14  0.12500000000E+03  0.12500000000E+03 0.  0.
        -11    1    3    3    0    0 -0.30069970976E+02  0.33644759800E+02  0.13725479890E+02  0.47165260679E+02  0.51100000000E-03 0. -1.
         23    2    1    0    0    0 -0.23070659540E+02 -0.13337274772E+02  0.14479703021E+02  0.94671794819E+02  0.89682488283E+02 0.  0.
         11    1    3    3    0    0  0.69993114359E+01 -0.46982034572E+02  0.75422313097E+00  0.47506534139E+02  0.51100000000E-03 0.  1.
         22    1    1    0    0    0  0.23070659540E+02  0.13337274772E+02 -0.14479703021E+02  0.30328205181E+02  0.00000000000E+00 0.  1.
</event>
<event>
 5    1  0.8863861E-005  0.9118800E+02  0.7818608E-02  0.1130116E+00
         25   -1    0    0    0    0  0.00000000000E+00  0.00000000000E+00  0.99999998245E-14  0.12500000000E+03  0.12500000000E+03 0.  0.
        -11    1    3    3    0    0  0.34605607402E+01  0.48338084879E+02  0.58924988465E+01  0.48818720521E+02  0.51100000000E-03 0.  1.
         23    2    1    0    0    0  0.11017657085E+02  0.12892083082E+02 -0.23872278908E+02  0.95717235887E+02  0.91127981278E+02 0.  0.
         11    1    3    3    0    0  0.75570963451E+01 -0.35446001796E+02 -0.29764777754E+02  0.46898515366E+02  0.51100000000E-03 0. -1.
         22    1    1    0    0    0 -0.11017657085E+02 -0.12892083082E+02  0.23872278908E+02  0.29282764113E+02  0.00000000000E+00 0. -1.
</event>
<event>
 5    1  0.8863861E-005  0.9118800E+02  0.7818608E-02  0.1130116E+00
         25   -1    0    0    0    0  0.00000000000E+00  0.00000000000E+00  0.99999998245E-14  0.12500000000E+03  0.12500000000E+03 0.  0.
        -11    1    3    3    0    0  0.56821192576E+01  0.33835644607E+02  0.29292952584E+01  0.34434257596E+02  0.51100000000E-03 0. -1.
         23    2    1    0    0    0 -0.21394053812E+02 -0.20492791285E+02 -0.18008402417E+01  0.95319988902E+02  0.90581439741E+02 0.  0.
         11    1    3    3    0    0 -0.27076173070E+02 -0.54328435892E+02 -0.47301355001E+01  0.60885731306E+02  0.51100000000E-03 0.  1.
         22    1    1    0    0    0  0.21394053812E+02  0.20492791285E+02  0.18008402417E+01  0.29680011098E+02  0.00000000000E+00 0.  1.
</event>
<event>
 5    1  0.8863861E-005  0.9118800E+02  0.7818608E-02  0.1130116E+00
         25   -1    0    0    0    0  0.00000000000E+00  0.00000000000E+00  0.99999998245E-14  0.12500000000E+03  0.12500000000E+03 0.  0.
        -11    1    3    3    0    0 -0.19491393703E+02  0.50676911450E+02  0.23039380451E+02  0.58982004327E+02  0.51100000000E-03 0.  1.
         23    2    1    0    0    0  0.41973536660E+01  0.28219214261E+02  0.58376563904E+01  0.95879215954E+02  0.91349898678E+02 0.  0.
         11    1    3    3    0    0  0.23688747369E+02 -0.22457697189E+02 -0.17201724060E+02  0.36897211627E+02  0.51100000000E-03 0. -1.
         22    1    1    0    0    0 -0.41973536660E+01 -0.28219214261E+02 -0.58376563904E+01  0.29120784046E+02  0.00000000000E+00 0.  1.
</event>
<event>
 4    1  0.8863861E-005  0.9118800E+02  0.7818608E-02  0.1130116E+00
         25   -1    0    0    0    0  0.00000000000E+00  0.00000000000E+00  0.99999998245E-14  0.12500000000E+03  0.12500000000E+03 0.  0.
        -11    1    1    0    0    0  0.27865375100E+02  0.18944133463E+02 -0.28701410240E+02  0.44262063578E+02  0.51100000000E-03 0. -1.
         11    1    1    0    0    0 -0.11644448478E+02 -0.14250650878E+02 -0.21190288009E+02  0.28066038854E+02  0.51100000000E-03 0.  1.
         22    1    1    0    0    0 -0.16220926622E+02 -0.46934825847E+01  0.49891698249E+02  0.52671897568E+02  0.00000000000E+00 0. -1.
</event>
<event>
 5    1  0.8863861E-005  0.9118800E+02  0.7818608E-02  0.1130116E+00
         25   -1    0    0    0    0  0.00000000000E+00  0.00000000000E+00  0.99999998245E-14  0.12500000000E+03  0.12500000000E+03 0.  0.
        -11    1    3    3    0    0  0.27367012498E+02 -0.14141511099E+02  0.51433419112E+02  0.59952750655E+02  0.51100000000E-03 0.  1.
         23    2    1    0    0    0  0.15314912621E+02 -0.17758621809E+02  0.18748048416E+02  0.94976600516E+02  0.90106326798E+02 0.  0.
         11    1    3    3    0    0 -0.12052099877E+02 -0.36171107103E+01 -0.32685370696E+02  0.35023849862E+02  0.51100000000E-03 0. -1.
         22    1    1    0    0    0 -0.15314912621E+02  0.17758621809E+02 -0.18748048416E+02  0.30023399484E+02  0.00000000000E+00 0.  1.
</event>
<event>
 5    1  0.8863861E-005  0.9118800E+02  0.7818608E-02  0.1130116E+00
         25   -1    0    0    0    0  0.00000000000E+00  0.00000000000E+00  0.99999998245E-14  0.12500000000E+03  0.12500000000E+03 0.  0.
        -11    1    3    3    0    0 -0.54108045079E+02  0.29279255842E+00 -0.15257788523E+02  0.56218914794E+02  0.51100000000E-03 0. -1.
         23    2    1    0    0    0 -0.18292202070E+02 -0.10875056974E+02 -0.22061443736E+02  0.94347450017E+02  0.89229269324E+02 0.  0.
         11    1    3    3    0    0  0.35815843010E+02 -0.11167849533E+02 -0.68036552139E+01  0.38128535222E+02  0.51100000000E-03 0.  1.
         22    1    1    0    0    0  0.18292202070E+02  0.10875056974E+02  0.22061443736E+02  0.30652549983E+02  0.00000000000E+00 0. -1.
</event>
<event>
 5    1  0.8863861E-005  0.9118800E+02  0.7818608E-02  0.1130116E+00
         25   -1    0    0    0    0  0.00000000000E+00  0.00000000000E+00  0.99999998245E-14  0.12500000000E+03  0.12500000000E+03 0.  0.
        -11    1    3    3    0    0 -0.11998980006E+02  0.27109052878E+02 -0.25958431937E+02  0.39404523319E+02  0.51100000000E-03 0. -1.
         23    2    1    0    0    0  0.98519265221E+01 -0.21904739852E+02 -0.20640497385E+02  0.93331273842E+02  0.87794182384E+02 0.  0.
         11    1    3    3    0    0  0.21850906528E+02 -0.49013792729E+02  0.53179345518E+01  0.53926750523E+02  0.51100000000E-03 0.  1.
         22    1    1    0    0    0 -0.98519265221E+01  0.21904739852E+02  0.20640497385E+02  0.31668726158E+02  0.00000000000E+00 0.  1.
</event>
<event>
 5    1  0.8863861E-005  0.9118800E+02  0.7818608E-02  0.1130116E+00
         25   -1    0    0    0    0  0.00000000000E+00  0.00000000000E+00  0.99999998245E-14  0.12500000000E+03  0.12500000000E+03 0.  0.
        -11    1    3    3    0    0 -0.32319472920E+02 -0.11407724501E+02  0.40531649558E+01  0.34512499975E+02  0.51100000000E-03 0. -1.
         23    2    1    0    0    0  0.23528591030E+02  0.14421016278E+02  0.82776791484E+01  0.96188886199E+02  0.91772662323E+02 0.  0.
         11    1    3    3    0    0  0.55848063950E+02  0.25828740779E+02  0.42245141926E+01  0.61676386224E+02  0.51100000000E-03 0.  1.
         22    1    1    0    0    0 -0.23528591030E+02 -0.14421016278E+02 -0.82776791484E+01  0.28811113801E+02  0.00000000000E+00 0.  1.
</event>
<event>
 5    1  0.8863861E-005  0.9118800E+02  0.7818608E-02  0.1130116E+00
         25   -1    0    0    0    0  0.00000000000E+00  0.00000000000E+00  0.99999998245E-14  0.12500000000E+03  0.12500000000E+03 0.  0.
        -11    1    3    3    0    0 -0.56597894539E+02 -0.56502400123E+01  0.11766636207E+02  0.58083565716E+02  0.51100000000E-03 0. -1.
         23    2    1    0    0    0 -0.19832750606E+02 -0.12066431550E+02  0.17613284746E+02  0.95859571614E+02  0.91323014096E+02 0.  0.
         11    1    3    3    0    0  0.36765143932E+02 -0.64161915376E+01  0.58466485385E+01  0.37776005898E+02  0.51100000000E-03 0.  1.
         22    1    1    0    0    0  0.19832750606E+02  0.12066431550E+02 -0.17613284746E+02  0.29140428386E+02  0.00000000000E+00 0. -1.
</event>
<event>
 5    1  0.8863861E-005  0.9118800E+02  0.7818608E-02  0.1130116E+00
         25   -1    0    0    0    0  0.00000000000E+00  0.00000000000E+00  0.99999998245E-14  0.12500000000E+03  0.12500000000E+03 0.  0.
        -11    1    3    3    0    0 -0.19735692900E+02 -0.28737933485E+02 -0.27065838146E+00  0.34863156075E+02  0.51100000000E-03 0. -1.
         23    2    1    0    0    0  0.95216147419E+01  0.21396333964E+02  0.17718064983E+02  0.95633453027E+02  0.91012984001E+02 0.  0.
         11    1    3    3    0    0  0.29257307642E+02  0.50134267449E+02  0.17988723364E+02  0.60770296952E+02  0.51100000000E-03 0.  1.
         22    1    1    0    0    0 -0.95216147419E+01 -0.21396333964E+02 -0.17718064983E+02  0.29366546973E+02  0.00000000000E+00 0.  1.
</event>
<event>
 5    1  0.8863861E-005  0.9118800E+02  0.7818608E-02  0.1130116E+00
         25   -1    0    0    0    0  0.00000000000E+00  0.00000000000E+00  0.99999998245E-14  0.12500000000E+03  0.12500000000E+03 0.  0.
        -11    1    3    3    0    0 -0.21244548656E+02 -0.19443870736E+02  0.23250605502E+02  0.37013316702E+02  0.51100000000E-03 0.  1.
         23    2    1    0    0    0  0.19742105072E+02 -0.12797912309E+02 -0.17873377599E+02  0.95453512917E+02  0.90765512334E+02 0.  0.
         11    1    3    3    0    0  0.40986653729E+02  0.66459584266E+01 -0.41123983101E+02  0.58440196215E+02  0.51100000000E-03 0. -1.
         22    1    1    0    0    0 -0.19742105072E+02  0.12797912309E+02  0.17873377599E+02  0.29546487083E+02  0.00000000000E+00 0. -1.
</event>
<event>
 5    1  0.8863861E-005  0.9118800E+02  0.7818608E-02  0.1130116E+00
         25   -1    0    0    0    0  0.00000000000E+00  0.00000000000E+00  0.99999998245E-14  0.12500000000E+03  0.12500000000E+03 0.  0.
        -11    1    3    3    0    0 -0.12458098253E+01  0.36611263337E+02 -0.43228449237E+02  0.56662469669E+02  0.51100000000E-03 0.  1.
         23    2    1    0    0    0 -0.13042817613E+02  0.25161958250E+02 -0.79792609971E+01  0.95556701266E+02  0.90907509682E+02 0.  0.
         11    1    3    3    0    0 -0.11797007788E+02 -0.11449305087E+02  0.35249188240E+02  0.38894231597E+02  0.51100000000E-03 0. -1.
         22    1    1    0    0    0  0.13042817613E+02 -0.25161958250E+02  0.79792609971E+01  0.29443298734E+02  0.00000000000E+00 0.  1.
</event>
<event>
 5    1  0.8863861E-005  0.9118800E+02  0.7818608E-02  0.1130116E+00
         25   -1    0    0    0    0  0.00000000000E+00  0.00000000000E+00  0.99999998245E-14  0.12500000000E+03  0.12500000000E+03 0.  0.
        -11    1    3    3    0    0  0.22514609966E+02  0.24626112026E+02 -0.16094814184E+02  0.37045864807E+02  0.51100000000E-03 0.  1.
         23    2    1    0    0    0 -0.29146365983E+02  0.67789483400E+01  0.29613756377E+01  0.94929507216E+02  0.90040972917E+02 0.  0.
         11    1    3    3    0    0 -0.51660975949E+02 -0.17847163686E+02  0.19056189822E+02  0.57883642408E+02  0.51100000000E-03 0. -1.
         22    1    1    0    0    0  0.29146365983E+02 -0.67789483400E+01 -0.29613756377E+01  0.30070492784E+02  0.00000000000E+00 0. -1.
</event>
<event>
 5    1  0.8863861E-005  0.9118800E+02  0.7818608E-02  0.1130116E+00
         25   -1    0    0    0    0  0.00000000000E+00  0.00000000000E+00  0.99999998245E-14  0.12500000000E+03  0.12500000000E+03 0.  0.
        -11    1    3    3    0    0  0.26837848087E+02 -0.49389724416E+02  0.16869556062E+02  0.58687280478E+02  0.51100000000E-03 0. -1.
         23    2    1    0    0    0  0.32782331027E+01 -0.21899565599E+02  0.20177031972E+02  0.95042523389E+02  0.90197731941E+02 0.  0.
         11    1    3    3    0    0 -0.23559614984E+02  0.27490158817E+02  0.33074759094E+01  0.36355242912E+02  0.51100000000E-03 0.  1.
         22    1    1    0    0    0 -0.32782331027E+01  0.21899565599E+02 -0.20177031972E+02  0.29957476611E+02  0.00000000000E+00 0. -1.
</event>
<event>
 5    1  0.8863861E-005  0.9118800E+02  0.7818608E-02  0.1130116E+00
         25   -1    0    0    0    0  0.00000000000E+00  0.00000000000E+00  0.99999998245E-14  0.12500000000E+03  0.12500000000E+03 0.  0.
        -11    1    3    3    0    0  0.34880481027E+02 -0.32878779629E+02 -0.21645156900E+02  0.52594438147E+02  0.51100000000E-03 0.  1.
         23    2    1    0    0    0  0.26445501451E+02 -0.42270241211E+01  0.10280795975E+02  0.96313294964E+02  0.91941958545E+02 0.  0.
         11    1    3    3    0    0 -0.84349795759E+01  0.28651755508E+02  0.31925952876E+02  0.43718856817E+02  0.51100000000E-03 0. -1.
         22    1    1    0    0    0 -0.26445501451E+02  0.42270241211E+01 -0.10280795975E+02  0.28686705036E+02  0.00000000000E+00 0.  1.
</event>
<event>
 5    1  0.8863861E-005  0.9118800E+02  0.7818608E-02  0.1130116E+00
         25   -1    0    0    0    0  0.00000000000E+00  0.00000000000E+00  0.99999998245E-14  0.12500000000E+03  0.12500000000E+03 0.  0.
        -11    1    3    3    0    0 -0.11847193145E+02 -0.51644202143E+02  0.27870251162E+02  0.59868443278E+02  0.51100000000E-03 0.  1.
         23    2    1    0    0    0 -0.13833619854E+02 -0.25541081080E+02  0.33086751201E+01  0.95765376828E+02  0.91193992165E+02 0.  0.
         11    1    3    3    0    0 -0.19864267086E+01  0.26103121064E+02 -0.24561576042E+02  0.35896933550E+02  0.51100000000E-03 0. -1.
         22    1    1    0    0    0  0.13833619854E+02  0.25541081080E+02 -0.33086751201E+01  0.29234623172E+02  0.00000000000E+00 0.  1.
</event>
<event>
 5    1  0.8863861E-005  0.9118800E+02  0.7818608E-02  0.1130116E+00
         25   -1    0    0    0    0  0.00000000000E+00  0.00000000000E+00  0.99999998245E-14  0.12500000000E+03  0.12500000000E+03 0.  0.
        -11    1    3    3    0    0  0.25731552864E+02  0.92644652899E+01 -0.44757669102E+02  0.52451807153E+02  0.51100000000E-03 0.  1.
         23    2    1    0    0    0  0.25715881803E+02 -0.12794447040E+02 -0.82336689131E+01  0.95120278520E+02  0.90305424145E+02 0.  0.
         11    1    3    3    0    0 -0.15671061213E-01 -0.22058912330E+02  0.36524000189E+02  0.42668471367E+02  0.51100000000E-03 0. -1.
         22    1    1    0    0    0 -0.25715881803E+02  0.12794447040E+02  0.82336689131E+01  0.29879721480E+02  0.00000000000E+00 0.  1.
</event>
<event>
 5    1  0.8863861E-005  0.9118800E+02  0.7818608E-02  0.1130116E+00
         25   -1    0    0    0    0  0.00000000000E+00  0.00000000000E+00  0.99999998245E-14  0.12500000000E+03  0.12500000000E+03 0.  0.
        -11    1    3    3    0    0 -0.13012235166E+02 -0.18240733397E+02 -0.28180088455E+02  0.36002222216E+02  0.51100000000E-03 0.  1.
         23    2    1    0    0    0  0.13871493457E+02  0.27067753260E+02 -0.28720761486E+01  0.94449543069E+02  0.89372175577E+02 0.  0.
         11    1    3    3    0    0  0.26883728624E+02  0.45308486656E+02  0.25308012307E+02  0.58447320854E+02  0.51100000000E-03 0. -1.
         22    1    1    0    0    0 -0.13871493457E+02 -0.27067753260E+02  0.28720761486E+01  0.30550456931E+02  0.00000000000E+00 0. -1.
</event>
<event>
 5    1  0.8863861E-005  0.9118800E+02  0.7818608E-02  0.1130116E+00
         25   -1    0    0    0    0  0.00000000000E+00  0.00000000000E+00  0.99999998245E-14  0.12500000000E+03  0.12500000000E+03 0.  0.
        -11    1    3    3    0    0 -0.33232851965E+02  0.29539838286E+02 -0.38652983965E+02  0.58915852411E+02  0.51100000000E-03 0.  1.
         23    2    1    0    0    0 -0.38434362475E+01  0.10695693423E+02 -0.26974021114E+02  0.95729405966E+02  0.91144673413E+02 0.  0.
         11    1    3    3    0    0  0.29389415718E+02 -0.18844144862E+02  0.11678962851E+02  0.36813553555E+02  0.51100000000E-03 0. -1.
         22    1    1    0    0    0  0.38434362475E+01 -0.10695693423E+02  0.26974021114E+02  0.29270594034E+02  0.00000000000E+00 0.  1.
</event>
<event>
 5    1  0.8863861E-005  0.9118800E+02  0.7818608E-02  0.1130116E+00
         25   -1    0    0    0    0  0.00000000000E+00  0.00000000000E+00  0.99999998245E-14  0.12500000000E+03  0.12500000000E+03 0.  0.
        -11    1    3    3    0    0  0.26926524072E+02  0.43475838180E+02  0.30773182703E+02  0.59683959134E+02  0.51100000000E-03 0.  1.
         23    2    1    0    0    0  0.18875922454E+02  0.18539857615E+02  0.22036280065E+01  0.98450372032E+02  0.94802916664E+02 0.  0.
         11    1    3    3    0    0 -0.80506016183E+01 -0.24935980565E+02 -0.28569554696E+02  0.38766412898E+02  0.51100000000E-03 0. -1.
         22    1    1    0    0    0 -0.18875922454E+02 -0.18539857615E+02 -0.22036280065E+01  0.26549627968E+02  0.00000000000E+00 0.  1.
</event>
<event>
 5    1  0.8863861E-005  0.9118800E+02  0.7818608E-02  0.1130116E+00
         25   -1    0    0    0    0  0.00000000000E+00  0.00000000000E+00  0.99999998245E-14  0.12500000000E+03  0.12500000000E+03 0.  0.
        -11    1    3    3    0    0  0.12183088287E+02  0.31863351078E+02 -0.26173970070E+02  0.42997412615E+02  0.51100000000E-03 0. -1.
         23    2    1    0    0    0 -0.94968612106E+01  0.26160064339E+01 -0.41388729252E+02  0.82455191015E+02  0.70631421858E+02 0.  0.
         11    1    3    3    0    0 -0.21679949498E+02 -0.29247344644E+02 -0.15214759182E+02  0.39457778399E+02  0.51100000000E-03 0.  1.
         22    1    1    0    0    0  0.94968612106E+01 -0.26160064339E+01  0.41388729252E+02  0.42544808985E+02  0.00000000000E+00 0. -1.
</event>
<event>
 5    1  0.8863861E-005  0.9118800E+02  0.7818608E-02  0.1130116E+00
         25   -1    0    0    0    0  0.00000000000E+00  0.00000000000E+00  0.99999998245E-14  0.12500000000E+03  0.12500000000E+03 0.  0.
        -11    1    3    3    0    0  0.40304309914E+02  0.59649641041E-02 -0.41262301548E+02  0.57680282268E+02  0.51100000000E-03 0.  1.
         23    2    1    0    0    0  0.51971853095E+01  0.70193234818E+01 -0.27686351884E+02  0.95968711397E+02  0.91472279130E+02 0.  0.
         11    1    3    3    0    0 -0.35107124604E+02  0.70133585177E+01  0.13575949664E+02  0.38288429129E+02  0.51100000000E-03 0. -1.
         22    1    1    0    0    0 -0.51971853095E+01 -0.70193234818E+01  0.27686351884E+02  0.29031288603E+02  0.00000000000E+00 0.  1.
</event>
<event>
 5    1  0.8863861E-005  0.9118800E+02  0.7818608E-02  0.1130116E+00
         25   -1    0    0    0    0  0.00000000000E+00  0.00000000000E+00  0.99999998245E-14  0.12500000000E+03  0.12500000000E+03 0.  0.
        -11    1    3    3    0    0  0.23481025761E+02 -0.34270269810E+02  0.71489016202E+01  0.42153490463E+02  0.51100000000E-03 0.  1.
         23    2    1    0    0    0 -0.24759946353E+02 -0.18684126308E+02 -0.29346419709E+01  0.93842919861E+02  0.88519658637E+02 0.  0.
         11    1    3    3    0    0 -0.48240972114E+02  0.15586143502E+02 -0.10083543591E+02  0.51689429397E+02  0.51100000000E-03 0. -1.
         22    1    1    0    0    0  0.24759946353E+02  0.18684126308E+02  0.29346419709E+01  0.31157080139E+02  0.00000000000E+00 0. -1.
</event>
<event>
 5    1  0.8863861E-005  0.9118800E+02  0.7818608E-02  0.1130116E+00
         25   -1    0    0    0    0  0.00000000000E+00  0.00000000000E+00  0.99999998245E-14  0.12500000000E+03  0.12500000000E+03 0.  0.
        -11    1    3    3    0    0 -0.34469902381E+02 -0.22653263414E+02  0.11766272150E+02  0.42892769484E+02  0.51100000000E-03 0.  1.
         23    2    1    0    0    0 -0.46781786086E+01 -0.43946151863E+02  0.10707945962E+02  0.79526824111E+02  0.65243436665E+02 0.  0.
         11    1    3    3    0    0  0.29791723772E+02 -0.21292888449E+02 -0.10583261886E+01  0.36634054627E+02  0.51100000000E-03 0. -1.
         22    1    1    0    0    0  0.46781786086E+01  0.43946151863E+02 -0.10707945962E+02  0.45473175889E+02  0.00000000000E+00 0.  1.
</event>
<event>
 5    1  0.8863861E-005  0.9118800E+02  0.7818608E-02  0.1130116E+00
         25   -1    0    0    0    0  0.00000000000E+00  0.00000000000E+00  0.99999998245E-14  0.12500000000E+03  0.12500000000E+03 0.  0.
        -11    1    3    3    0    0  0.20483459231E+02  0.33438627591E+02 -0.15881747860E+02  0.42307727811E+02  0.51100000000E-03 0.  1.
         23    2    1    0    0    0 -0.16141153594E+02  0.18224992881E+02  0.18203820673E+02  0.94601541290E+02  0.89584514970E+02 0.  0.
         11    1    3    3    0    0 -0.36624612825E+02 -0.15213634709E+02  0.34085568533E+02  0.52293813479E+02  0.51100000000E-03 0. -1.
         22    1    1    0    0    0  0.16141153594E+02 -0.18224992881E+02 -0.18203820673E+02  0.30398458710E+02  0.00000000000E+00 0.  1.
</event>
<event>
 5    1  0.8863861E-005  0.9118800E+02  0.7818608E-02  0.1130116E+00
         25   -1    0    0    0    0  0.00000000000E+00  0.00000000000E+00  0.99999998245E-14  0.12500000000E+03  0.12500000000E+03 0.  0.
        -11    1    3    3    0    0 -0.40339528912E+02  0.45036424427E+02  0.14227647163E+02  0.62112664265E+02  0.51100000000E-03 0. -1.
         23    2    1    0    0    0 -0.20434988919E+02  0.18778479991E+02  0.23101299544E+01  0.97151179858E+02  0.93074136926E+02 0.  0.
         11    1    3    3    0    0  0.19904539993E+02 -0.26257944436E+02 -0.11917517208E+02  0.35038515593E+02  0.51100000000E-03 0.  1.
         22    1    1    0    0    0  0.20434988919E+02 -0.18778479991E+02 -0.23101299544E+01  0.27848820142E+02  0.00000000000E+00 0. -1.
</event>
<event>
 5    1  0.8863861E-005  0.9118800E+02  0.7818608E-02  0.1130116E+00
         25   -1    0    0    0    0  0.00000000000E+00  0.00000000000E+00  0.99999998245E-14  0.12500000000E+03  0.12500000000E+03 0.  0.
        -11    1    3    3    0    0  0.33293889886E+02 -0.18836768817E+02 -0.64244403397E+01  0.38788921062E+02  0.51100000000E-03 0.  1.
         23    2    1    0    0    0 -0.22800891035E+02 -0.15432162948E+02 -0.11387343503E+02  0.95205640177E+02  0.90423503826E+02 0.  0.
         11    1    3    3    0    0 -0.56094780920E+02  0.34046058684E+01 -0.49629031629E+01  0.56416719115E+02  0.51100000000E-03 0. -1.
         22    1    1    0    0    0  0.22800891035E+02  0.15432162948E+02  0.11387343503E+02  0.29794359823E+02  0.00000000000E+00 0. -1.
</event>
<event>
 5    1  0.8863861E-005  0.9118800E+02  0.7818608E-02  0.1130116E+00
         25   -1    0    0    0    0  0.00000000000E+00  0.00000000000E+00  0.99999998245E-14  0.12500000000E+03  0.12500000000E+03 0.  0.
        -11    1    3    3    0    0  0.42092081793E+02  0.30137541577E+02  0.32669179929E+02  0.61215113162E+02  0.51100000000E-03 0.  1.
         23    2    1    0    0    0  0.20238842263E+02  0.62690758512E+01  0.19668680691E+02  0.96090329502E+02  0.91638323727E+02 0.  0.
         11    1    3    3    0    0 -0.21853239530E+02 -0.23868465725E+02 -0.13000499239E+02  0.34875216340E+02  0.51100000000E-03 0. -1.
         22    1    1    0    0    0 -0.20238842263E+02 -0.62690758512E+01 -0.19668680691E+02  0.28909670498E+02  0.00000000000E+00 0.  1.
</event>
<event>
 5    1  0.8863861E-005  0.9118800E+02  0.7818608E-02  0.1130116E+00
         25   -1    0    0    0    0  0.00000000000E+00  0.00000000000E+00  0.99999998245E-14  0.12500000000E+03  0.12500000000E+03 0.  0.
        -11    1    3    3    0    0 -0.29136989332E+02  0.25227184686E+02  0.71940343365E+01  0.39206238340E+02  0.51100000000E-03 0.  1.
         23    2    1    0    0    0  0.23451553878E+02  0.22493152362E+02  0.64505775632E+01  0.91871051430E+02  0.85689922731E+02 0.  0.
         11    1    3    3    0    0  0.52588543209E+02 -0.27340323242E+01 -0.74345677335E+00  0.52664813090E+02  0.51100000000E-03 0. -1.
         22    1    1    0    0    0 -0.23451553878E+02 -0.22493152362E+02 -0.64505775632E+01  0.33128948570E+02  0.00000000000E+00 0. -1.
</event>
<event>
 5    1  0.8863861E-005  0.9118800E+02  0.7818608E-02  0.1130116E+00
         25   -1    0    0    0    0  0.00000000000E+00  0.00000000000E+00  0.99999998245E-14  0.12500000000E+03  0.12500000000E+03 0.  0.
        -11    1    3    3    0    0 -0.31082296741E+02 -0.14060125065E+02 -0.41518705390E+01  0.34366179839E+02  0.51100000000E-03 0.  1.
         23    2    1    0    0    0  0.23701439586E+02  0.13505937512E+02 -0.99379885389E+01  0.95966705273E+02  0.91469537651E+02 0.  0.
         11    1    3    3    0    0  0.54783736327E+02  0.27566062576E+02 -0.57861179999E+01  0.61600525433E+02  0.51100000000E-03 0. -1.
         22    1    1    0    0    0 -0.23701439586E+02 -0.13505937512E+02  0.99379885389E+01  0.29033294727E+02  0.00000000000E+00 0. -1.
</event>
<event>
 5    1  0.8863861E-005  0.9118800E+02  0.7818608E-02  0.1130116E+00
         25   -1    0    0    0    0  0.00000000000E+00  0.00000000000E+00  0.99999998245E-14  0.12500000000E+03  0.12500000000E+03 0.  0.
        -11    1    3    3    0    0 -0.31039221852E+02  0.20005240958E+02  0.11359373155E+02  0.38635195324E+02  0.51100000000E-03 0.  1.
         23    2    1    0    0    0 -0.62805265837E+01 -0.11515988082E+02 -0.27543636469E+02  0.94492379549E+02  0.89432068562E+02 0.  0.
         11    1    3    3    0    0  0.24758695268E+02 -0.31521229040E+02 -0.38903009623E+02  0.55857184225E+02  0.51100000000E-03 0. -1.
         22    1    1    0    0    0  0.62805265837E+01  0.11515988082E+02  0.27543636469E+02  0.30507620451E+02  0.00000000000E+00 0.  1.
</event>
<event>
 5    1  0.8863861E-005  0.9118800E+02  0.7818608E-02  0.1130116E+00
         25   -1    0    0    0    0  0.00000000000E+00  0.00000000000E+00  0.99999998245E-14  0.12500000000E+03  0.12500000000E+03 0.  0.
        -11    1    3    3    0    0  0.35419746686E+02  0.26211063013E+02  0.32424246751E+02  0.54707495439E+02  0.51100000000E-03 0.  1.
         23    2    1    0    0    0  0.91046174129E+01  0.27492710701E+02  0.58607378895E+00  0.96033007018E+02  0.91560099140E+02 0.  0.
         11    1    3    3    0    0 -0.26315129273E+02  0.12816476879E+01 -0.31838172962E+02  0.41325511579E+02  0.51100000000E-03 0. -1.
         22    1    1    0    0    0 -0.91046174129E+01 -0.27492710701E+02 -0.58607378895E+00  0.28966992982E+02  0.00000000000E+00 0.  1.
</event>
<event>
 5    1  0.8863861E-005  0.9118800E+02  0.7818608E-02  0.1130116E+00
         25   -1    0    0    0    0  0.00000000000E+00  0.00000000000E+00  0.99999998245E-14  0.12500000000E+03  0.12500000000E+03 0.  0.
        -11    1    3    3    0    0 -0.25553371026E+02 -0.20836040951E+02  0.19065986860E+02  0.38087100552E+02  0.51100000000E-03 0.  1.
         23    2    1    0    0    0  0.26274522114E+02  0.29231187766E+01  0.13340405803E+02  0.95388151650E+02  0.90675453749E+02 0.  0.
         11    1    3    3    0    0  0.51827893140E+02  0.23759159727E+02 -0.57255810561E+01  0.57301051098E+02  0.51100000000E-03 0. -1.
         22    1    1    0    0    0 -0.26274522114E+02 -0.29231187766E+01 -0.13340405803E+02  0.29611848350E+02  0.00000000000E+00 0. -1.
</event>
<event>
 5    1  0.8863861E-005  0.9118800E+02  0.7818608E-02  0.1130116E+00
         25   -1    0    0    0    0  0.00000000000E+00  0.00000000000E+00  0.99999998245E-14  0.12500000000E+03  0.12500000000E+03 0.  0.
        -11    1    3    3    0    0  0.19566088320E+02 -0.31280927910E+02 -0.78770911281E+01  0.37727666611E+02  0.51100000000E-03 0.  1.
         23    2    1    0    0    0 -0.38274590913E+01  0.21472204917E+02 -0.18494396088E+02  0.96403711539E+02  0.92064802638E+02 0.  0.
         11    1    3    3    0    0 -0.23393547412E+02  0.52753132826E+02 -0.10617304960E+02  0.58676044928E+02  0.51100000000E-03 0. -1.
         22    1    1    0    0    0  0.38274590913E+01 -0.21472204917E+02  0.18494396088E+02  0.28596288461E+02  0.00000000000E+00 0. -1.
</event>
<event>
 5    1  0.8863861E-005  0.9118800E+02  0.7818608E-02  0.1130116E+00
         25   -1    0    0    0    0  0.00000000000E+00  0.00000000000E+00  0.99999998245E-14  0.12500000000E+03  0.12500000000E+03 0.  0.
        -11    1    3    3    0    0 -0.70877262475E+01  0.13542183135E+02  0.49878170202E+02  0.52167599623E+02  0.51100000000E-03 0.  1.
         23    2    1    0    0    0 -0.30991073672E+01  0.28123769371E+02  0.97101280001E+01  0.95086166145E+02  0.90258193735E+02 0.  0.
         11    1    3    3    0    0  0.39886188803E+01  0.14581586237E+02 -0.40168042202E+02  0.42918566523E+02  0.51100000000E-03 0. -1.
         22    1    1    0    0    0  0.30991073672E+01 -0.28123769371E+02 -0.97101280001E+01  0.29913833855E+02  0.00000000000E+00 0.  1.
</event>
<event>
 5    1  0.8863861E-005  0.9118800E+02  0.7818608E-02  0.1130116E+00
         25   -1    0    0    0    0  0.00000000000E+00  0.00000000000E+00  0.99999998245E-14  0.12500000000E+03  0.12500000000E+03 0.  0.
        -11    1    3    3    0    0 -0.29254325016E+02  0.21574106306E+02  0.24600376143E+02  0.43891184783E+02  0.51100000000E-03 0.  1.
         23    2    1    0    0    0 -0.17917119085E+02 -0.23216974955E+02  0.12825868119E+01  0.95645339189E+02  0.91029307354E+02 0.  0.
         11    1    3    3    0    0  0.11337205930E+02 -0.44791081261E+02 -0.23317789331E+02  0.51754154407E+02  0.51100000000E-03 0. -1.
         22    1    1    0    0    0  0.17917119085E+02  0.23216974955E+02 -0.12825868119E+01  0.29354660811E+02  0.00000000000E+00 0.  1.
</event>
<event>
 5    1  0.8863861E-005  0.9118800E+02  0.7818608E-02  0.1130116E+00
         25   -1    0    0    0    0  0.00000000000E+00  0.00000000000E+00  0.99999998245E-14  0.12500000000E+03  0.12500000000E+03 0.  0.
        -11    1    3    3    0    0 -0.12707142010E+02 -0.25359987105E+02 -0.20133781270E+02  0.34784616608E+02  0.51100000000E-03 0.  1.
         23    2    1    0    0    0  0.81223601912E+00  0.29816344558E+02  0.34229011927E+00  0.95170630368E+02  0.90375093870E+02 0.  0.
         11    1    3    3    0    0  0.13519378029E+02  0.55176331663E+02  0.20476071389E+02  0.60386013760E+02  0.51100000000E-03 0. -1.
         22    1    1    0    0    0 -0.81223601912E+00 -0.29816344558E+02 -0.34229011927E+00  0.29829369632E+02  0.00000000000E+00 0. -1.
</event>
<event>
 5    1  0.8863861E-005  0.9118800E+02  0.7818608E-02  0.1130116E+00
         25   -1    0    0    0    0  0.00000000000E+00  0.00000000000E+00  0.99999998245E-14  0.12500000000E+03  0.12500000000E+03 0.  0.
        -11    1    3    3    0    0 -0.19154756713E+02 -0.21120152844E+02 -0.40686065357E+02  0.49682204816E+02  0.51100000000E-03 0. -1.
         23    2    1    0    0    0  0.13384966849E+02  0.71156648911E+01 -0.25446404765E+02  0.95380588462E+02  0.90665026970E+02 0.  0.
         11    1    3    3    0    0  0.32539723562E+02  0.28235817735E+02  0.15239660592E+02  0.45698383646E+02  0.51100000000E-03 0.  1.
         22    1    1    0    0    0 -0.13384966849E+02 -0.71156648911E+01  0.25446404765E+02  0.29619411538E+02  0.00000000000E+00 0. -1.
</event>
<event>
 5    1  0.8863861E-005  0.9118800E+02  0.7818608E-02  0.1130116E+00
         25   -1    0    0    0    0  0.00000000000E+00  0.00000000000E+00  0.99999998245E-14  0.12500000000E+03  0.12500000000E+03 0.  0.
        -11    1    3    3    0    0  0.34102621101E+02  0.14618383666E+02  0.58419008440E+01  0.37560800214E+02  0.51100000000E-03 0. -1.
         23    2    1    0    0    0 -0.45235304602E+01 -0.23069174529E+02  0.20852868097E+02  0.93575626512E+02  0.88141401328E+02 0.  0.
         11    1    3    3    0    0 -0.38626151561E+02 -0.37687558194E+02  0.15010967253E+02  0.56014826298E+02  0.51100000000E-03 0.  1.
         22    1    1    0    0    0  0.45235304602E+01  0.23069174529E+02 -0.20852868097E+02  0.31424373488E+02  0.00000000000E+00 0.  1.
</event>
<event>
 5    1  0.8863861E-005  0.9118800E+02  0.7818608E-02  0.1130116E+00
         25   -1    0    0    0    0  0.00000000000E+00  0.00000000000E+00  0.99999998245E-14  0.12500000000E+03  0.12500000000E+03 0.  0.
        -11    1    3    3    0    0 -0.51826263680E+02 -0.17248885015E+01  0.93169362098E+01  0.52685312451E+02  0.51100000000E-03 0. -1.
         23    2    1    0    0    0 -0.17378252516E+02  0.20977368356E+02 -0.67101437225E+01  0.96945059750E+02  0.92796901552E+02 0.  0.
         11    1    3    3    0    0  0.34448011165E+02  0.22702256857E+02 -0.16027079932E+02  0.44259747300E+02  0.51100000000E-03 0.  1.
         22    1    1    0    0    0  0.17378252516E+02 -0.20977368356E+02  0.67101437225E+01  0.28054940250E+02  0.00000000000E+00 0. -1.
</event>
<event>
 5    1  0.8863861E-005  0.9118800E+02  0.7818608E-02  0.1130116E+00
         25   -1    0    0    0    0  0.00000000000E+00  0.00000000000E+00  0.99999998245E-14  0.12500000000E+03  0.12500000000E+03 0.  0.
        -11    1    3    3    0    0  0.16338478962E+02  0.33160855310E+02  0.27410774943E+02  0.46021069120E+02  0.51100000000E-03 0.  1.
         23    2    1    0    0    0  0.16953860792E+02 -0.15375359132E+02  0.18934304850E+02  0.95295741646E+02  0.90547972984E+02 0.  0.
         11    1    3    3    0    0  0.61538183016E+00 -0.48536214442E+02 -0.84764700931E+01  0.49274672527E+02  0.51100000000E-03 0. -1.
         22    1    1    0    0    0 -0.16953860792E+02  0.15375359132E+02 -0.18934304850E+02  0.29704258354E+02  0.00000000000E+00 0. -1.
</event>
<event>
 5    1  0.8863861E-005  0.9118800E+02  0.7818608E-02  0.1130116E+00
         25   -1    0    0    0    0  0.00000000000E+00  0.00000000000E+00  0.99999998245E-14  0.12500000000E+03  0.12500000000E+03 0.  0.
        -11    1    3    3    0    0  0.27741629173E+02 -0.30295889406E+02 -0.12323243338E+02  0.42887075334E+02  0.51100000000E-03 0.  1.
         23    2    1    0    0    0 -0.13337828261E+02  0.38439908153E+01 -0.23732768608E+02  0.97506032773E+02  0.93549495954E+02 0.  0.
         11    1    3    3    0    0 -0.41079457434E+02  0.34139880221E+02 -0.11409525270E+02  0.54618957439E+02  0.51100000000E-03 0. -1.
         22    1    1    0    0    0  0.13337828261E+02 -0.38439908153E+01  0.23732768608E+02  0.27493967227E+02  0.00000000000E+00 0. -1.
</event>
<event>
 5    1  0.8863861E-005  0.9118800E+02  0.7818608E-02  0.1130116E+00
         25   -1    0    0    0    0  0.00000000000E+00  0.00000000000E+00  0.99999998245E-14  0.12500000000E+03  0.12500000000E+03 0.  0.
        -11    1    3    3    0    0 -0.19832749608E+02  0.57849761649E+02 -0.23383372346E+00  0.61155437684E+02  0.51100000000E-03 0. -1.
         23    2    1    0    0    0 -0.14271727326E+02  0.23725782440E+02 -0.71268815622E+01  0.96410012346E+02  0.92073357093E+02 0.  0.
         11    1    3    3    0    0  0.55610222824E+01 -0.34123979208E+02 -0.68930478387E+01  0.35254574662E+02  0.51100000000E-03 0.  1.
         22    1    1    0    0    0  0.14271727326E+02 -0.23725782440E+02  0.71268815622E+01  0.28589987654E+02  0.00000000000E+00 0. -1.
</event>
<event>
 5    1  0.8863861E-005  0.9118800E+02  0.7818608E-02  0.1130116E+00
         25   -1    0    0    0    0  0.00000000000E+00  0.00000000000E+00  0.99999998245E-14  0.12500000000E+03  0.12500000000E+03 0.  0.
        -11    1    3    3    0    0 -0.47617782050E+02  0.34313465956E+01  0.40100688996E+01  0.47909372357E+02  0.51100000000E-03 0. -1.
         23    2    1    0    0    0 -0.81421952289E+01 -0.29011869677E+01 -0.25806953163E+02  0.97783992568E+02  0.93920168984E+02 0.  0.
         11    1    3    3    0    0  0.39475586821E+02 -0.63325335633E+01 -0.29817022063E+02  0.49874620211E+02  0.51100000000E-03 0.  1.
         22    1    1    0    0    0  0.81421952289E+01  0.29011869677E+01  0.25806953163E+02  0.27216007432E+02  0.00000000000E+00 0.  1.
</event>
<event>
 5    1  0.8863861E-005  0.9118800E+02  0.7818608E-02  0.1130116E+00
         25   -1    0    0    0    0  0.00000000000E+00  0.00000000000E+00  0.99999998245E-14  0.12500000000E+03  0.12500000000E+03 0.  0.
        -11    1    3    3    0    0  0.44808992399E+02  0.23061938516E+02  0.19139624314E+02  0.53907550743E+02  0.51100000000E-03 0.  1.
         23    2    1    0    0    0  0.27012239917E+02 -0.83795875983E+01 -0.34361631484E+01  0.96509899775E+02  0.92208865863E+02 0.  0.
         11    1    3    3    0    0 -0.17796752482E+02 -0.31441526114E+02 -0.22575787463E+02  0.42602349033E+02  0.51100000000E-03 0. -1.
         22    1    1    0    0    0 -0.27012239917E+02  0.83795875983E+01  0.34361631484E+01  0.28490100225E+02  0.00000000000E+00 0.  1.
</event>
<event>
 5    1  0.8863861E-005  0.9118800E+02  0.7818608E-02  0.1130116E+00
         25   -1    0    0    0    0  0.00000000000E+00  0.00000000000E+00  0.99999998245E-14  0.12500000000E+03  0.12500000000E+03 0.  0.
        -11    1    3    3    0    0  0.54276917542E+02  0.13780566698E+01  0.20301089357E+02  0.57965654032E+02  0.51100000000E-03 0.  1.
         23    2    1    0    0    0  0.25418702835E+02 -0.15467320174E+02  0.45778372544E+01  0.94895099384E+02  0.89993193332E+02 0.  0.
         11    1    3    3    0    0 -0.28858214707E+02 -0.16845376844E+02 -0.15723252103E+02  0.36929445352E+02  0.51100000000E-03 0. -1.
         22    1    1    0    0    0 -0.25418702835E+02  0.15467320174E+02 -0.45778372544E+01  0.30104900616E+02  0.00000000000E+00 0.  1.
</event>
<event>
 5    1  0.8863861E-005  0.9118800E+02  0.7818608E-02  0.1130116E+00
         25   -1    0    0    0    0  0.00000000000E+00  0.00000000000E+00  0.99999998245E-14  0.12500000000E+03  0.12500000000E+03 0.  0.
        -11    1    3    3    0    0  0.11288205713E+02  0.67947956379E+01  0.41536352736E+02  0.43575927240E+02  0.51100000000E-03 0.  1.
         23    2    1    0    0    0  0.23259944545E+01  0.27384811738E+02 -0.66373863985E+01  0.96726460032E+02  0.92501972996E+02 0.  0.
         11    1    3    3    0    0 -0.89622112585E+01  0.20590016100E+02 -0.48173739134E+02  0.53150532792E+02  0.51100000000E-03 0. -1.
         22    1    1    0    0    0 -0.23259944545E+01 -0.27384811738E+02  0.66373863985E+01  0.28273539968E+02  0.00000000000E+00 0. -1.
</event>
<event>
 5    1  0.8863861E-005  0.9118800E+02  0.7818608E-02  0.1130116E+00
         25   -1    0    0    0    0  0.00000000000E+00  0.00000000000E+00  0.99999998245E-14  0.12500000000E+03  0.12500000000E+03 0.  0.
        -11    1    3    3    0    0  0.88371963460E+00  0.45896408770E+01 -0.37632184331E+02  0.37921327265E+02  0.51100000000E-03 0.  1.
         23    2    1    0    0    0  0.23986186479E+02  0.88947702607E+01  0.14846676057E+02  0.95421665535E+02  0.90721642312E+02 0.  0.
         11    1    3    3    0    0  0.23102466844E+02  0.43051293837E+01  0.52478860388E+02  0.57500338270E+02  0.51100000000E-03 0. -1.
         22    1    1    0    0    0 -0.23986186479E+02 -0.88947702607E+01 -0.14846676057E+02  0.29578334465E+02  0.00000000000E+00 0. -1.
</event>
<event>
 5    1  0.8863861E-005  0.9118800E+02  0.7818608E-02  0.1130116E+00
         25   -1    0    0    0    0  0.00000000000E+00  0.00000000000E+00  0.99999998245E-14  0.12500000000E+03  0.12500000000E+03 0.  0.
        -11    1    3    3    0    0 -0.28937896283E+00 -0.81835870171E+01 -0.38778066946E+02  0.39633234954E+02  0.51100000000E-03 0.  1.
         23    2    1    0    0    0  0.17281665865E+02 -0.19921764910E+02  0.13029099284E+02  0.95584185880E+02  0.90945293832E+02 0.  0.
         11    1    3    3    0    0  0.17571044828E+02 -0.11738177892E+02  0.51807166229E+02  0.55950950926E+02  0.51100000000E-03 0. -1.
         22    1    1    0    0    0 -0.17281665865E+02  0.19921764910E+02 -0.13029099284E+02  0.29415814120E+02  0.00000000000E+00 0. -1.
</event>
<event>
 5    1  0.8863861E-005  0.9118800E+02  0.7818608E-02  0.1130116E+00
         25   -1    0    0    0    0  0.00000000000E+00  0.00000000000E+00  0.99999998245E-14  0.12500000000E+03  0.12500000000E+03 0.  0.
        -11    1    3    3    0    0  0.20391266900E+02  0.98500239589E+01 -0.26922665414E+02  0.35180344669E+02  0.51100000000E-03 0.  1.
         23    2    1    0    0    0 -0.16587146975E+02 -0.23887784265E+02  0.62803264896E+01  0.95247652484E+02  0.90481562327E+02 0.  0.
         11    1    3    3    0    0 -0.36978413876E+02 -0.33737808224E+02  0.33202991904E+02  0.60067307815E+02  0.51100000000E-03 0. -1.
         22    1    1    0    0    0  0.16587146975E+02  0.23887784265E+02 -0.62803264896E+01  0.29752347516E+02  0.00000000000E+00 0. -1.
</event>
<event>
 5    1  0.8863861E-005  0.9118800E+02  0.7818608E-02  0.1130116E+00
         25   -1    0    0    0    0  0.00000000000E+00  0.00000000000E+00  0.99999998245E-14  0.12500000000E+03  0.12500000000E+03 0.  0.
        -11    1    3    3    0    0 -0.94509149566E+01 -0.45177642888E+02 -0.40762330597E+02  0.61578460572E+02  0.51100000000E-03 0.  1.
         23    2    1    0    0    0 -0.63147448967E+01 -0.17819685144E+02 -0.26089421831E+02  0.92780826932E+02  0.87006934970E+02 0.  0.
         11    1    3    3    0    0  0.31361700598E+01  0.27357957744E+02  0.14672908766E+02  0.31202366360E+02  0.51100000000E-03 0. -1.
         22    1    1    0    0    0  0.63147448967E+01  0.17819685144E+02  0.26089421831E+02  0.32219173068E+02  0.00000000000E+00 0.  1.
</event>
<event>
 5    1  0.8863861E-005  0.9118800E+02  0.7818608E-02  0.1130116E+00
         25   -1    0    0    0    0  0.00000000000E+00  0.00000000000E+00  0.99999998245E-14  0.12500000000E+03  0.12500000000E+03 0.  0.
        -11    1    3    3    0    0 -0.19418133243E+02 -0.23081925714E+02 -0.15792574712E+02  0.34047681413E+02  0.51100000000E-03 0. -1.
         23    2    1    0    0    0  0.75206124526E+01  0.29517595312E+02 -0.61222510790E+01  0.93930239735E+02  0.88642878641E+02 0.  0.
         11    1    3    3    0    0  0.26938745696E+02  0.52599521025E+02  0.96703236334E+01  0.59882558322E+02  0.51100000000E-03 0.  1.
         22    1    1    0    0    0 -0.75206124526E+01 -0.29517595312E+02  0.61222510790E+01  0.31069760265E+02  0.00000000000E+00 0.  1.
</event>
<event>
 5    1  0.8863861E-005  0.9118800E+02  0.7818608E-02  0.1130116E+00
         25   -1    0    0    0    0  0.00000000000E+00  0.00000000000E+00  0.99999998245E-14  0.12500000000E+03  0.12500000000E+03 0.  0.
        -11    1    3    3    0    0  0.29754050919E+02  0.94262611465E+01 -0.19336516691E+01  0.31271343980E+02  0.51100000000E-03 0.  1.
         23    2    1    0    0    0 -0.31048932838E+02  0.14271549010E+01  0.67039063472E+01  0.93203532244E+02  0.87612117090E+02 0.  0.
         11    1    3    3    0    0 -0.60802983756E+02 -0.79991062455E+01  0.86375580163E+01  0.61932188264E+02  0.51100000000E-03 0. -1.
         22    1    1    0    0    0  0.31048932838E+02 -0.14271549010E+01 -0.67039063472E+01  0.31796467756E+02  0.00000000000E+00 0. -1.
</event>
<event>
 5    1  0.8863861E-005  0.9118800E+02  0.7818608E-02  0.1130116E+00
         25   -1    0    0    0    0  0.00000000000E+00  0.00000000000E+00  0.99999998245E-14  0.12500000000E+03  0.12500000000E+03 0.  0.
        -11    1    3    3    0    0 -0.24372398522E+01  0.26205040304E+02 -0.21277595808E+02  0.33843468485E+02  0.51100000000E-03 0. -1.
         23    2    1    0    0    0 -0.63507329128E+01 -0.19910082290E+02  0.20158794254E+02  0.95963468336E+02  0.91465114027E+02 0.  0.
         11    1    3    3    0    0 -0.39134930606E+01 -0.46115122595E+02  0.41436390062E+02  0.62119999851E+02  0.51100000000E-03 0.  1.
         22    1    1    0    0    0  0.63507329128E+01  0.19910082290E+02 -0.20158794254E+02  0.29036531664E+02  0.00000000000E+00 0.  1.
</event>
<event>
 5    1  0.8863861E-005  0.9118800E+02  0.7818608E-02  0.1130116E+00
         25   -1    0    0    0    0  0.00000000000E+00  0.00000000000E+00  0.99999998245E-14  0.12500000000E+03  0.12500000000E+03 0.  0.
        -11    1    3    3    0    0  0.49675804198E+02 -0.22861053214E+02 -0.30250884344E+02  0.62493433900E+02  0.51100000000E-03 0. -1.
         23    2    1    0    0    0  0.22853606479E+02 -0.11167247386E+02 -0.14347448414E+02  0.95796506729E+02  0.91236652077E+02 0.  0.
         11    1    3    3    0    0 -0.26822197719E+02  0.11693805828E+02  0.15903435930E+02  0.33303072829E+02  0.51100000000E-03 0.  1.
         22    1    1    0    0    0 -0.22853606479E+02  0.11167247386E+02  0.14347448414E+02  0.29203493271E+02  0.00000000000E+00 0. -1.
</event>
<event>
 5    1  0.8863861E-005  0.9118800E+02  0.7818608E-02  0.1130116E+00
         25   -1    0    0    0    0  0.00000000000E+00  0.00000000000E+00  0.99999998245E-14  0.12500000000E+03  0.12500000000E+03 0.  0.
        -11    1    3    3    0    0  0.22664096422E+02 -0.69189980394E+01 -0.32958760619E+02  0.40593271639E+02  0.51100000000E-03 0.  1.
         23    2    1    0    0    0  0.12440986521E+02 -0.15630840424E+02  0.20891891312E+02  0.96093730082E+02  0.91642962199E+02 0.  0.
         11    1    3    3    0    0 -0.10223109901E+02 -0.87118423845E+01  0.53850651931E+02  0.55500458444E+02  0.51100000000E-03 0. -1.
         22    1    1    0    0    0 -0.12440986521E+02  0.15630840424E+02 -0.20891891312E+02  0.28906269918E+02  0.00000000000E+00 0. -1.
</event>
<event>
 5    1  0.8863861E-005  0.9118800E+02  0.7818608E-02  0.1130116E+00
         25   -1    0    0    0    0  0.00000000000E+00  0.00000000000E+00  0.99999998245E-14  0.12500000000E+03  0.12500000000E+03 0.  0.
        -11    1    3    3    0    0  0.44624125517E+02  0.30895085497E+02  0.10025666159E+02  0.55193594449E+02  0.51100000000E-03 0.  1.
         23    2    1    0    0    0  0.28272263933E+02 -0.58261307284E+01  0.49978703168E+01  0.95704208240E+02  0.91110109538E+02 0.  0.
         11    1    3    3    0    0 -0.16351861584E+02 -0.36721216226E+02 -0.50277958423E+01  0.40510613790E+02  0.51100000000E-03 0. -1.
         22    1    1    0    0    0 -0.28272263933E+02  0.58261307284E+01 -0.49978703168E+01  0.29295791760E+02  0.00000000000E+00 0.  1.
</event>
<event>
 5    1  0.8863861E-005  0.9118800E+02  0.7818608E-02  0.1130116E+00
         25   -1    0    0    0    0  0.00000000000E+00  0.00000000000E+00  0.99999998245E-14  0.12500000000E+03  0.12500000000E+03 0.  0.
        -11    1    3    3    0    0  0.51124309783E+02  0.23022748013E+02 -0.26752371142E+02  0.62124321637E+02  0.51100000000E-03 0.  1.
         23    2    1    0    0    0  0.22478193007E+02  0.80489248163E+01 -0.65495625441E+01  0.10024215031E+03  0.97136695324E+02 0.  0.
         11    1    3    3    0    0 -0.28646116776E+02 -0.14973823197E+02  0.20202808598E+02  0.38117828676E+02  0.51100000000E-03 0. -1.
         22    1    1    0    0    0 -0.22478193007E+02 -0.80489248163E+01  0.65495625441E+01  0.24757849686E+02  0.00000000000E+00 0.  1.
</event>
<event>
 5    1  0.8863861E-005  0.9118800E+02  0.7818608E-02  0.1130116E+00
         25   -1    0    0    0    0  0.00000000000E+00  0.00000000000E+00  0.99999998245E-14  0.12500000000E+03  0.12500000000E+03 0.  0.
        -11    1    3    3    0    0 -0.34376984686E+02  0.41713208252E+02  0.30013217386E+02  0.61826871479E+02  0.51100000000E-03 0.  1.
         23    2    1    0    0    0 -0.11200893954E+02  0.19829364687E+02  0.18293595970E+02  0.95788369050E+02  0.91225502259E+02 0.  0.
         11    1    3    3    0    0  0.23176090733E+02 -0.21883843564E+02 -0.11719621416E+02  0.33961497570E+02  0.51100000000E-03 0. -1.
         22    1    1    0    0    0  0.11200893954E+02 -0.19829364687E+02 -0.18293595970E+02  0.29211630950E+02  0.00000000000E+00 0.  1.
</event>
<event>
 5    1  0.8863861E-005  0.9118800E+02  0.7818608E-02  0.1130116E+00
         25   -1    0    0    0    0  0.00000000000E+00  0.00000000000E+00  0.99999998245E-14  0.12500000000E+03  0.12500000000E+03 0.  0.
        -11    1    3    3    0    0 -0.33068164380E+02  0.91132085059E+00  0.15957956384E+02  0.36728604294E+02  0.51100000000E-03 0.  1.
         23    2    1    0    0    0  0.61324883943E+01  0.20160934541E+02 -0.21959966136E+02  0.94564645424E+02  0.89533018245E+02 0.  0.
         11    1    3    3    0    0  0.39200652775E+02  0.19249613690E+02 -0.37917922520E+02  0.57836041130E+02  0.51100000000E-03 0. -1.
         22    1    1    0    0    0 -0.61324883943E+01 -0.20160934541E+02  0.21959966136E+02  0.30435354576E+02  0.00000000000E+00 0. -1.
</event>
<event>
 5    1  0.8863861E-005  0.9118800E+02  0.7818608E-02  0.1130116E+00
         25   -1    0    0    0    0  0.00000000000E+00  0.00000000000E+00  0.99999998245E-14  0.12500000000E+03  0.12500000000E+03 0.  0.
        -11    1    3    3    0    0 -0.40766578950E+02  0.10121877640E+02 -0.73171688506E+01  0.42636924449E+02  0.51100000000E-03 0. -1.
         23    2    1    0    0    0 -0.64272424100E+01 -0.29153802518E+02 -0.33676808397E+01  0.94956782454E+02  0.90078829997E+02 0.  0.
         11    1    3    3    0    0  0.34339336540E+02 -0.39275680158E+02  0.39494880110E+01  0.52319858005E+02  0.51100000000E-03 0.  1.
         22    1    1    0    0    0  0.64272424100E+01  0.29153802518E+02  0.33676808397E+01  0.30043217546E+02  0.00000000000E+00 0. -1.
</event>
<event>
 5    1  0.8863861E-005  0.9118800E+02  0.7818608E-02  0.1130116E+00
         25   -1    0    0    0    0  0.00000000000E+00  0.00000000000E+00  0.99999998245E-14  0.12500000000E+03  0.12500000000E+03 0.  0.
        -11    1    3    3    0    0  0.10790635330E+02 -0.41652583581E+02  0.19845821501E+02  0.47383880815E+02  0.51100000000E-03 0. -1.
         23    2    1    0    0    0  0.17295632826E+02 -0.14572211657E+02 -0.19192040691E+02  0.95338194706E+02  0.90606559787E+02 0.  0.
         11    1    3    3    0    0  0.65049974959E+01  0.27080371924E+02 -0.39037862192E+02  0.47954313891E+02  0.51100000000E-03 0.  1.
         22    1    1    0    0    0 -0.17295632826E+02  0.14572211657E+02  0.19192040691E+02  0.29661805294E+02  0.00000000000E+00 0. -1.
</event>
<event>
 5    1  0.8863861E-005  0.9118800E+02  0.7818608E-02  0.1130116E+00
         25   -1    0    0    0    0  0.00000000000E+00  0.00000000000E+00  0.99999998245E-14  0.12500000000E+03  0.12500000000E+03 0.  0.
        -11    1    3    3    0    0 -0.18963473739E+02  0.34451626084E+02 -0.40232871838E+02  0.56260215541E+02  0.51100000000E-03 0.  1.
         23    2    1    0    0    0  0.11231575595E+02  0.15512228177E+02 -0.20272171720E+02  0.97112037371E+02  0.93021553108E+02 0.  0.
         11    1    3    3    0    0  0.30195049334E+02 -0.18939397907E+02  0.19960700118E+02  0.40851821830E+02  0.51100000000E-03 0. -1.
         22    1    1    0    0    0 -0.11231575595E+02 -0.15512228177E+02  0.20272171720E+02  0.27887962629E+02  0.00000000000E+00 0.  1.
</event>
<event>
 5    1  0.8863861E-005  0.9118800E+02  0.7818608E-02  0.1130116E+00
         25   -1    0    0    0    0  0.00000000000E+00  0.00000000000E+00  0.99999998245E-14  0.12500000000E+03  0.12500000000E+03 0.  0.
        -11    1    3    3    0    0 -0.49444059352E+01  0.27150276193E+02 -0.23791622823E+02  0.36436601985E+02  0.51100000000E-03 0.  1.
         23    2    1    0    0    0 -0.17752359884E+01 -0.10307019899E+01  0.28768099920E+02  0.96158755533E+02  0.91731613326E+02 0.  0.
         11    1    3    3    0    0  0.31691699467E+01 -0.28180978182E+02  0.52559722742E+02  0.59722153549E+02  0.51100000000E-03 0. -1.
         22    1    1    0    0    0  0.17752359884E+01  0.10307019899E+01 -0.28768099920E+02  0.28841244467E+02  0.00000000000E+00 0. -1.
</event>
<event>
 5    1  0.8863861E-005  0.9118800E+02  0.7818608E-02  0.1130116E+00
         25   -1    0    0    0    0  0.00000000000E+00  0.00000000000E+00  0.99999998245E-14  0.12500000000E+03  0.12500000000E+03 0.  0.
        -11    1    3    3    0    0  0.11654880608E+02 -0.78339396158E+01  0.60551909057E+02  0.62158994060E+02  0.51100000000E-03 0.  1.
         23    2    1    0    0    0  0.12706535582E+01 -0.56966072758E+01  0.28150249775E+02  0.96251044240E+02  0.91857286373E+02 0.  0.
         11    1    3    3    0    0 -0.10384227050E+02  0.21373323400E+01 -0.32401659282E+02  0.34092050179E+02  0.51100000000E-03 0. -1.
         22    1    1    0    0    0 -0.12706535582E+01  0.56966072758E+01 -0.28150249775E+02  0.28748955760E+02  0.00000000000E+00 0.  1.
</event>
<event>
 5    1  0.8863861E-005  0.9118800E+02  0.7818608E-02  0.1130116E+00
         25   -1    0    0    0    0  0.00000000000E+00  0.00000000000E+00  0.99999998245E-14  0.12500000000E+03  0.12500000000E+03 0.  0.
        -11    1    3    3    0    0  0.27424584147E+02  0.28970958075E+02 -0.21619974072E+02  0.45374524863E+02  0.51100000000E-03 0. -1.
         23    2    1    0    0    0 -0.20054680607E+02  0.12300757367E+02 -0.17135331527E+02  0.95894700953E+02  0.91371085351E+02 0.  0.
         11    1    3    3    0    0 -0.47479264754E+02 -0.16670200707E+02  0.44846425452E+01  0.50520176091E+02  0.51100000000E-03 0.  1.
         22    1    1    0    0    0  0.20054680607E+02 -0.12300757367E+02  0.17135331527E+02  0.29105299047E+02  0.00000000000E+00 0.  1.
</event>
<event>
 5    1  0.8863861E-005  0.9118800E+02  0.7818608E-02  0.1130116E+00
         25   -1    0    0    0    0  0.00000000000E+00  0.00000000000E+00  0.99999998245E-14  0.12500000000E+03  0.12500000000E+03 0.  0.
        -11    1    3    3    0    0 -0.30862466488E+02  0.41318696245E+02  0.23398331137E+02  0.56632220488E+02  0.51100000000E-03 0. -1.
         23    2    1    0    0    0 -0.26502712154E+02  0.46528458395E+01  0.60917372122E+01  0.97411016906E+02  0.93422450334E+02 0.  0.
         11    1    3    3    0    0  0.43597543343E+01 -0.36665850405E+02 -0.17306593925E+02  0.40778796418E+02  0.51100000000E-03 0.  1.
         22    1    1    0    0    0  0.26502712154E+02 -0.46528458395E+01 -0.60917372122E+01  0.27588983094E+02  0.00000000000E+00 0. -1.
</event>
<event>
 5    1  0.8863861E-005  0.9118800E+02  0.7818608E-02  0.1130116E+00
         25   -1    0    0    0    0  0.00000000000E+00  0.00000000000E+00  0.99999998245E-14  0.12500000000E+03  0.12500000000E+03 0.  0.
        -11    1    3    3    0    0  0.11503019620E+02  0.53114771588E+01  0.51727642395E+02  0.53256738897E+02  0.51100000000E-03 0. -1.
         23    2    1    0    0    0 -0.14210883549E+02  0.15846708205E+02  0.16840913518E+02  0.97858081493E+02  0.94018723524E+02 0.  0.
         11    1    3    3    0    0 -0.25713903168E+02  0.10535231046E+02 -0.34886728877E+02  0.44601342595E+02  0.51100000000E-03 0.  1.
         22    1    1    0    0    0  0.14210883549E+02 -0.15846708205E+02 -0.16840913518E+02  0.27141918507E+02  0.00000000000E+00 0.  1.
</event>
<event>
 5    1  0.8863861E-005  0.9118800E+02  0.7818608E-02  0.1130116E+00
         25   -1    0    0    0    0  0.00000000000E+00  0.00000000000E+00  0.99999998245E-14  0.12500000000E+03  0.12500000000E+03 0.  0.
        -11    1    3    3    0    0 -0.23011485650E+02 -0.43900037127E+02 -0.27258017262E+02  0.56566255284E+02  0.51100000000E-03 0.  1.
         23    2    1    0    0    0 -0.11330475558E+02 -0.26443303030E+02  0.57229520608E+01  0.95667762926E+02  0.91060094066E+02 0.  0.
         11    1    3    3    0    0  0.11681010092E+02  0.17456734097E+02  0.32980969323E+02  0.39101507642E+02  0.51100000000E-03 0. -1.
         22    1    1    0    0    0  0.11330475558E+02  0.26443303030E+02 -0.57229520608E+01  0.29332237074E+02  0.00000000000E+00 0.  1.
</event>
<event>
 5    1  0.8863861E-005  0.9118800E+02  0.7818608E-02  0.1130116E+00
         25   -1    0    0    0    0  0.00000000000E+00  0.00000000000E+00  0.99999998245E-14  0.12500000000E+03  0.12500000000E+03 0.  0.
        -11    1    3    3    0    0  0.42448554289E+02 -0.29843048952E+01 -0.11585399186E+02  0.44102237035E+02  0.51100000000E-03 0.  1.
         23    2    1    0    0    0  0.94036097889E+01  0.19136060381E+02  0.20669323448E+02  0.95304249197E+02  0.90559716758E+02 0.  0.
         11    1    3    3    0    0 -0.33044944500E+02  0.22120365277E+02  0.32254722633E+02  0.51202012162E+02  0.51100000000E-03 0. -1.
         22    1    1    0    0    0 -0.94036097889E+01 -0.19136060381E+02 -0.20669323448E+02  0.29695750803E+02  0.00000000000E+00 0. -1.
</event>
<event>
 5    1  0.8863861E-005  0.9118800E+02  0.7818608E-02  0.1130116E+00
         25   -1    0    0    0    0  0.00000000000E+00  0.00000000000E+00  0.99999998245E-14  0.12500000000E+03  0.12500000000E+03 0.  0.
        -11    1    3    3    0    0 -0.20599762825E+02 -0.15835268372E+02  0.46255313357E+02  0.53053369043E+02  0.51100000000E-03 0. -1.
         23    2    1    0    0    0 -0.29472741014E+02 -0.12197822472E+01  0.88149529699E+01  0.94213091622E+02  0.89040849645E+02 0.  0.
         11    1    3    3    0    0 -0.88729781893E+01  0.14615486124E+02 -0.37440360387E+02  0.41159722579E+02  0.51100000000E-03 0.  1.
         22    1    1    0    0    0  0.29472741014E+02  0.12197822472E+01 -0.88149529699E+01  0.30786908378E+02  0.00000000000E+00 0. -1.
</event>
<event>
 5    1  0.8863861E-005  0.9118800E+02  0.7818608E-02  0.1130116E+00
         25   -1    0    0    0    0  0.00000000000E+00  0.00000000000E+00  0.99999998245E-14  0.12500000000E+03  0.12500000000E+03 0.  0.
        -11    1    3    3    0    0  0.97385163760E+01  0.28274126154E+02 -0.17263660988E+02  0.34529681463E+02  0.51100000000E-03 0. -1.
         23    2    1    0    0    0 -0.68615299976E+00 -0.28262923284E+02  0.52033559209E+01  0.96253895024E+02  0.91861165657E+02 0.  0.
         11    1    3    3    0    0 -0.10424669376E+02 -0.56537049437E+02  0.22467016909E+02  0.61724213561E+02  0.51100000000E-03 0.  1.
         22    1    1    0    0    0  0.68615299976E+00  0.28262923284E+02 -0.52033559209E+01  0.28746104976E+02  0.00000000000E+00 0.  1.
</event>
<event>
 5    1  0.8863861E-005  0.9118800E+02  0.7818608E-02  0.1130116E+00
         25   -1    0    0    0    0  0.00000000000E+00  0.00000000000E+00  0.99999998245E-14  0.12500000000E+03  0.12500000000E+03 0.  0.
        -11    1    3    3    0    0  0.38235696562E+02  0.53603031776E+01  0.34186716430E+02  0.51569689957E+02  0.51100000000E-03 0.  1.
         23    2    1    0    0    0 -0.22228774814E+01  0.24800307013E+01  0.32671752646E+02  0.92158940981E+02  0.86108856950E+02 0.  0.
         11    1    3    3    0    0 -0.40458574043E+02 -0.28802724763E+01 -0.15149637843E+01  0.40589251024E+02  0.51100000000E-03 0. -1.
         22    1    1    0    0    0  0.22228774814E+01 -0.24800307013E+01 -0.32671752646E+02  0.32841059019E+02  0.00000000000E+00 0.  1.
</event>
<event>
 5    1  0.8863861E-005  0.9118800E+02  0.7818608E-02  0.1130116E+00
         25   -1    0    0    0    0  0.00000000000E+00  0.00000000000E+00  0.99999998245E-14  0.12500000000E+03  0.12500000000E+03 0.  0.
        -11    1    3    3    0    0 -0.69365111484E+01 -0.56367359369E+02  0.18248802704E+02  0.59652436577E+02  0.51100000000E-03 0.  1.
         23    2    1    0    0    0 -0.38973139074E+01 -0.18873523576E+02  0.19890004343E+02  0.97305032576E+02  0.93280534647E+02 0.  0.
         11    1    3    3    0    0  0.30391972410E+01  0.37493835793E+02  0.16412016388E+01  0.37652595999E+02  0.51100000000E-03 0. -1.
         22    1    1    0    0    0  0.38973139074E+01  0.18873523576E+02 -0.19890004343E+02  0.27694967424E+02  0.00000000000E+00 0.  1.
</event>
<event>
 5    1  0.8863861E-005  0.9118800E+02  0.7818608E-02  0.1130116E+00
         25   -1    0    0    0    0  0.00000000000E+00  0.00000000000E+00  0.99999998245E-14  0.12500000000E+03  0.12500000000E+03 0.  0.
        -11    1    3    3    0    0  0.31031541773E+02  0.50694052325E+02 -0.11476227289E+02  0.60535504615E+02  0.51100000000E-03 0.  1.
         23    2    1    0    0    0  0.21365535621E+02  0.17389245148E+02  0.11153254269E+01  0.97429800327E+02  0.93447579326E+02 0.  0.
         11    1    3    3    0    0 -0.96660061522E+01 -0.33304807177E+02  0.12591552716E+02  0.36894295712E+02  0.51100000000E-03 0. -1.
         22    1    1    0    0    0 -0.21365535621E+02 -0.17389245148E+02 -0.11153254269E+01  0.27570199673E+02  0.00000000000E+00 0.  1.
</event>
<event>
 5    1  0.8863861E-005  0.9118800E+02  0.7818608E-02  0.1130116E+00
         25   -1    0    0    0    0  0.00000000000E+00  0.00000000000E+00  0.99999998245E-14  0.12500000000E+03  0.12500000000E+03 0.  0.
        -11    1    3    3    0    0 -0.69881716692E+00  0.30870320904E+02  0.23227478380E+02  0.38639109854E+02  0.51100000000E-03 0.  1.
         23    2    1    0    0    0  0.20840473877E+02 -0.19312691224E+02  0.54595324267E+01  0.96067114073E+02  0.91606651060E+02 0.  0.
         11    1    3    3    0    0  0.21539291044E+02 -0.50183012128E+02 -0.17767945953E+02  0.57428004219E+02  0.51100000000E-03 0. -1.
         22    1    1    0    0    0 -0.20840473877E+02  0.19312691224E+02 -0.54595324267E+01  0.28932885927E+02  0.00000000000E+00 0. -1.
</event>
<event>
 5    1  0.8863861E-005  0.9118800E+02  0.7818608E-02  0.1130116E+00
         25   -1    0    0    0    0  0.00000000000E+00  0.00000000000E+00  0.99999998245E-14  0.12500000000E+03  0.12500000000E+03 0.  0.
        -11    1    3    3    0    0  0.22153221278E+02 -0.17248029504E+02  0.17045839020E+02  0.32845400940E+02  0.51100000000E-03 0. -1.
         23    2    1    0    0    0 -0.23134999222E+02  0.56512285676E+01 -0.18533001258E+02  0.94823242239E+02  0.89893328784E+02 0.  0.
         11    1    3    3    0    0 -0.45288220500E+02  0.22899258072E+02 -0.35578840277E+02  0.61977841299E+02  0.51100000000E-03 0.  1.
         22    1    1    0    0    0  0.23134999222E+02 -0.56512285676E+01  0.18533001258E+02  0.30176757761E+02  0.00000000000E+00 0.  1.
</event>
<event>
 5    1  0.8863861E-005  0.9118800E+02  0.7818608E-02  0.1130116E+00
         25   -1    0    0    0    0  0.00000000000E+00  0.00000000000E+00  0.99999998245E-14  0.12500000000E+03  0.12500000000E+03 0.  0.
        -11    1    3    3    0    0  0.16739275883E+02 -0.35507955639E+02  0.98650433019E+01  0.40476380154E+02  0.51100000000E-03 0.  1.
         23    2    1    0    0    0 -0.22034605316E+02 -0.10264484392E+01  0.22086817028E+02  0.93784540460E+02  0.88437181745E+02 0.  0.
         11    1    3    3    0    0 -0.38773881199E+02  0.34481507199E+02  0.12221773726E+02  0.53308160307E+02  0.51100000000E-03 0. -1.
         22    1    1    0    0    0  0.22034605316E+02  0.10264484392E+01 -0.22086817028E+02  0.31215459540E+02  0.00000000000E+00 0. -1.
</event>
<event>
 5    1  0.8863861E-005  0.9118800E+02  0.7818608E-02  0.1130116E+00
         25   -1    0    0    0    0  0.00000000000E+00  0.00000000000E+00  0.99999998245E-14  0.12500000000E+03  0.12500000000E+03 0.  0.
        -11    1    3    3    0    0  0.46209081209E+01  0.25601161306E+02 -0.26155818510E+02  0.36890365874E+02  0.51100000000E-03 0. -1.
         23    2    1    0    0    0 -0.23033585728E+02 -0.17171162668E+02 -0.23482939943E+02  0.87894159931E+02  0.79677725763E+02 0.  0.
         11    1    3    3    0    0 -0.27654493849E+02 -0.42772323974E+02  0.26728785673E+01  0.51003794057E+02  0.51100000000E-03 0.  1.
         22    1    1    0    0    0  0.23033585728E+02  0.17171162668E+02  0.23482939943E+02  0.37105840069E+02  0.00000000000E+00 0. -1.
</event>
<event>
 5    1  0.8863861E-005  0.9118800E+02  0.7818608E-02  0.1130116E+00
         25   -1    0    0    0    0  0.00000000000E+00  0.00000000000E+00  0.99999998245E-14  0.12500000000E+03  0.12500000000E+03 0.  0.
        -11    1    3    3    0    0  0.31916471057E+02  0.23840639905E+02  0.18056395297E+02  0.43738663070E+02  0.51100000000E-03 0. -1.
         23    2    1    0    0    0  0.88186859150E+00 -0.38774831744E+01  0.35803882093E+02  0.88975972728E+02  0.81357195023E+02 0.  0.
         11    1    3    3    0    0 -0.31034602465E+02 -0.27718123079E+02  0.17747486796E+02  0.45237309658E+02  0.51100000000E-03 0.  1.
         22    1    1    0    0    0 -0.88186859150E+00  0.38774831744E+01 -0.35803882093E+02  0.36024027272E+02  0.00000000000E+00 0.  1.
</event>
<event>
 5    1  0.8863861E-005  0.9118800E+02  0.7818608E-02  0.1130116E+00
         25   -1    0    0    0    0  0.00000000000E+00  0.00000000000E+00  0.99999998245E-14  0.12500000000E+03  0.12500000000E+03 0.  0.
        -11    1    3    3    0    0  0.47820274964E+01  0.29402383371E+02 -0.13570921322E+02  0.32734352608E+02  0.51100000000E-03 0.  1.
         23    2    1    0    0    0  0.67441854765E+01 -0.24237479988E+02  0.17124047755E+02  0.94566917911E+02  0.89536190883E+02 0.  0.
         11    1    3    3    0    0  0.19621579801E+01 -0.53639863359E+02  0.30694969078E+02  0.61832565303E+02  0.51100000000E-03 0. -1.
         22    1    1    0    0    0 -0.67441854765E+01  0.24237479988E+02 -0.17124047755E+02  0.30433082089E+02  0.00000000000E+00 0. -1.
</event>
<event>
 5    1  0.8863861E-005  0.9118800E+02  0.7818608E-02  0.1130116E+00
         25   -1    0    0    0    0  0.00000000000E+00  0.00000000000E+00  0.99999998245E-14  0.12500000000E+03  0.12500000000E+03 0.  0.
        -11    1    3    3    0    0  0.19746390037E+02  0.17067600455E+02  0.25690057166E+02  0.36622424035E+02  0.51100000000E-03 0. -1.
         23    2    1    0    0    0 -0.27011804597E+01 -0.59664956425E+01 -0.26376781993E+02  0.97822250379E+02  0.93971073181E+02 0.  0.
         11    1    3    3    0    0 -0.22447570496E+02 -0.23034096098E+02 -0.52066839159E+02  0.61199826344E+02  0.51100000000E-03 0.  1.
         22    1    1    0    0    0  0.27011804597E+01  0.59664956425E+01  0.26376781993E+02  0.27177749621E+02  0.00000000000E+00 0.  1.
</event>
<event>
 5    1  0.8863861E-005  0.9118800E+02  0.7818608E-02  0.1130116E+00
         25   -1    0    0    0    0  0.00000000000E+00  0.00000000000E+00  0.99999998245E-14  0.12500000000E+03  0.12500000000E+03 0.  0.
        -11    1    3    3    0    0  0.36652821795E+02  0.32008144577E+02  0.18423011800E+02  0.52032278721E+02  0.51100000000E-03 0.  1.
         23    2    1    0    0    0  0.15557407934E+02 -0.25332517610E+01  0.27307659567E+02  0.93469719679E+02  0.87991078637E+02 0.  0.
         11    1    3    3    0    0 -0.21095413861E+02 -0.34541396338E+02  0.88846477668E+01  0.41437440958E+02  0.51100000000E-03 0. -1.
         22    1    1    0    0    0 -0.15557407934E+02  0.25332517610E+01 -0.27307659567E+02  0.31530280321E+02  0.00000000000E+00 0.  1.
</event>
<event>
 5    1  0.8863861E-005  0.9118800E+02  0.7818608E-02  0.1130116E+00
         25   -1    0    0    0    0  0.00000000000E+00  0.00000000000E+00  0.99999998245E-14  0.12500000000E+03  0.12500000000E+03 0.  0.
        -11    1    3    3    0    0  0.16918914250E+02  0.30828931451E+02  0.17562281561E+02  0.39307841555E+02  0.51100000000E-03 0.  1.
         23    2    1    0    0    0 -0.22509720673E+02 -0.49415923477E+01  0.22523913082E+02  0.92775265397E+02  0.86998944530E+02 0.  0.
         11    1    3    3    0    0 -0.39428634922E+02 -0.35770523799E+02  0.49616315214E+01  0.53467423842E+02  0.51100000000E-03 0. -1.
         22    1    1    0    0    0  0.22509720673E+02  0.49415923477E+01 -0.22523913082E+02  0.32224734603E+02  0.00000000000E+00 0. -1.
</event>
<event>
 5    1  0.8863861E-005  0.9118800E+02  0.7818608E-02  0.1130116E+00
         25   -1    0    0    0    0  0.00000000000E+00  0.00000000000E+00  0.99999998245E-14  0.12500000000E+03  0.12500000000E+03 0.  0.
        -11    1    3    3    0    0 -0.14973102124E+02 -0.28835642044E+02  0.31316088237E+02  0.45126327372E+02  0.51100000000E-03 0.  1.
         23    2    1    0    0    0  0.17599789430E+02 -0.22686139506E+02 -0.66503185578E+01  0.95527296518E+02  0.90867068454E+02 0.  0.
         11    1    3    3    0    0  0.32572891554E+02  0.61495025387E+01 -0.37966406795E+02  0.50400969146E+02  0.51100000000E-03 0. -1.
         22    1    1    0    0    0 -0.17599789430E+02  0.22686139506E+02  0.66503185578E+01  0.29472703482E+02  0.00000000000E+00 0.  1.
</event>
<event>
 5    1  0.8863861E-005  0.9118800E+02  0.7818608E-02  0.1130116E+00
         25   -1    0    0    0    0  0.00000000000E+00  0.00000000000E+00  0.99999998245E-14  0.12500000000E+03  0.12500000000E+03 0.  0.
        -11    1    3    3    0    0  0.51624393018E+02  0.32142261356E+02  0.12310884327E+01  0.60825311331E+02  0.51100000000E-03 0. -1.
         23    2    1    0    0    0  0.18051189839E+02  0.23243094108E+02  0.39514518591E+00  0.95567993307E+02  0.90923035182E+02 0.  0.
         11    1    3    3    0    0 -0.33573203180E+02 -0.88991672483E+01 -0.83594324674E+00  0.34742681975E+02  0.51100000000E-03 0.  1.
         22    1    1    0    0    0 -0.18051189839E+02 -0.23243094108E+02 -0.39514518591E+00  0.29432006693E+02  0.00000000000E+00 0. -1.
</event>
<event>
 5    1  0.8863861E-005  0.9118800E+02  0.7818608E-02  0.1130116E+00
         25   -1    0    0    0    0  0.00000000000E+00  0.00000000000E+00  0.99999998245E-14  0.12500000000E+03  0.12500000000E+03 0.  0.
        -11    1    3    3    0    0 -0.75492216731E+01 -0.29965042161E+02  0.24960608275E+02  0.39723122553E+02  0.51100000000E-03 0.  1.
         23    2    1    0    0    0 -0.57004180342E+01 -0.65236377669E+01 -0.26939634766E+02  0.96701651341E+02  0.92468442375E+02 0.  0.
         11    1    3    3    0    0  0.18488036389E+01  0.23441404394E+02 -0.51900243042E+02  0.56978528789E+02  0.51100000000E-03 0. -1.
         22    1    1    0    0    0  0.57004180342E+01  0.65236377669E+01  0.26939634766E+02  0.28298348659E+02  0.00000000000E+00 0. -1.
</event>
<event>
 5    1  0.8863861E-005  0.9118800E+02  0.7818608E-02  0.1130116E+00
         25   -1    0    0    0    0  0.00000000000E+00  0.00000000000E+00  0.99999998245E-14  0.12500000000E+03  0.12500000000E+03 0.  0.
        -11    1    3    3    0    0 -0.31721401040E+02  0.13218305484E+02 -0.44621610274E+02  0.56321035036E+02  0.51100000000E-03 0.  1.
         23    2    1    0    0    0 -0.20016076552E+02  0.15619344290E+02 -0.32259596988E+01  0.99406757677E+02  0.96055657925E+02 0.  0.
         11    1    3    3    0    0  0.11705324488E+02  0.24010388070E+01  0.41395650575E+02  0.43085722642E+02  0.51100000000E-03 0. -1.
         22    1    1    0    0    0  0.20016076552E+02 -0.15619344290E+02  0.32259596988E+01  0.25593242323E+02  0.00000000000E+00 0.  1.
</event>
<event>
 5    1  0.8863861E-005  0.9118800E+02  0.7818608E-02  0.1130116E+00
         25   -1    0    0    0    0  0.00000000000E+00  0.00000000000E+00  0.99999998245E-14  0.12500000000E+03  0.12500000000E+03 0.  0.
        -11    1    3    3    0    0  0.17993783328E+02 -0.24543419292E+02  0.53712112485E+02  0.61734485475E+02  0.51100000000E-03 0.  1.
         23    2    1    0    0    0  0.26114795662E+01 -0.15191406461E+02  0.23891292384E+02  0.96567755847E+02  0.92287263270E+02 0.  0.
         11    1    3    3    0    0 -0.15382303762E+02  0.93520128305E+01 -0.29820820101E+02  0.34833270372E+02  0.51100000000E-03 0. -1.
         22    1    1    0    0    0 -0.26114795662E+01  0.15191406461E+02 -0.23891292384E+02  0.28432244153E+02  0.00000000000E+00 0.  1.
</event>
<event>
 5    1  0.8863861E-005  0.9118800E+02  0.7818608E-02  0.1130116E+00
         25   -1    0    0    0    0  0.00000000000E+00  0.00000000000E+00  0.99999998245E-14  0.12500000000E+03  0.12500000000E+03 0.  0.
        -11    1    3    3    0    0 -0.26197234310E+02  0.28637694527E+02  0.25010853537E+01  0.38893033586E+02  0.51100000000E-03 0. -1.
         23    2    1    0    0    0  0.25258082580E+02  0.67498401450E+01 -0.11346912701E+02  0.96499412191E+02  0.92194647609E+02 0.  0.
         11    1    3    3    0    0  0.51455316890E+02 -0.21887854382E+02 -0.13847998055E+02  0.57606378606E+02  0.51100000000E-03 0.  1.
         22    1    1    0    0    0 -0.25258082580E+02 -0.67498401450E+01  0.11346912701E+02  0.28500587809E+02  0.00000000000E+00 0.  1.
</event>
<event>
 5    1  0.8863861E-005  0.9118800E+02  0.7818608E-02  0.1130116E+00
         25   -1    0    0    0    0  0.00000000000E+00  0.00000000000E+00  0.99999998245E-14  0.12500000000E+03  0.12500000000E+03 0.  0.
        -11    1    3    3    0    0 -0.34745866047E+02 -0.24592007709E+02 -0.96125068384E+01  0.43639916802E+02  0.51100000000E-03 0.  1.
         23    2    1    0    0    0 -0.25625874138E+02  0.11694193806E+02  0.19240605945E+02  0.90887824590E+02  0.84243433853E+02 0.  0.
         11    1    3    3    0    0  0.91199919094E+01  0.36286201514E+02  0.28853112784E+02  0.47247907788E+02  0.51100000000E-03 0. -1.
         22    1    1    0    0    0  0.25625874138E+02 -0.11694193806E+02 -0.19240605945E+02  0.34112175410E+02  0.00000000000E+00 0. -1.
</event>
<event>
 5    1  0.8863861E-005  0.9118800E+02  0.7818608E-02  0.1130116E+00
         25   -1    0    0    0    0  0.00000000000E+00  0.00000000000E+00  0.99999998245E-14  0.12500000000E+03  0.12500000000E+03 0.  0.
        -11    1    3    3    0    0 -0.75881663364E+01  0.87570458193E+01  0.26141087099E+02  0.28594100000E+02  0.51100000000E-03 0.  1.
         23    2    1    0    0    0 -0.26864661629E+01 -0.23932348717E+02 -0.25510956286E+02  0.89917478623E+02  0.82791120633E+02 0.  0.
         11    1    3    3    0    0  0.49017001735E+01 -0.32689394536E+02 -0.51652043384E+02  0.61323378623E+02  0.51100000000E-03 0. -1.
         22    1    1    0    0    0  0.26864661629E+01  0.23932348717E+02  0.25510956286E+02  0.35082521377E+02  0.00000000000E+00 0. -1.
</event>
<event>
 5    1  0.8863861E-005  0.9118800E+02  0.7818608E-02  0.1130116E+00
         25   -1    0    0    0    0  0.00000000000E+00  0.00000000000E+00  0.99999998245E-14  0.12500000000E+03  0.12500000000E+03 0.  0.
        -11    1    3    3    0    0  0.38706208920E+02  0.45754589407E+02  0.72280084641E+01  0.60364701337E+02  0.51100000000E-03 0.  1.
         23    2    1    0    0    0  0.73448957178E+01  0.25276566259E+02  0.67644079534E+01  0.97822628716E+02  0.93971576442E+02 0.  0.
         11    1    3    3    0    0 -0.31361313203E+02 -0.20478023148E+02 -0.46360051072E+00  0.37457927379E+02  0.51100000000E-03 0. -1.
         22    1    1    0    0    0 -0.73448957178E+01 -0.25276566259E+02 -0.67644079534E+01  0.27177371284E+02  0.00000000000E+00 0.  1.
</event>
<event>
 5    1  0.8863861E-005  0.9118800E+02  0.7818608E-02  0.1130116E+00
         25   -1    0    0    0    0  0.00000000000E+00  0.00000000000E+00  0.99999998245E-14  0.12500000000E+03  0.12500000000E+03 0.  0.
        -11    1    3    3    0    0 -0.35918434634E+02 -0.36364129313E+02  0.22441155250E+02  0.55821942786E+02  0.51100000000E-03 0. -1.
         23    2    1    0    0    0 -0.28492104726E+02 -0.18546934832E+01  0.25649624289E+01  0.96332615189E+02  0.91968221671E+02 0.  0.
         11    1    3    3    0    0  0.74263299079E+01  0.34509435830E+02 -0.19876192821E+02  0.40510672403E+02  0.51100000000E-03 0.  1.
         22    1    1    0    0    0  0.28492104726E+02  0.18546934832E+01 -0.25649624289E+01  0.28667384811E+02  0.00000000000E+00 0. -1.
</event>
<event>
 5    1  0.8863861E-005  0.9118800E+02  0.7818608E-02  0.1130116E+00
         25   -1    0    0    0    0  0.00000000000E+00  0.00000000000E+00  0.99999998245E-14  0.12500000000E+03  0.12500000000E+03 0.  0.
        -11    1    3    3    0    0 -0.85389035164E+01 -0.40105258027E+02  0.28977542409E+02  0.50209984654E+02  0.51100000000E-03 0.  1.
         23    2    1    0    0    0  0.12338745284E+02 -0.20787824766E+02 -0.10315184077E+02  0.98717281035E+02  0.95154192018E+02 0.  0.
         11    1    3    3    0    0  0.20877648800E+02  0.19317433261E+02 -0.39292726486E+02  0.48507296381E+02  0.51100000000E-03 0. -1.
         22    1    1    0    0    0 -0.12338745284E+02  0.20787824766E+02  0.10315184077E+02  0.26282718965E+02  0.00000000000E+00 0. -1.
</event>
<event>
 5    1  0.8863861E-005  0.9118800E+02  0.7818608E-02  0.1130116E+00
         25   -1    0    0    0    0  0.00000000000E+00  0.00000000000E+00  0.99999998245E-14  0.12500000000E+03  0.12500000000E+03 0.  0.
        -11    1    3    3    0    0 -0.44875365314E+02  0.63691896814E+01 -0.39430904520E+02  0.60076294999E+02  0.51100000000E-03 0. -1.
         23    2    1    0    0    0 -0.16525927590E+02  0.14227427551E+02 -0.20575912838E+02  0.95018436223E+02  0.90164344703E+02 0.  0.
         11    1    3    3    0    0  0.28349437724E+02  0.78582378696E+01  0.18854991682E+02  0.34942141224E+02  0.51100000000E-03 0.  1.
         22    1    1    0    0    0  0.16525927590E+02 -0.14227427551E+02  0.20575912838E+02  0.29981563777E+02  0.00000000000E+00 0. -1.
</event>
<event>
 5    1  0.8863861E-005  0.9118800E+02  0.7818608E-02  0.1130116E+00
         25   -1    0    0    0    0  0.00000000000E+00  0.00000000000E+00  0.99999998245E-14  0.12500000000E+03  0.12500000000E+03 0.  0.
        -11    1    3    3    0    0 -0.66199800679E+01 -0.42429968404E+00  0.42611584170E+02  0.43124833589E+02  0.51100000000E-03 0.  1.
         23    2    1    0    0    0 -0.49923256362E+01  0.28974680144E+02 -0.80909685532E+00  0.95587246943E+02  0.90949501019E+02 0.  0.
         11    1    3    3    0    0  0.16276544317E+01  0.29398979828E+02 -0.43420681026E+02  0.52462413353E+02  0.51100000000E-03 0. -1.
         22    1    1    0    0    0  0.49923256362E+01 -0.28974680144E+02  0.80909685532E+00  0.29412753057E+02  0.00000000000E+00 0.  1.
</event>
<event>
 5    1  0.8863861E-005  0.9118800E+02  0.7818608E-02  0.1130116E+00
         25   -1    0    0    0    0  0.00000000000E+00  0.00000000000E+00  0.99999998245E-14  0.12500000000E+03  0.12500000000E+03 0.  0.
        -11    1    3    3    0    0  0.32401603165E+02 -0.92486545841E+01  0.26997230773E+02  0.43176984251E+02  0.51100000000E-03 0.  1.
         23    2    1    0    0    0  0.12824848208E+02  0.30309679439E+02  0.86880438042E+01  0.90961264648E+02  0.84352333471E+02 0.  0.
         11    1    3    3    0    0 -0.19576754957E+02  0.39558334023E+02 -0.18309186969E+02  0.47784280397E+02  0.51100000000E-03 0. -1.
         22    1    1    0    0    0 -0.12824848208E+02 -0.30309679439E+02 -0.86880438042E+01  0.34038735352E+02  0.00000000000E+00 0.  1.
</event>
<event>
 5    1  0.8863861E-005  0.9118800E+02  0.7818608E-02  0.1130116E+00
         25   -1    0    0    0    0  0.00000000000E+00  0.00000000000E+00  0.99999998245E-14  0.12500000000E+03  0.12500000000E+03 0.  0.
        -11    1    3    3    0    0 -0.30038599816E+02 -0.38569867579E+02 -0.12635348920E+02  0.50493605601E+02  0.51100000000E-03 0.  1.
         23    2    1    0    0    0  0.12598073326E+02 -0.26123282053E+02 -0.55478019305E+01  0.95471785984E+02  0.90790674058E+02 0.  0.
         11    1    3    3    0    0  0.42636673142E+02  0.12446585527E+02  0.70875469894E+01  0.44978180382E+02  0.51100000000E-03 0. -1.
         22    1    1    0    0    0 -0.12598073326E+02  0.26123282053E+02  0.55478019305E+01  0.29528214016E+02  0.00000000000E+00 0.  1.
</event>
<event>
 5    1  0.8863861E-005  0.9118800E+02  0.7818608E-02  0.1130116E+00
         25   -1    0    0    0    0  0.00000000000E+00  0.00000000000E+00  0.99999998245E-14  0.12500000000E+03  0.12500000000E+03 0.  0.
        -11    1    3    3    0    0 -0.88226740018E+01 -0.27566464696E+02 -0.21263142317E+02  0.35914770970E+02  0.51100000000E-03 0.  1.
         23    2    1    0    0    0 -0.31991989445E+01  0.27124390646E+02  0.56212556615E+01  0.97115130321E+02  0.93025709243E+02 0.  0.
         11    1    3    3    0    0  0.56234750572E+01  0.54690855342E+02  0.26884397979E+02  0.61200359351E+02  0.51100000000E-03 0. -1.
         22    1    1    0    0    0  0.31991989445E+01 -0.27124390646E+02 -0.56212556615E+01  0.27884869679E+02  0.00000000000E+00 0. -1.
</event>
<event>
 5    1  0.8863861E-005  0.9118800E+02  0.7818608E-02  0.1130116E+00
         25   -1    0    0    0    0  0.00000000000E+00  0.00000000000E+00  0.99999998245E-14  0.12500000000E+03  0.12500000000E+03 0.  0.
        -11    1    3    3    0    0  0.16519433119E+00  0.41090411465E+01 -0.35554265556E+02  0.35791302124E+02  0.51100000000E-03 0.  1.
         23    2    1    0    0    0 -0.63285737786E+01  0.16261659947E+02  0.23104369446E+02  0.96046514583E+02  0.91578538129E+02 0.  0.
         11    1    3    3    0    0 -0.64937681098E+01  0.12152618800E+02  0.58658635001E+02  0.60255212459E+02  0.51100000000E-03 0. -1.
         22    1    1    0    0    0  0.63285737786E+01 -0.16261659947E+02 -0.23104369446E+02  0.28953485417E+02  0.00000000000E+00 0. -1.
</event>
<event>
 5    1  0.8863861E-005  0.9118800E+02  0.7818608E-02  0.1130116E+00
         25   -1    0    0    0    0  0.00000000000E+00  0.00000000000E+00  0.99999998245E-14  0.12500000000E+03  0.12500000000E+03 0.  0.
        -11    1    3    3    0    0  0.29993228118E+01 -0.37755444352E+02  0.21438866995E+02  0.43521196374E+02  0.51100000000E-03 0.  1.
         23    2    1    0    0    0  0.24401729424E+02 -0.74956882296E+00 -0.12001752496E+02  0.97796170945E+02  0.93936376001E+02 0.  0.
         11    1    3    3    0    0  0.21402406612E+02  0.37005875529E+02 -0.33440619491E+02  0.54274974571E+02  0.51100000000E-03 0. -1.
         22    1    1    0    0    0 -0.24401729424E+02  0.74956882296E+00  0.12001752496E+02  0.27203829055E+02  0.00000000000E+00 0.  1.
</event>
<event>
 5    1  0.8863861E-005  0.9118800E+02  0.7818608E-02  0.1130116E+00
         25   -1    0    0    0    0  0.00000000000E+00  0.00000000000E+00  0.99999998245E-14  0.12500000000E+03  0.12500000000E+03 0.  0.
        -11    1    3    3    0    0  0.26585274001E+02  0.10316482077E+02 -0.20559529992E+02  0.35155381806E+02  0.51100000000E-03 0. -1.
         23    2    1    0    0    0 -0.19417816291E+02 -0.19976325919E+02  0.63021131054E+01  0.96437405294E+02  0.92110538613E+02 0.  0.
         11    1    3    3    0    0 -0.46003090293E+02 -0.30292807995E+02  0.26861643097E+02  0.61282023489E+02  0.51100000000E-03 0.  1.
         22    1    1    0    0    0  0.19417816291E+02  0.19976325919E+02 -0.63021131054E+01  0.28562594706E+02  0.00000000000E+00 0.  1.
</event>
<event>
 5    1  0.8863861E-005  0.9118800E+02  0.7818608E-02  0.1130116E+00
         25   -1    0    0    0    0  0.00000000000E+00  0.00000000000E+00  0.99999998245E-14  0.12500000000E+03  0.12500000000E+03 0.  0.
        -11    1    3    3    0    0 -0.49339451754E+01  0.22589623612E+02  0.21718890704E+02  0.31722943174E+02  0.51100000000E-03 0.  1.
         23    2    1    0    0    0  0.80924532838E+01 -0.27331413209E+02 -0.12753723655E+02  0.93772585519E+02  0.88420282626E+02 0.  0.
         11    1    3    3    0    0  0.13026398459E+02 -0.49921036821E+02 -0.34472614359E+02  0.62049642345E+02  0.51100000000E-03 0. -1.
         22    1    1    0    0    0 -0.80924532838E+01  0.27331413209E+02  0.12753723655E+02  0.31227414481E+02  0.00000000000E+00 0. -1.
</event>
<event>
 5    1  0.8863861E-005  0.9118800E+02  0.7818608E-02  0.1130116E+00
         25   -1    0    0    0    0  0.00000000000E+00  0.00000000000E+00  0.99999998245E-14  0.12500000000E+03  0.12500000000E+03 0.  0.
        -11    1    3    3    0    0  0.85319449628E+01  0.37201113052E+02 -0.44477778974E+02  0.58608785348E+02  0.51100000000E-03 0.  1.
         23    2    1    0    0    0 -0.43410574376E+01  0.68134474237E+01 -0.28692994524E+02  0.95191347226E+02  0.90403743321E+02 0.  0.
         11    1    3    3    0    0 -0.12873002400E+02 -0.30387665629E+02  0.15784784450E+02  0.36582561878E+02  0.51100000000E-03 0. -1.
         22    1    1    0    0    0  0.43410574376E+01 -0.68134474237E+01  0.28692994524E+02  0.29808652774E+02  0.00000000000E+00 0.  1.
</event>
<event>
 5    1  0.8863861E-005  0.9118800E+02  0.7818608E-02  0.1130116E+00
         25   -1    0    0    0    0  0.00000000000E+00  0.00000000000E+00  0.99999998245E-14  0.12500000000E+03  0.12500000000E+03 0.  0.
        -11    1    3    3    0    0 -0.26978944909E+02  0.11319187153E+02 -0.21931427056E+02  0.36564668181E+02  0.51100000000E-03 0.  1.
         23    2    1    0    0    0  0.25509753607E+02 -0.12033614415E+02 -0.63737440217E+01  0.96083222554E+02  0.91628628924E+02 0.  0.
         11    1    3    3    0    0  0.52488698516E+02 -0.23352801569E+02  0.15557683034E+02  0.59518554373E+02  0.51100000000E-03 0. -1.
         22    1    1    0    0    0 -0.25509753607E+02  0.12033614415E+02  0.63737440217E+01  0.28916777446E+02  0.00000000000E+00 0. -1.
</event>
<event>
 5    1  0.8863861E-005  0.9118800E+02  0.7818608E-02  0.1130116E+00
         25   -1    0    0    0    0  0.00000000000E+00  0.00000000000E+00  0.99999998245E-14  0.12500000000E+03  0.12500000000E+03 0.  0.
        -11    1    3    3    0    0 -0.12789453814E+02  0.32224289515E+02  0.17053128612E+01  0.34711425436E+02  0.51100000000E-03 0. -1.
         23    2    1    0    0    0  0.19502707597E+02 -0.65355877100E+01  0.26928559461E+02  0.91114651766E+02  0.84579329280E+02 0.  0.
         11    1    3    3    0    0  0.32292161411E+02 -0.38759877225E+02  0.25223246600E+02  0.56403226329E+02  0.51100000000E-03 0.  1.
         22    1    1    0    0    0 -0.19502707597E+02  0.65355877100E+01 -0.26928559461E+02  0.33885348234E+02  0.00000000000E+00 0.  1.
</event>
<event>
 5    1  0.8863861E-005  0.9118800E+02  0.7818608E-02  0.1130116E+00
         25   -1    0    0    0    0  0.00000000000E+00  0.00000000000E+00  0.99999998245E-14  0.12500000000E+03  0.12500000000E+03 0.  0.
        -11    1    3    3    0    0 -0.10834336549E+01  0.32865316802E+02 -0.36860121046E+02  0.49396066653E+02  0.51100000000E-03 0.  1.
         23    2    1    0    0    0 -0.19085622792E+02  0.27909682818E+02  0.52486890318E+00  0.91184517159E+02  0.84682520568E+02 0.  0.
         11    1    3    3    0    0 -0.18002189137E+02 -0.49556339835E+01  0.37384989950E+02  0.41788450506E+02  0.51100000000E-03 0. -1.
         22    1    1    0    0    0  0.19085622792E+02 -0.27909682818E+02 -0.52486890318E+00  0.33815482841E+02  0.00000000000E+00 0.  1.
</event>
<event>
 5    1  0.8863861E-005  0.9118800E+02  0.7818608E-02  0.1130116E+00
         25   -1    0    0    0    0  0.00000000000E+00  0.00000000000E+00  0.99999998245E-14  0.12500000000E+03  0.12500000000E+03 0.  0.
        -11    1    3    3    0    0 -0.37594094504E+02  0.34875427485E+02  0.28495494600E+02  0.58665190672E+02  0.51100000000E-03 0. -1.
         23    2    1    0    0    0 -0.27450025592E+02  0.90731710038E+01  0.25316373142E+02  0.86571558890E+02  0.77575058637E+02 0.  0.
         11    1    3    3    0    0  0.10144068912E+02 -0.25802256481E+02 -0.31791214588E+01  0.27906368218E+02  0.51100000000E-03 0.  1.
         22    1    1    0    0    0  0.27450025592E+02 -0.90731710038E+01 -0.25316373142E+02  0.38428441110E+02  0.00000000000E+00 0. -1.
</event>
<event>
 5    1  0.8863861E-005  0.9118800E+02  0.7818608E-02  0.1130116E+00
         25   -1    0    0    0    0  0.00000000000E+00  0.00000000000E+00  0.99999998245E-14  0.12500000000E+03  0.12500000000E+03 0.  0.
        -11    1    3    3    0    0  0.28381860817E+02  0.11005435274E+02  0.15328200416E+02  0.34082302699E+02  0.51100000000E-03 0.  1.
         23    2    1    0    0    0 -0.24035105119E+02  0.59676293659E+01 -0.16152245098E+02  0.95433229801E+02  0.90737574632E+02 0.  0.
         11    1    3    3    0    0 -0.52416965935E+02 -0.50378059079E+01 -0.31480445515E+02  0.61350927102E+02  0.51100000000E-03 0. -1.
         22    1    1    0    0    0  0.24035105119E+02 -0.59676293659E+01  0.16152245098E+02  0.29566770199E+02  0.00000000000E+00 0. -1.
</event>
<event>
 5    1  0.8863861E-005  0.9118800E+02  0.7818608E-02  0.1130116E+00
         25   -1    0    0    0    0  0.00000000000E+00  0.00000000000E+00  0.99999998245E-14  0.12500000000E+03  0.12500000000E+03 0.  0.
        -11    1    3    3    0    0 -0.96350912168E+01 -0.23184714744E+02  0.26854287372E+02  0.36763007644E+02  0.51100000000E-03 0. -1.
         23    2    1    0    0    0  0.25986777018E+02 -0.59683410398E+00 -0.13992781910E+02  0.95479384554E+02  0.90801135117E+02 0.  0.
         11    1    3    3    0    0  0.35621868234E+02  0.22587880640E+02 -0.40847069282E+02  0.58716376910E+02  0.51100000000E-03 0.  1.
         22    1    1    0    0    0 -0.25986777018E+02  0.59683410398E+00  0.13992781910E+02  0.29520615446E+02  0.00000000000E+00 0.  1.
</event>
<event>
 5    1  0.8863861E-005  0.9118800E+02  0.7818608E-02  0.1130116E+00
         25   -1    0    0    0    0  0.00000000000E+00  0.00000000000E+00  0.99999998245E-14  0.12500000000E+03  0.12500000000E+03 0.  0.
        -11    1    3    3    0    0  0.27765178322E+02  0.20409879091E+02 -0.25779704290E+02  0.43035583478E+02  0.51100000000E-03 0. -1.
         23    2    1    0    0    0 -0.18834584405E+02  0.20294034407E+02  0.19193856014E+01  0.97246199479E+02  0.93201662377E+02 0.  0.
         11    1    3    3    0    0 -0.46599762727E+02 -0.11584468310E+00  0.27699089891E+02  0.54210616002E+02  0.51100000000E-03 0.  1.
         22    1    1    0    0    0  0.18834584405E+02 -0.20294034407E+02 -0.19193856014E+01  0.27753800521E+02  0.00000000000E+00 0. -1.
</event>
<event>
 5    1  0.8863861E-005  0.9118800E+02  0.7818608E-02  0.1130116E+00
         25   -1    0    0    0    0  0.00000000000E+00  0.00000000000E+00  0.99999998245E-14  0.12500000000E+03  0.12500000000E+03 0.  0.
        -11    1    3    3    0    0  0.26330464582E+02  0.31969784321E+02 -0.12113891752E+02  0.43152136081E+02  0.51100000000E-03 0.  1.
         23    2    1    0    0    0  0.40024970202E+01  0.11689940476E+02  0.28613376083E+02  0.93832709749E+02  0.88505239603E+02 0.  0.
         11    1    3    3    0    0 -0.22327967562E+02 -0.20279843845E+02  0.40727267834E+02  0.50680573668E+02  0.51100000000E-03 0. -1.
         22    1    1    0    0    0 -0.40024970202E+01 -0.11689940476E+02 -0.28613376083E+02  0.31167290251E+02  0.00000000000E+00 0. -1.
</event>
<event>
 5    1  0.8863861E-005  0.9118800E+02  0.7818608E-02  0.1130116E+00
         25   -1    0    0    0    0  0.00000000000E+00  0.00000000000E+00  0.99999998245E-14  0.12500000000E+03  0.12500000000E+03 0.  0.
        -11    1    3    3    0    0  0.24704919910E+02 -0.50082311761E+02 -0.51058246070E+01  0.56077093936E+02  0.51100000000E-03 0. -1.
         23    2    1    0    0    0  0.27805591162E+02 -0.12511791390E+02  0.20173851311E+01  0.94442420475E+02  0.89362213037E+02 0.  0.
         11    1    3    3    0    0  0.31006712515E+01  0.37570520372E+02  0.71232097381E+01  0.38365326539E+02  0.51100000000E-03 0.  1.
         22    1    1    0    0    0 -0.27805591162E+02  0.12511791390E+02 -0.20173851311E+01  0.30557579525E+02  0.00000000000E+00 0. -1.
</event>
<event>
 5    1  0.8863861E-005  0.9118800E+02  0.7818608E-02  0.1130116E+00
         25   -1    0    0    0    0  0.00000000000E+00  0.00000000000E+00  0.99999998245E-14  0.12500000000E+03  0.12500000000E+03 0.  0.
        -11    1    3    3    0    0  0.19832873608E+02  0.86154640466E+00 -0.29730637192E+02  0.35749068881E+02  0.51100000000E-03 0.  1.
         23    2    1    0    0    0 -0.11005053634E+02  0.18288911241E+02  0.19291436565E+02  0.96229268264E+02  0.91827648701E+02 0.  0.
         11    1    3    3    0    0 -0.30837927242E+02  0.17427364836E+02  0.49022073757E+02  0.60480199383E+02  0.51100000000E-03 0. -1.
         22    1    1    0    0    0  0.11005053634E+02 -0.18288911241E+02 -0.19291436565E+02  0.28770731736E+02  0.00000000000E+00 0. -1.
</event>
<event>
 5    1  0.8863861E-005  0.9118800E+02  0.7818608E-02  0.1130116E+00
         25   -1    0    0    0    0  0.00000000000E+00  0.00000000000E+00  0.99999998245E-14  0.12500000000E+03  0.12500000000E+03 0.  0.
        -11    1    3    3    0    0 -0.35780640871E+02 -0.27366060504E+02  0.42345668355E+01  0.45244746493E+02  0.51100000000E-03 0. -1.
         23    2    1    0    0    0 -0.42425914845E+02 -0.14524548359E+02 -0.21886551349E+02  0.75100682516E+02  0.56126380864E+02 0.  0.
         11    1    3    3    0    0 -0.66452739742E+01  0.12841512145E+02 -0.26121118184E+02  0.29855936023E+02  0.51100000000E-03 0.  1.
         22    1    1    0    0    0  0.42425914845E+02  0.14524548359E+02  0.21886551349E+02  0.49899317484E+02  0.00000000000E+00 0. -1.
</event>
<event>
 5    1  0.8863861E-005  0.9118800E+02  0.7818608E-02  0.1130116E+00
         25   -1    0    0    0    0  0.00000000000E+00  0.00000000000E+00  0.99999998245E-14  0.12500000000E+03  0.12500000000E+03 0.  0.
        -11    1    3    3    0    0 -0.43617443614E+02 -0.25515521997E+02 -0.63728339281E+01  0.50932664006E+02  0.51100000000E-03 0.  1.
         23    2    1    0    0    0 -0.25265822676E+02  0.12468874645E+02  0.83506009204E+01  0.95613486662E+02  0.90985557456E+02 0.  0.
         11    1    3    3    0    0  0.18351620938E+02  0.37984396642E+02  0.14723434848E+02  0.44680822657E+02  0.51100000000E-03 0. -1.
         22    1    1    0    0    0  0.25265822676E+02 -0.12468874645E+02 -0.83506009204E+01  0.29386513338E+02  0.00000000000E+00 0.  1.
</event>
<event>
 5    1  0.8863861E-005  0.9118800E+02  0.7818608E-02  0.1130116E+00
         25   -1    0    0    0    0  0.00000000000E+00  0.00000000000E+00  0.99999998245E-14  0.12500000000E+03  0.12500000000E+03 0.  0.
        -11    1    3    3    0    0  0.14511922138E+02 -0.25930410197E+02  0.72365624463E+01  0.30583490537E+02  0.51100000000E-03 0.  1.
         23    2    1    0    0    0 -0.11594801038E+02 -0.11360400569E+02 -0.37355206623E+02  0.84270286349E+02  0.73773786586E+02 0.  0.
         11    1    3    3    0    0 -0.26106723176E+02  0.14570009628E+02 -0.44591769070E+02  0.53686795812E+02  0.51100000000E-03 0. -1.
         22    1    1    0    0    0  0.11594801038E+02  0.11360400569E+02  0.37355206623E+02  0.40729713651E+02  0.00000000000E+00 0. -1.
</event>
<event>
 5    1  0.8863861E-005  0.9118800E+02  0.7818608E-02  0.1130116E+00
         25   -1    0    0    0    0  0.00000000000E+00  0.00000000000E+00  0.99999998245E-14  0.12500000000E+03  0.12500000000E+03 0.  0.
        -11    1    3    3    0    0 -0.54296571072E+02  0.13431804221E+02 -0.65881648696E+00  0.55937152540E+02  0.51100000000E-03 0.  1.
         23    2    1    0    0    0 -0.22025437773E+02 -0.11144743495E+02 -0.11267649141E+02  0.97865425490E+02  0.94028487026E+02 0.  0.
         11    1    3    3    0    0  0.32271133299E+02 -0.24576547716E+02 -0.10608832654E+02  0.41928272950E+02  0.51100000000E-03 0. -1.
         22    1    1    0    0    0  0.22025437773E+02  0.11144743495E+02  0.11267649141E+02  0.27134574510E+02  0.00000000000E+00 0.  1.
</event>
<event>
 5    1  0.8863861E-005  0.9118800E+02  0.7818608E-02  0.1130116E+00
         25   -1    0    0    0    0  0.00000000000E+00  0.00000000000E+00  0.99999998245E-14  0.12500000000E+03  0.12500000000E+03 0.  0.
        -11    1    3    3    0    0 -0.29494982259E+02  0.36458633343E+02  0.90285501818E+01  0.47756681651E+02  0.51100000000E-03 0. -1.
         23    2    1    0    0    0 -0.69771529661E+01 -0.16916024388E+02 -0.15166096250E+01  0.10663882767E+03  0.10504621325E+03 0.  0.
         11    1    3    3    0    0  0.22517829293E+02 -0.53374657732E+02 -0.10545159807E+02  0.58882146018E+02  0.51100000000E-03 0.  1.
         22    1    1    0    0    0  0.69771529661E+01  0.16916024388E+02  0.15166096250E+01  0.18361172331E+02  0.00000000000E+00 0.  1.
</event>
<event>
 5    1  0.8863861E-005  0.9118800E+02  0.7818608E-02  0.1130116E+00
         25   -1    0    0    0    0  0.00000000000E+00  0.00000000000E+00  0.99999998245E-14  0.12500000000E+03  0.12500000000E+03 0.  0.
        -11    1    3    3    0    0 -0.90586261073E+01 -0.44608605196E+02 -0.17152830125E+02  0.48643662959E+02  0.51100000000E-03 0.  1.
         23    2    1    0    0    0 -0.11509116518E+02  0.43616205084E+01 -0.23880314493E+02  0.98134540451E+02  0.94385566231E+02 0.  0.
         11    1    3    3    0    0 -0.24504904106E+01  0.48970225704E+02 -0.67274843682E+01  0.49490877492E+02  0.51100000000E-03 0. -1.
         22    1    1    0    0    0  0.11509116518E+02 -0.43616205084E+01  0.23880314493E+02  0.26865459549E+02  0.00000000000E+00 0. -1.
</event>
<event>
 5    1  0.8863861E-005  0.9118800E+02  0.7818608E-02  0.1130116E+00
         25   -1    0    0    0    0  0.00000000000E+00  0.00000000000E+00  0.99999998245E-14  0.12500000000E+03  0.12500000000E+03 0.  0.
        -11    1    3    3    0    0 -0.28430813189E-01 -0.22034238308E+02 -0.29766128469E+02  0.37034185159E+02  0.51100000000E-03 0. -1.
         23    2    1    0    0    0  0.21338975809E+02  0.56220996285E+01  0.18209408732E+02  0.96389818959E+02  0.92045938204E+02 0.  0.
         11    1    3    3    0    0  0.21367406622E+02  0.27656337937E+02  0.47975537201E+02  0.59355633800E+02  0.51100000000E-03 0.  1.
         22    1    1    0    0    0 -0.21338975809E+02 -0.56220996285E+01 -0.18209408732E+02  0.28610181041E+02  0.00000000000E+00 0.  1.
</event>
<event>
 5    1  0.8863861E-005  0.9118800E+02  0.7818608E-02  0.1130116E+00
         25   -1    0    0    0    0  0.00000000000E+00  0.00000000000E+00  0.99999998245E-14  0.12500000000E+03  0.12500000000E+03 0.  0.
        -11    1    3    3    0    0  0.70474668849E+01 -0.42912772103E+02  0.33357394322E+02  0.54807741746E+02  0.51100000000E-03 0. -1.
         23    2    1    0    0    0 -0.15956442513E+02 -0.10663693505E+02  0.21550217475E+02  0.96142864140E+02  0.91709956030E+02 0.  0.
         11    1    3    3    0    0 -0.23003909398E+02  0.32249078598E+02 -0.11807176847E+02  0.41335122395E+02  0.51100000000E-03 0.  1.
         22    1    1    0    0    0  0.15956442513E+02  0.10663693505E+02 -0.21550217475E+02  0.28857135860E+02  0.00000000000E+00 0. -1.
</event>
<event>
 5    1  0.8863861E-005  0.9118800E+02  0.7818608E-02  0.1130116E+00
         25   -1    0    0    0    0  0.00000000000E+00  0.00000000000E+00  0.99999998245E-14  0.12500000000E+03  0.12500000000E+03 0.  0.
        -11    1    3    3    0    0  0.29333781827E+02  0.27927441576E+02  0.13599266356E+02  0.42724147680E+02  0.51100000000E-03 0.  1.
         23    2    1    0    0    0 -0.10639610578E+02 -0.41354493794E+01  0.26995901705E+02  0.95689899971E+02  0.91090476960E+02 0.  0.
         11    1    3    3    0    0 -0.39973392405E+02 -0.32062890956E+02  0.13396635349E+02  0.52965752291E+02  0.51100000000E-03 0. -1.
         22    1    1    0    0    0  0.10639610578E+02  0.41354493794E+01 -0.26995901705E+02  0.29310100029E+02  0.00000000000E+00 0.  1.
</event>
<event>
 5    1  0.8863861E-005  0.9118800E+02  0.7818608E-02  0.1130116E+00
         25   -1    0    0    0    0  0.00000000000E+00  0.00000000000E+00  0.99999998245E-14  0.12500000000E+03  0.12500000000E+03 0.  0.
        -11    1    3    3    0    0  0.34003866603E+01  0.72242955299E+01  0.33482274632E+02  0.34421153236E+02  0.51100000000E-03 0.  1.
         23    2    1    0    0    0 -0.21332457869E+02 -0.98090790276E+01 -0.18938406138E+02  0.94834539335E+02  0.89909036441E+02 0.  0.
         11    1    3    3    0    0 -0.24732844530E+02 -0.17033374558E+02 -0.52420680769E+02  0.60413386099E+02  0.51100000000E-03 0. -1.
         22    1    1    0    0    0  0.21332457869E+02  0.98090790276E+01  0.18938406138E+02  0.30165460665E+02  0.00000000000E+00 0. -1.
</event>
<event>
 5    1  0.8863861E-005  0.9118800E+02  0.7818608E-02  0.1130116E+00
         25   -1    0    0    0    0  0.00000000000E+00  0.00000000000E+00  0.99999998245E-14  0.12500000000E+03  0.12500000000E+03 0.  0.
        -11    1    3    3    0    0  0.24837859691E+02  0.27263942212E+02  0.34867687755E+02  0.50754285224E+02  0.51100000000E-03 0. -1.
         23    2    1    0    0    0  0.16886774942E+02  0.11296110739E+02 -0.12346682120E+02  0.10122594176E+03  0.98394539687E+02 0.  0.
         11    1    3    3    0    0 -0.79510847485E+01 -0.15967831473E+02 -0.47214369875E+02  0.50471656537E+02  0.51100000000E-03 0.  1.
         22    1    1    0    0    0 -0.16886774942E+02 -0.11296110739E+02  0.12346682120E+02  0.23774058239E+02  0.00000000000E+00 0. -1.
</event>
<event>
 5    1  0.8863861E-005  0.9118800E+02  0.7818608E-02  0.1130116E+00
         25   -1    0    0    0    0  0.00000000000E+00  0.00000000000E+00  0.99999998245E-14  0.12500000000E+03  0.12500000000E+03 0.  0.
        -11    1    3    3    0    0 -0.24303520733E+02 -0.26410796129E+02 -0.98871235414E+01  0.37228302195E+02  0.51100000000E-03 0.  1.
         23    2    1    0    0    0 -0.42133460942E+01  0.28363165992E+02 -0.60346240719E+01  0.95697471814E+02  0.91100866919E+02 0.  0.
         11    1    3    3    0    0  0.20090174638E+02  0.54773962121E+02  0.38524994696E+01  0.58469169618E+02  0.51100000000E-03 0. -1.
         22    1    1    0    0    0  0.42133460942E+01 -0.28363165992E+02  0.60346240719E+01  0.29302528186E+02  0.00000000000E+00 0. -1.
</event>
<event>
 5    1  0.8863861E-005  0.9118800E+02  0.7818608E-02  0.1130116E+00
         25   -1    0    0    0    0  0.00000000000E+00  0.00000000000E+00  0.99999998245E-14  0.12500000000E+03  0.12500000000E+03 0.  0.
        -11    1    3    3    0    0  0.20182281392E+02  0.14285939061E+02 -0.18343011670E+02  0.30787637364E+02  0.51100000000E-03 0.  1.
         23    2    1    0    0    0 -0.31319082030E+02 -0.13124489871E+02 -0.89720072265E+01  0.89876873043E+02  0.82729790648E+02 0.  0.
         11    1    3    3    0    0 -0.51501363422E+02 -0.27410428932E+02  0.93710044436E+01  0.59089235679E+02  0.51100000000E-03 0. -1.
         22    1    1    0    0    0  0.31319082030E+02  0.13124489871E+02  0.89720072265E+01  0.35123126957E+02  0.00000000000E+00 0. -1.
</event>
<event>
 5    1  0.8863861E-005  0.9118800E+02  0.7818608E-02  0.1130116E+00
         25   -1    0    0    0    0  0.00000000000E+00  0.00000000000E+00  0.99999998245E-14  0.12500000000E+03  0.12500000000E+03 0.  0.
        -11    1    3    3    0    0 -0.18965817859E+02 -0.28015324277E+02  0.25955629545E+02  0.42641005461E+02  0.51100000000E-03 0.  1.
         23    2    1    0    0    0  0.36925852469E+01  0.19595071388E+02  0.21685040104E+02  0.95540825320E+02  0.90885677254E+02 0.  0.
         11    1    3    3    0    0  0.22658403106E+02  0.47610395665E+02 -0.42705894405E+01  0.52899819859E+02  0.51100000000E-03 0. -1.
         22    1    1    0    0    0 -0.36925852469E+01 -0.19595071388E+02 -0.21685040104E+02  0.29459174680E+02  0.00000000000E+00 0. -1.
</event>
<event>
 5    1  0.8863861E-005  0.9118800E+02  0.7818608E-02  0.1130116E+00
         25   -1    0    0    0    0  0.00000000000E+00  0.00000000000E+00  0.99999998245E-14  0.12500000000E+03  0.12500000000E+03 0.  0.
        -11    1    3    3    0    0  0.12075346381E+02 -0.44007508315E+01 -0.37910284472E+02  0.40029617374E+02  0.51100000000E-03 0.  1.
         23    2    1    0    0    0 -0.24415058556E+02  0.15913269201E+02 -0.88370374636E+00  0.95843385772E+02  0.91300856749E+02 0.  0.
         11    1    3    3    0    0 -0.36490404936E+02  0.20314020032E+02  0.37026580726E+02  0.55813768398E+02  0.51100000000E-03 0. -1.
         22    1    1    0    0    0  0.24415058556E+02 -0.15913269201E+02  0.88370374636E+00  0.29156614228E+02  0.00000000000E+00 0.  1.
</event>
<event>
 5    1  0.8863861E-005  0.9118800E+02  0.7818608E-02  0.1130116E+00
         25   -1    0    0    0    0  0.00000000000E+00  0.00000000000E+00  0.99999998245E-14  0.12500000000E+03  0.12500000000E+03 0.  0.
        -11    1    3    3    0    0 -0.71751545712E+01 -0.45811390785E+02  0.24903775223E+02  0.52634251105E+02  0.51100000000E-03 0. -1.
         23    2    1    0    0    0 -0.36912023850E+01 -0.23582432558E+02 -0.13818516063E+02  0.97419073863E+02  0.93433229986E+02 0.  0.
         11    1    3    3    0    0  0.34839521862E+01  0.22228958227E+02 -0.38722291286E+02  0.44784822757E+02  0.51100000000E-03 0.  1.
         22    1    1    0    0    0  0.36912023850E+01  0.23582432558E+02  0.13818516063E+02  0.27580926137E+02  0.00000000000E+00 0. -1.
</event>
<event>
 5    1  0.8863861E-005  0.9118800E+02  0.7818608E-02  0.1130116E+00
         25   -1    0    0    0    0  0.00000000000E+00  0.00000000000E+00  0.99999998245E-14  0.12500000000E+03  0.12500000000E+03 0.  0.
        -11    1    3    3    0    0  0.12672763009E+02  0.60109138424E+02 -0.43036684583E+01  0.61581076695E+02  0.51100000000E-03 0. -1.
         23    2    1    0    0    0  0.12197097442E+02  0.26360072591E+02  0.18749889116E+01  0.95894361433E+02  0.91370620870E+02 0.  0.
         11    1    3    3    0    0 -0.47566556756E+00 -0.33749065834E+02  0.61786573699E+01  0.34313284738E+02  0.51100000000E-03 0.  1.
         22    1    1    0    0    0 -0.12197097442E+02 -0.26360072591E+02 -0.18749889116E+01  0.29105638567E+02  0.00000000000E+00 0. -1.
</event>
<event>
 5    1  0.8863861E-005  0.9118800E+02  0.7818608E-02  0.1130116E+00
         25   -1    0    0    0    0  0.00000000000E+00  0.00000000000E+00  0.99999998245E-14  0.12500000000E+03  0.12500000000E+03 0.  0.
        -11    1    3    3    0    0  0.21821134249E+02  0.29855436371E+01 -0.40757538671E+02  0.46327662681E+02  0.51100000000E-03 0.  1.
         23    2    1    0    0    0  0.42947672023E+01 -0.28105095305E+02 -0.64226941900E+01  0.95852231508E+02  0.91312966642E+02 0.  0.
         11    1    3    3    0    0 -0.17526367047E+02 -0.31090638942E+02  0.34334844481E+02  0.49524568827E+02  0.51100000000E-03 0. -1.
         22    1    1    0    0    0 -0.42947672023E+01  0.28105095305E+02  0.64226941900E+01  0.29147768492E+02  0.00000000000E+00 0.  1.
</event>
<event>
 5    1  0.8863861E-005  0.9118800E+02  0.7818608E-02  0.1130116E+00
         25   -1    0    0    0    0  0.00000000000E+00  0.00000000000E+00  0.99999998245E-14  0.12500000000E+03  0.12500000000E+03 0.  0.
        -11    1    3    3    0    0  0.48470471814E+02  0.23944630076E+02 -0.78907262332E+01  0.54635112411E+02  0.51100000000E-03 0. -1.
         23    2    1    0    0    0  0.73217543374E+01  0.27510720970E+02 -0.96054790141E+00  0.96515433878E+02  0.92216367688E+02 0.  0.
         11    1    3    3    0    0 -0.41148717477E+02  0.35660908940E+01  0.69301783318E+01  0.41880321467E+02  0.51100000000E-03 0.  1.
         22    1    1    0    0    0 -0.73217543374E+01 -0.27510720970E+02  0.96054790141E+00  0.28484566122E+02  0.00000000000E+00 0. -1.
</event>
<event>
 5    1  0.8863861E-005  0.9118800E+02  0.7818608E-02  0.1130116E+00
         25   -1    0    0    0    0  0.00000000000E+00  0.00000000000E+00  0.99999998245E-14  0.12500000000E+03  0.12500000000E+03 0.  0.
        -11    1    3    3    0    0 -0.54974644043E+02  0.17459556774E+02 -0.43708582964E+01  0.57845933418E+02  0.51100000000E-03 0.  1.
         23    2    1    0    0    0 -0.16449634219E+02  0.13974102145E+02 -0.15879522350E+02  0.98204007263E+02  0.94477520161E+02 0.  0.
         11    1    3    3    0    0  0.38525009824E+02 -0.34854546291E+01 -0.11508664053E+02  0.40358073845E+02  0.51100000000E-03 0. -1.
         22    1    1    0    0    0  0.16449634219E+02 -0.13974102145E+02  0.15879522350E+02  0.26795992737E+02  0.00000000000E+00 0.  1.
</event>
<event>
 5    1  0.8863861E-005  0.9118800E+02  0.7818608E-02  0.1130116E+00
         25   -1    0    0    0    0  0.00000000000E+00  0.00000000000E+00  0.99999998245E-14  0.12500000000E+03  0.12500000000E+03 0.  0.
        -11    1    3    3    0    0 -0.14924067590E+01  0.44299592281E+02  0.40170729957E+02  0.59819467564E+02  0.51100000000E-03 0. -1.
         23    2    1    0    0    0  0.89104396444E+01  0.25788777455E+02  0.11758765845E+02  0.95289302407E+02  0.90539083283E+02 0.  0.
         11    1    3    3    0    0  0.10402846403E+02 -0.18510814826E+02 -0.28411964111E+02  0.35469834842E+02  0.51100000000E-03 0.  1.
         22    1    1    0    0    0 -0.89104396444E+01 -0.25788777455E+02 -0.11758765845E+02  0.29710697593E+02  0.00000000000E+00 0. -1.
</event>
<event>
 5    1  0.8863861E-005  0.9118800E+02  0.7818608E-02  0.1130116E+00
         25   -1    0    0    0    0  0.00000000000E+00  0.00000000000E+00  0.99999998245E-14  0.12500000000E+03  0.12500000000E+03 0.  0.
        -11    1    3    3    0    0  0.29864453923E+02  0.12127635795E+00  0.18809050621E+02  0.35294202096E+02  0.51100000000E-03 0.  1.
         23    2    1    0    0    0 -0.17876455164E+02  0.25224750166E+02 -0.39383029194E+01  0.93833256505E+02  0.88506011809E+02 0.  0.
         11    1    3    3    0    0 -0.47740909087E+02  0.25103473808E+02 -0.22747353541E+02  0.58539054409E+02  0.51100000000E-03 0. -1.
         22    1    1    0    0    0  0.17876455164E+02 -0.25224750166E+02  0.39383029194E+01  0.31166743495E+02  0.00000000000E+00 0. -1.
</event>
<event>
 5    1  0.8863861E-005  0.9118800E+02  0.7818608E-02  0.1130116E+00
         25   -1    0    0    0    0  0.00000000000E+00  0.00000000000E+00  0.99999998245E-14  0.12500000000E+03  0.12500000000E+03 0.  0.
        -11    1    3    3    0    0 -0.53387458454E+02 -0.22468812212E+01  0.98676040418E+01  0.54338189197E+02  0.51100000000E-03 0.  1.
         23    2    1    0    0    0 -0.21366711273E+02 -0.14897787150E+02 -0.13217686940E+02  0.95790623755E+02  0.91228591673E+02 0.  0.
         11    1    3    3    0    0  0.32020747181E+02 -0.12650905928E+02 -0.23085290981E+02  0.41452434558E+02  0.51100000000E-03 0. -1.
         22    1    1    0    0    0  0.21366711273E+02  0.14897787150E+02  0.13217686940E+02  0.29209376245E+02  0.00000000000E+00 0.  1.
</event>
<event>
 5    1  0.8863861E-005  0.9118800E+02  0.7818608E-02  0.1130116E+00
         25   -1    0    0    0    0  0.00000000000E+00  0.00000000000E+00  0.99999998245E-14  0.12500000000E+03  0.12500000000E+03 0.  0.
        -11    1    3    3    0    0  0.18641929620E+02  0.18688448989E+02  0.52251124026E+01  0.26908761871E+02  0.51100000000E-03 0.  1.
         23    2    1    0    0    0  0.25912499890E+01 -0.30004417009E+02 -0.24503840904E+02  0.86174520794E+02  0.76932634158E+02 0.  0.
         11    1    3    3    0    0 -0.16050679631E+02 -0.48692865998E+02 -0.29728953306E+02  0.59265758923E+02  0.51100000000E-03 0. -1.
         22    1    1    0    0    0 -0.25912499890E+01  0.30004417009E+02  0.24503840904E+02  0.38825479206E+02  0.00000000000E+00 0. -1.
</event>
<event>
 5    1  0.8863861E-005  0.9118800E+02  0.7818608E-02  0.1130116E+00
         25   -1    0    0    0    0  0.00000000000E+00  0.00000000000E+00  0.99999998245E-14  0.12500000000E+03  0.12500000000E+03 0.  0.
        -11    1    3    3    0    0  0.50694876980E+01 -0.31352887083E+02 -0.37315227348E+02  0.49001320658E+02  0.51100000000E-03 0. -1.
         23    2    1    0    0    0  0.26218837478E+01 -0.29491961141E+02  0.79278231145E+01  0.94348728808E+02  0.89231060747E+02 0.  0.
         11    1    3    3    0    0 -0.24476039502E+01  0.18609259416E+01  0.45243050463E+02  0.45347408150E+02  0.51100000000E-03 0.  1.
         22    1    1    0    0    0 -0.26218837478E+01  0.29491961141E+02 -0.79278231145E+01  0.30651271192E+02  0.00000000000E+00 0.  1.
</event>
<event>
 5    1  0.8863861E-005  0.9118800E+02  0.7818608E-02  0.1130116E+00
         25   -1    0    0    0    0  0.00000000000E+00  0.00000000000E+00  0.99999998245E-14  0.12500000000E+03  0.12500000000E+03 0.  0.
        -11    1    3    3    0    0 -0.52750037338E+02  0.32320803290E+02  0.81722541590E+01  0.62401814899E+02  0.51100000000E-03 0. -1.
         23    2    1    0    0    0 -0.25195712016E+02  0.18035468570E+02  0.29638233276E+01  0.93873061840E+02  0.88562212370E+02 0.  0.
         11    1    3    3    0    0  0.27554325322E+02 -0.14285334720E+02 -0.52084308314E+01  0.31471246941E+02  0.51100000000E-03 0.  1.
         22    1    1    0    0    0  0.25195712016E+02 -0.18035468570E+02 -0.29638233276E+01  0.31126938160E+02  0.00000000000E+00 0. -1.
</event>
<event>
 5    1  0.8863861E-005  0.9118800E+02  0.7818608E-02  0.1130116E+00
         25   -1    0    0    0    0  0.00000000000E+00  0.00000000000E+00  0.99999998245E-14  0.12500000000E+03  0.12500000000E+03 0.  0.
        -11    1    3    3    0    0 -0.41654723023E+02 -0.23620683721E+02  0.11990024084E+01  0.47900837744E+02  0.51100000000E-03 0.  1.
         23    2    1    0    0    0 -0.17504653622E+02  0.12374329145E+02 -0.19577416380E+02  0.95968772807E+02  0.91472363049E+02 0.  0.
         11    1    3    3    0    0  0.24150069401E+02  0.35995012866E+02 -0.20776418788E+02  0.48067935063E+02  0.51100000000E-03 0. -1.
         22    1    1    0    0    0  0.17504653622E+02 -0.12374329145E+02  0.19577416380E+02  0.29031227193E+02  0.00000000000E+00 0. -1.
</event>
<event>
 5    1  0.8863861E-005  0.9118800E+02  0.7818608E-02  0.1130116E+00
         25   -1    0    0    0    0  0.00000000000E+00  0.00000000000E+00  0.99999998245E-14  0.12500000000E+03  0.12500000000E+03 0.  0.
        -11    1    3    3    0    0  0.15199262002E+02  0.52300633984E+02 -0.87971381887E+01  0.55170313767E+02  0.51100000000E-03 0. -1.
         23    2    1    0    0    0 -0.14176251926E+02  0.25066548123E+02  0.91581111792E-01  0.96202320570E+02  0.91790958936E+02 0.  0.
         11    1    3    3    0    0 -0.29375513927E+02 -0.27234085861E+02  0.88887193005E+01  0.41032006803E+02  0.51100000000E-03 0.  1.
         22    1    1    0    0    0  0.14176251926E+02 -0.25066548123E+02 -0.91581111792E-01  0.28797679430E+02  0.00000000000E+00 0. -1.
</event>
<event>
 5    1  0.8863861E-005  0.9118800E+02  0.7818608E-02  0.1130116E+00
         25   -1    0    0    0    0  0.00000000000E+00  0.00000000000E+00  0.99999998245E-14  0.12500000000E+03  0.12500000000E+03 0.  0.
        -11    1    3    3    0    0  0.44658748418E+02 -0.95234377428E+01 -0.33622779688E+02  0.56706181241E+02  0.51100000000E-03 0.  1.
         23    2    1    0    0    0  0.77243459350E+01 -0.13441085204E+02 -0.26162187844E+02  0.94589666816E+02  0.89567944623E+02 0.  0.
         11    1    3    3    0    0 -0.36934402483E+02 -0.39176474608E+01  0.74605918436E+01  0.37883485575E+02  0.51100000000E-03 0. -1.
         22    1    1    0    0    0 -0.77243459350E+01  0.13441085204E+02  0.26162187844E+02  0.30410333184E+02  0.00000000000E+00 0.  1.
</event>
<event>
 5    1  0.8863861E-005  0.9118800E+02  0.7818608E-02  0.1130116E+00
         25   -1    0    0    0    0  0.00000000000E+00  0.00000000000E+00  0.99999998245E-14  0.12500000000E+03  0.12500000000E+03 0.  0.
        -11    1    3    3    0    0  0.50329261362E+01  0.46699121303E+01  0.30748129544E+02  0.31505331224E+02  0.51100000000E-03 0. -1.
         23    2    1    0    0    0 -0.34043774371E+01 -0.28281286999E+02 -0.18262689322E+02  0.91162937460E+02  0.84650660748E+02 0.  0.
         11    1    3    3    0    0 -0.84373035733E+01 -0.32951199129E+02 -0.49010818866E+02  0.59657606236E+02  0.51100000000E-03 0.  1.
         22    1    1    0    0    0  0.34043774371E+01  0.28281286999E+02  0.18262689322E+02  0.33837062540E+02  0.00000000000E+00 0.  1.
</event>
<event>
 5    1  0.8863861E-005  0.9118800E+02  0.7818608E-02  0.1130116E+00
         25   -1    0    0    0    0  0.00000000000E+00  0.00000000000E+00  0.99999998245E-14  0.12500000000E+03  0.12500000000E+03 0.  0.
        -11    1    3    3    0    0  0.25203992779E+01  0.30605473246E+02 -0.63188058518E+01  0.31352427542E+02  0.51100000000E-03 0. -1.
         23    2    1    0    0    0  0.63315647807E+01 -0.25220644233E+02 -0.23566704176E+02  0.89906422898E+02  0.82774426754E+02 0.  0.
         11    1    3    3    0    0  0.38111655028E+01 -0.55826117479E+02 -0.17247898325E+02  0.58553995356E+02  0.51100000000E-03 0.  1.
         22    1    1    0    0    0 -0.63315647807E+01  0.25220644233E+02  0.23566704176E+02  0.35093577102E+02  0.00000000000E+00 0.  1.
</event>
<event>
 5    1  0.8863861E-005  0.9118800E+02  0.7818608E-02  0.1130116E+00
         25   -1    0    0    0    0  0.00000000000E+00  0.00000000000E+00  0.99999998245E-14  0.12500000000E+03  0.12500000000E+03 0.  0.
        -11    1    3    3    0    0 -0.84100321177E+01 -0.49788191216E+02  0.17716516410E+02  0.53511378030E+02  0.51100000000E-03 0. -1.
         23    2    1    0    0    0 -0.16478700249E+02 -0.20653418738E+02 -0.12070179765E+02  0.95951755526E+02  0.91449105417E+02 0.  0.
         11    1    3    3    0    0 -0.80686681309E+01  0.29134772477E+02 -0.29786696175E+02  0.42440377496E+02  0.51100000000E-03 0.  1.
         22    1    1    0    0    0  0.16478700249E+02  0.20653418738E+02  0.12070179765E+02  0.29048244474E+02  0.00000000000E+00 0. -1.
</event>
<event>
 5    1  0.8863861E-005  0.9118800E+02  0.7818608E-02  0.1130116E+00
         25   -1    0    0    0    0  0.00000000000E+00  0.00000000000E+00  0.99999998245E-14  0.12500000000E+03  0.12500000000E+03 0.  0.
        -11    1    3    3    0    0  0.17875649394E+02 -0.40816172569E+02  0.25356183517E+02  0.51268263353E+02  0.51100000000E-03 0.  1.
         23    2    1    0    0    0  0.20299279054E+02 -0.13874008083E+01  0.27455336703E+02  0.90827187347E+02  0.84153412509E+02 0.  0.
         11    1    3    3    0    0  0.24236296597E+01  0.39428771760E+02  0.20991531863E+01  0.39558923995E+02  0.51100000000E-03 0. -1.
         22    1    1    0    0    0 -0.20299279054E+02  0.13874008083E+01 -0.27455336703E+02  0.34172812653E+02  0.00000000000E+00 0.  1.
</event>
<event>
 5    1  0.8863861E-005  0.9118800E+02  0.7818608E-02  0.1130116E+00
         25   -1    0    0    0    0  0.00000000000E+00  0.00000000000E+00  0.99999998245E-14  0.12500000000E+03  0.12500000000E+03 0.  0.
        -11    1    3    3    0    0  0.26910613999E+02 -0.15218643824E+02  0.29481879705E+02  0.42719661713E+02  0.51100000000E-03 0.  1.
         23    2    1    0    0    0 -0.70117437903E+01  0.23161007198E+02  0.16957267665E+02  0.95450960555E+02  0.90761997217E+02 0.  0.
         11    1    3    3    0    0 -0.33922357790E+02  0.38379651023E+02 -0.12524612039E+02  0.52731298843E+02  0.51100000000E-03 0. -1.
         22    1    1    0    0    0  0.70117437903E+01 -0.23161007198E+02 -0.16957267665E+02  0.29549039445E+02  0.00000000000E+00 0. -1.
</event>
<event>
 5    1  0.8863861E-005  0.9118800E+02  0.7818608E-02  0.1130116E+00
         25   -1    0    0    0    0  0.00000000000E+00  0.00000000000E+00  0.99999998245E-14  0.12500000000E+03  0.12500000000E+03 0.  0.
        -11    1    3    3    0    0 -0.22424398092E+02  0.25245173645E+02  0.10224039603E+02  0.35280354423E+02  0.51100000000E-03 0. -1.
         23    2    1    0    0    0  0.29600224093E+02 -0.23511800799E+01 -0.12576121484E+01  0.95279924252E+02  0.90526134696E+02 0.  0.
         11    1    3    3    0    0  0.52024622185E+02 -0.27596353725E+02 -0.11481651751E+02  0.59999569829E+02  0.51100000000E-03 0.  1.
         22    1    1    0    0    0 -0.29600224093E+02  0.23511800799E+01  0.12576121484E+01  0.29720075748E+02  0.00000000000E+00 0. -1.
</event>
<event>
 5    1  0.8863861E-005  0.9118800E+02  0.7818608E-02  0.1130116E+00
         25   -1    0    0    0    0  0.00000000000E+00  0.00000000000E+00  0.99999998245E-14  0.12500000000E+03  0.12500000000E+03 0.  0.
        -11    1    3    3    0    0 -0.30872520695E+02 -0.11833510816E+02 -0.10172581346E+02  0.34592281275E+02  0.51100000000E-03 0. -1.
         23    2    1    0    0    0  0.20099056812E+02  0.18624582728E+02  0.75829463378E+01  0.96568534303E+02  0.92288317656E+02 0.  0.
         11    1    3    3    0    0  0.50971577506E+02  0.30458093544E+02  0.17755527684E+02  0.61976253028E+02  0.51100000000E-03 0.  1.
         22    1    1    0    0    0 -0.20099056812E+02 -0.18624582728E+02 -0.75829463378E+01  0.28431465697E+02  0.00000000000E+00 0.  1.
</event>
<event>
 5    1  0.8863861E-005  0.9118800E+02  0.7818608E-02  0.1130116E+00
         25   -1    0    0    0    0  0.00000000000E+00  0.00000000000E+00  0.99999998245E-14  0.12500000000E+03  0.12500000000E+03 0.  0.
        -11    1    3    3    0    0  0.14074060619E+02  0.20067244093E+02 -0.28607825519E+02  0.37672020772E+02  0.51100000000E-03 0. -1.
         23    2    1    0    0    0 -0.12433297837E+02  0.82568541612E+01  0.23409967438E+02  0.97236910993E+02  0.93189204033E+02 0.  0.
         11    1    3    3    0    0 -0.26507358456E+02 -0.11810389932E+02  0.52017792958E+02  0.59564890222E+02  0.51100000000E-03 0.  1.
         22    1    1    0    0    0  0.12433297837E+02 -0.82568541612E+01 -0.23409967438E+02  0.27763089007E+02  0.00000000000E+00 0.  1.
</event>
<event>
 5    1  0.8863861E-005  0.9118800E+02  0.7818608E-02  0.1130116E+00
         25   -1    0    0    0    0  0.00000000000E+00  0.00000000000E+00  0.99999998245E-14  0.12500000000E+03  0.12500000000E+03 0.  0.
        -11    1    3    3    0    0 -0.38489408457E+02  0.37252661513E+02  0.22536134235E+02  0.58112586414E+02  0.51100000000E-03 0. -1.
         23    2    1    0    0    0 -0.20873387973E+02  0.18126714505E+02 -0.59916765236E+01  0.96712612497E+02  0.92483258615E+02 0.  0.
         11    1    3    3    0    0  0.17616020485E+02 -0.19125947008E+02 -0.28527810759E+02  0.38600026083E+02  0.51100000000E-03 0.  1.
         22    1    1    0    0    0  0.20873387973E+02 -0.18126714505E+02  0.59916765236E+01  0.28287387503E+02  0.00000000000E+00 0. -1.
</event>
<event>
 5    1  0.8863861E-005  0.9118800E+02  0.7818608E-02  0.1130116E+00
         25   -1    0    0    0    0  0.00000000000E+00  0.00000000000E+00  0.99999998245E-14  0.12500000000E+03  0.12500000000E+03 0.  0.
        -11    1    3    3    0    0 -0.10215803700E+01 -0.15155559141E+02 -0.43867120365E+02  0.46422611395E+02  0.51100000000E-03 0.  1.
         23    2    1    0    0    0  0.48030468071E+01 -0.29610169422E+02  0.20702904532E+01  0.94931453404E+02  0.90043674687E+02 0.  0.
         11    1    3    3    0    0  0.58246271772E+01 -0.14454610281E+02  0.45937410818E+02  0.48508842009E+02  0.51100000000E-03 0. -1.
         22    1    1    0    0    0 -0.48030468071E+01  0.29610169422E+02 -0.20702904532E+01  0.30068546596E+02  0.00000000000E+00 0.  1.
</event>
<event>
 5    1  0.8863861E-005  0.9118800E+02  0.7818608E-02  0.1130116E+00
         25   -1    0    0    0    0  0.00000000000E+00  0.00000000000E+00  0.99999998245E-14  0.12500000000E+03  0.12500000000E+03 0.  0.
        -11    1    3    3    0    0  0.22040361063E+02  0.28940926887E+02 -0.11963300273E+02  0.38294586021E+02  0.51100000000E-03 0. -1.
         23    2    1    0    0    0  0.13615016220E+02 -0.22928562765E+02  0.11643197148E+02  0.95902720111E+02  0.91382055282E+02 0.  0.
         11    1    3    3    0    0 -0.84253448434E+01 -0.51869489652E+02  0.23606497420E+02  0.57608134089E+02  0.51100000000E-03 0.  1.
         22    1    1    0    0    0 -0.13615016220E+02  0.22928562765E+02 -0.11643197148E+02  0.29097279889E+02  0.00000000000E+00 0.  1.
</event>
<event>
 5    1  0.8863861E-005  0.9118800E+02  0.7818608E-02  0.1130116E+00
         25   -1    0    0    0    0  0.00000000000E+00  0.00000000000E+00  0.99999998245E-14  0.12500000000E+03  0.12500000000E+03 0.  0.
        -11    1    3    3    0    0 -0.30266511934E+02 -0.19953992016E+02  0.22907607308E+02  0.42883353587E+02  0.51100000000E-03 0.  1.
         23    2    1    0    0    0  0.81880256736E+01  0.97952060647E+01  0.30355474053E+02  0.92069093069E+02  0.85978330220E+02 0.  0.
         11    1    3    3    0    0  0.38454537608E+02  0.29749198081E+02  0.74478667452E+01  0.49185739482E+02  0.51100000000E-03 0. -1.
         22    1    1    0    0    0 -0.81880256736E+01 -0.97952060647E+01 -0.30355474053E+02  0.32930906931E+02  0.00000000000E+00 0.  1.
</event>
<event>
 4    1  0.8863861E-005  0.9118800E+02  0.7818608E-02  0.1130116E+00
         25   -1    0    0    0    0  0.00000000000E+00  0.00000000000E+00  0.99999998245E-14  0.12500000000E+03  0.12500000000E+03 0.  0.
        -11    1    1    0    0    0 -0.13429017177E+02 -0.29469757429E+01 -0.63789847195E+01  0.15156339092E+02  0.51100000000E-03 0. -1.
         11    1    1    0    0    0 -0.17934757703E+02  0.42715713363E+02 -0.22540644420E+02  0.51520562430E+02  0.51100000000E-03 0.  1.
         22    1    1    0    0    0  0.31363774879E+02 -0.39768737620E+02  0.28919629139E+02  0.58323098478E+02  0.00000000000E+00 0.  1.
</event>
<event>
 5    1  0.8863861E-005  0.9118800E+02  0.7818608E-02  0.1130116E+00
         25   -1    0    0    0    0  0.00000000000E+00  0.00000000000E+00  0.99999998245E-14  0.12500000000E+03  0.12500000000E+03 0.  0.
        -11    1    3    3    0    0  0.53642855666E+02 -0.14581345356E+02  0.23054363487E+02  0.60180356201E+02  0.51100000000E-03 0.  1.
         23    2    1    0    0    0  0.25165895031E+02  0.54511684293E+01  0.10502570196E+02  0.97190981846E+02  0.93127576268E+02 0.  0.
         11    1    3    3    0    0 -0.28476960635E+02  0.20032513785E+02 -0.12551793291E+02  0.37010625646E+02  0.51100000000E-03 0. -1.
         22    1    1    0    0    0 -0.25165895031E+02 -0.54511684293E+01 -0.10502570196E+02  0.27809018154E+02  0.00000000000E+00 0.  1.
</event>
<event>
 5    1  0.8863861E-005  0.9118800E+02  0.7818608E-02  0.1130116E+00
         25   -1    0    0    0    0  0.00000000000E+00  0.00000000000E+00  0.99999998245E-14  0.12500000000E+03  0.12500000000E+03 0.  0.
        -11    1    3    3    0    0  0.32898722458E+02  0.14301885521E+02  0.17648481097E+02  0.39979229033E+02  0.51100000000E-03 0. -1.
         23    2    1    0    0    0 -0.11782047100E+02  0.20483145486E+02 -0.16180046780E+02  0.96361393249E+02  0.92007327492E+02 0.  0.
         11    1    3    3    0    0 -0.44680769558E+02  0.61812599647E+01 -0.33828527877E+02  0.56382164215E+02  0.51100000000E-03 0.  1.
         22    1    1    0    0    0  0.11782047100E+02 -0.20483145486E+02  0.16180046780E+02  0.28638606751E+02  0.00000000000E+00 0.  1.
</event>
<event>
 5    1  0.8863861E-005  0.9118800E+02  0.7818608E-02  0.1130116E+00
         25   -1    0    0    0    0  0.00000000000E+00  0.00000000000E+00  0.99999998245E-14  0.12500000000E+03  0.12500000000E+03 0.  0.
        -11    1    3    3    0    0 -0.30847824595E+02 -0.18528384759E+02 -0.17857423324E+02  0.40171842030E+02  0.51100000000E-03 0.  1.
         23    2    1    0    0    0  0.18597582113E+02 -0.20853138120E+02  0.78875672508E+01  0.95966620124E+02  0.91469421290E+02 0.  0.
         11    1    3    3    0    0  0.49445406708E+02 -0.23247533608E+01  0.25744990575E+02  0.55794778095E+02  0.51100000000E-03 0. -1.
         22    1    1    0    0    0 -0.18597582113E+02  0.20853138120E+02 -0.78875672508E+01  0.29033379876E+02  0.00000000000E+00 0. -1.
</event>
<event>
 5    1  0.8863861E-005  0.9118800E+02  0.7818608E-02  0.1130116E+00
         25   -1    0    0    0    0  0.00000000000E+00  0.00000000000E+00  0.99999998245E-14  0.12500000000E+03  0.12500000000E+03 0.  0.
        -11    1    3    3    0    0  0.17905538731E+02  0.16476734459E+02 -0.13011981487E+02  0.27593527469E+02  0.51100000000E-03 0. -1.
         23    2    1    0    0    0 -0.29330745077E+02  0.26313325919E+02  0.14353227604E+02  0.83063156171E+02  0.71699295971E+02 0.  0.
         11    1    3    3    0    0 -0.47236283808E+02  0.98365914593E+01  0.27365209091E+02  0.55469628702E+02  0.51100000000E-03 0.  1.
         22    1    1    0    0    0  0.29330745077E+02 -0.26313325919E+02 -0.14353227604E+02  0.41936843829E+02  0.00000000000E+00 0.  1.
</event>
<event>
 5    1  0.8863861E-005  0.9118800E+02  0.7818608E-02  0.1130116E+00
         25   -1    0    0    0    0  0.00000000000E+00  0.00000000000E+00  0.99999998245E-14  0.12500000000E+03  0.12500000000E+03 0.  0.
        -11    1    3    3    0    0  0.50539058918E+02  0.20138948118E+02  0.22940279922E+02  0.59042613007E+02  0.51100000000E-03 0.  1.
         23    2    1    0    0    0  0.26335132385E+02 -0.37647160136E+00 -0.76855999210E+00  0.98650965614E+02  0.95067036366E+02 0.  0.
         11    1    3    3    0    0 -0.24203926532E+02 -0.20515419719E+02 -0.23708839914E+02  0.39608352606E+02  0.51100000000E-03 0. -1.
         22    1    1    0    0    0 -0.26335132385E+02  0.37647160136E+00  0.76855999210E+00  0.26349034386E+02  0.00000000000E+00 0.  1.
</event>
<event>
 5    1  0.8863861E-005  0.9118800E+02  0.7818608E-02  0.1130116E+00
         25   -1    0    0    0    0  0.00000000000E+00  0.00000000000E+00  0.99999998245E-14  0.12500000000E+03  0.12500000000E+03 0.  0.
        -11    1    3    3    0    0  0.52201690946E+02  0.24885296598E+02  0.75139250625E+01  0.58315980610E+02  0.51100000000E-03 0.  1.
         23    2    1    0    0    0  0.24914816026E+02  0.30954190916E+01  0.17215594188E+02  0.94558147885E+02  0.89523946356E+02 0.  0.
         11    1    3    3    0    0 -0.27286874920E+02 -0.21789877507E+02  0.97016691255E+01  0.36242167275E+02  0.51100000000E-03 0. -1.
         22    1    1    0    0    0 -0.24914816026E+02 -0.30954190916E+01 -0.17215594188E+02  0.30441852115E+02  0.00000000000E+00 0.  1.
</event>
<event>
 5    1  0.8863861E-005  0.9118800E+02  0.7818608E-02  0.1130116E+00
         25   -1    0    0    0    0  0.00000000000E+00  0.00000000000E+00  0.99999998245E-14  0.12500000000E+03  0.12500000000E+03 0.  0.
        -11    1    3    3    0    0  0.37763559607E+02 -0.24920240962E+02  0.27781119382E+02  0.53093271120E+02  0.51100000000E-03 0. -1.
         23    2    1    0    0    0  0.80650091174E+01  0.65746714333E+01  0.26643020365E+02  0.96397181771E+02  0.92055936488E+02 0.  0.
         11    1    3    3    0    0 -0.29698550490E+02  0.31494912396E+02 -0.11380990172E+01  0.43303910651E+02  0.51100000000E-03 0.  1.
         22    1    1    0    0    0 -0.80650091174E+01 -0.65746714333E+01 -0.26643020365E+02  0.28602818229E+02  0.00000000000E+00 0. -1.
</event>
<event>
 5    1  0.8863861E-005  0.9118800E+02  0.7818608E-02  0.1130116E+00
         25   -1    0    0    0    0  0.00000000000E+00  0.00000000000E+00  0.99999998245E-14  0.12500000000E+03  0.12500000000E+03 0.  0.
        -11    1    3    3    0    0 -0.30925218515E+02 -0.72827990542E+01  0.24057232782E+02  0.39851709520E+02  0.51100000000E-03 0.  1.
         23    2    1    0    0    0  0.18877807029E+02 -0.22207895164E+02  0.13381458407E+02  0.92927805891E+02  0.87217839189E+02 0.  0.
         11    1    3    3    0    0  0.49803025544E+02 -0.14925096110E+02 -0.10675774375E+02  0.53076096371E+02  0.51100000000E-03 0. -1.
         22    1    1    0    0    0 -0.18877807029E+02  0.22207895164E+02 -0.13381458407E+02  0.32072194109E+02  0.00000000000E+00 0. -1.
</event>
<event>
 5    1  0.8863861E-005  0.9118800E+02  0.7818608E-02  0.1130116E+00
         25   -1    0    0    0    0  0.00000000000E+00  0.00000000000E+00  0.99999998245E-14  0.12500000000E+03  0.12500000000E+03 0.  0.
        -11    1    3    3    0    0  0.98788311144E+01 -0.36320125169E+02 -0.21990536777E+02  0.43592734538E+02  0.51100000000E-03 0.  1.
         23    2    1    0    0    0 -0.12746975167E+02 -0.16245127798E+02  0.20600597635E+02  0.95831966539E+02  0.91285221339E+02 0.  0.
         11    1    3    3    0    0 -0.22625806281E+02  0.20074997372E+02  0.42591134412E+02  0.52239232001E+02  0.51100000000E-03 0. -1.
         22    1    1    0    0    0  0.12746975167E+02  0.16245127798E+02 -0.20600597635E+02  0.29168033461E+02  0.00000000000E+00 0. -1.
</event>
<event>
 5    1  0.8863861E-005  0.9118800E+02  0.7818608E-02  0.1130116E+00
         25   -1    0    0    0    0  0.00000000000E+00  0.00000000000E+00  0.99999998245E-14  0.12500000000E+03  0.12500000000E+03 0.  0.
        -11    1    3    3    0    0 -0.31533463955E+01  0.12904800948E+02 -0.38726908424E+02  0.40942043394E+02  0.51100000000E-03 0.  1.
         23    2    1    0    0    0  0.90189691028E+01 -0.26965415014E+02 -0.20063683857E+01  0.96495598153E+02  0.92189476288E+02 0.  0.
         11    1    3    3    0    0  0.12172315498E+02 -0.39870215961E+02  0.36720540038E+02  0.55553554759E+02  0.51100000000E-03 0. -1.
         22    1    1    0    0    0 -0.90189691028E+01  0.26965415014E+02  0.20063683857E+01  0.28504401847E+02  0.00000000000E+00 0. -1.
</event>
<event>
 5    1  0.8863861E-005  0.9118800E+02  0.7818608E-02  0.1130116E+00
         25   -1    0    0    0    0  0.00000000000E+00  0.00000000000E+00  0.99999998245E-14  0.12500000000E+03  0.12500000000E+03 0.  0.
        -11    1    3    3    0    0  0.24747436860E+02 -0.68996180567E+01 -0.45264056551E+02  0.52046855584E+02  0.51100000000E-03 0. -1.
         23    2    1    0    0    0 -0.91233980405E+01 -0.18995230303E+02 -0.19507999532E+02  0.96283851028E+02  0.91901919223E+02 0.  0.
         11    1    3    3    0    0 -0.33870834901E+02 -0.12095612246E+02  0.25756057019E+02  0.44236995444E+02  0.51100000000E-03 0.  1.
         22    1    1    0    0    0  0.91233980405E+01  0.18995230303E+02  0.19507999532E+02  0.28716148972E+02  0.00000000000E+00 0.  1.
</event>
<event>
 5    1  0.8863861E-005  0.9118800E+02  0.7818608E-02  0.1130116E+00
         25   -1    0    0    0    0  0.00000000000E+00  0.00000000000E+00  0.99999998245E-14  0.12500000000E+03  0.12500000000E+03 0.  0.
        -11    1    3    3    0    0 -0.39247307772E+02  0.15469043013E+02 -0.37745829607E+02  0.56607332670E+02  0.51100000000E-03 0.  1.
         23    2    1    0    0    0 -0.17990761870E+02 -0.11439681310E+02 -0.22076793180E+02  0.94309307302E+02  0.89175819736E+02 0.  0.
         11    1    3    3    0    0  0.21256545901E+02 -0.26908724323E+02  0.15669036427E+02  0.37701974632E+02  0.51100000000E-03 0. -1.
         22    1    1    0    0    0  0.17990761870E+02  0.11439681310E+02  0.22076793180E+02  0.30690692698E+02  0.00000000000E+00 0.  1.
</event>
<event>
 5    1  0.8863861E-005  0.9118800E+02  0.7818608E-02  0.1130116E+00
         25   -1    0    0    0    0  0.00000000000E+00  0.00000000000E+00  0.99999998245E-14  0.12500000000E+03  0.12500000000E+03 0.  0.
        -11    1    3    3    0    0  0.15789953949E+02 -0.37480708645E+02  0.11110740648E+02  0.42161294149E+02  0.51100000000E-03 0.  1.
         23    2    1    0    0    0  0.14419781000E+02  0.19168674456E+02  0.10461858825E+02  0.98830959999E+02  0.95303410221E+02 0.  0.
         11    1    3    3    0    0 -0.13701729491E+01  0.56649383102E+02 -0.64888182352E+00  0.56669665850E+02  0.51100000000E-03 0. -1.
         22    1    1    0    0    0 -0.14419781000E+02 -0.19168674456E+02 -0.10461858825E+02  0.26169040001E+02  0.00000000000E+00 0. -1.
</event>
<event>
 5    1  0.8863861E-005  0.9118800E+02  0.7818608E-02  0.1130116E+00
         25   -1    0    0    0    0  0.00000000000E+00  0.00000000000E+00  0.99999998245E-14  0.12500000000E+03  0.12500000000E+03 0.  0.
        -11    1    3    3    0    0  0.20293161914E+02  0.39205808390E+02 -0.99116292432E+01  0.45245422160E+02  0.51100000000E-03 0. -1.
         23    2    1    0    0    0  0.22823959671E+02 -0.12427249766E+01  0.19202714601E+02  0.95146662691E+02  0.90341937508E+02 0.  0.
         11    1    3    3    0    0  0.25307977577E+01 -0.40448533366E+02  0.29114343844E+02  0.49901240531E+02  0.51100000000E-03 0.  1.
         22    1    1    0    0    0 -0.22823959671E+02  0.12427249766E+01 -0.19202714601E+02  0.29853337309E+02  0.00000000000E+00 0. -1.
</event>
<event>
 5    1  0.8863861E-005  0.9118800E+02  0.7818608E-02  0.1130116E+00
         25   -1    0    0    0    0  0.00000000000E+00  0.00000000000E+00  0.99999998245E-14  0.12500000000E+03  0.12500000000E+03 0.  0.
        -11    1    3    3    0    0 -0.43045929732E+01  0.19155151512E+02  0.33705732075E+02  0.39006739482E+02  0.51100000000E-03 0.  1.
         23    2    1    0    0    0  0.23823949144E+02 -0.17701253532E+02  0.18450920454E+01  0.95262493479E+02  0.90502062793E+02 0.  0.
         11    1    3    3    0    0  0.28128542117E+02 -0.36856405044E+02 -0.31860640029E+02  0.56255753997E+02  0.51100000000E-03 0. -1.
         22    1    1    0    0    0 -0.23823949144E+02  0.17701253532E+02 -0.18450920454E+01  0.29737506521E+02  0.00000000000E+00 0. -1.
</event>
<event>
 5    1  0.8863861E-005  0.9118800E+02  0.7818608E-02  0.1130116E+00
         25   -1    0    0    0    0  0.00000000000E+00  0.00000000000E+00  0.99999998245E-14  0.12500000000E+03  0.12500000000E+03 0.  0.
        -11    1    3    3    0    0 -0.90828680271E+01  0.22362089932E+02 -0.52283449166E+02  0.57585767466E+02  0.51100000000E-03 0.  1.
         23    2    1    0    0    0  0.92969227451E+01 -0.16000917472E+01 -0.24980453049E+02  0.98297638669E+02  0.94601319585E+02 0.  0.
         11    1    3    3    0    0  0.18379790772E+02 -0.23962181679E+02  0.27302996117E+02  0.40711871203E+02  0.51100000000E-03 0. -1.
         22    1    1    0    0    0 -0.92969227451E+01  0.16000917472E+01  0.24980453049E+02  0.26702361331E+02  0.00000000000E+00 0.  1.
</event>
<event>
 5    1  0.8863861E-005  0.9118800E+02  0.7818608E-02  0.1130116E+00
         25   -1    0    0    0    0  0.00000000000E+00  0.00000000000E+00  0.99999998245E-14  0.12500000000E+03  0.12500000000E+03 0.  0.
        -11    1    3    3    0    0 -0.57311997668E+01 -0.38907352620E+02  0.27593736283E+02  0.48042096343E+02  0.51100000000E-03 0. -1.
         23    2    1    0    0    0  0.23794260351E+02 -0.30562213589E+01  0.16767410389E+02  0.95731358661E+02  0.91147351389E+02 0.  0.
         11    1    3    3    0    0  0.29525460118E+02  0.35851131261E+02 -0.10826325894E+02  0.47689262319E+02  0.51100000000E-03 0.  1.
         22    1    1    0    0    0 -0.23794260351E+02  0.30562213589E+01 -0.16767410389E+02  0.29268641339E+02  0.00000000000E+00 0.  1.
</event>
<event>
 5    1  0.8863861E-005  0.9118800E+02  0.7818608E-02  0.1130116E+00
         25   -1    0    0    0    0  0.00000000000E+00  0.00000000000E+00  0.99999998245E-14  0.12500000000E+03  0.12500000000E+03 0.  0.
        -11    1    3    3    0    0  0.52205014887E+01 -0.34831573615E+02  0.14371463935E+02  0.38039862410E+02  0.51100000000E-03 0.  1.
         23    2    1    0    0    0 -0.27137450278E+02  0.71154935477E+01 -0.84158708675E+01  0.95710098353E+02  0.91118190217E+02 0.  0.
         11    1    3    3    0    0 -0.32357951766E+02  0.41947067163E+02 -0.22787334803E+02  0.57670235943E+02  0.51100000000E-03 0. -1.
         22    1    1    0    0    0  0.27137450278E+02 -0.71154935477E+01  0.84158708675E+01  0.29289901647E+02  0.00000000000E+00 0. -1.
</event>
<event>
 5    1  0.8863861E-005  0.9118800E+02  0.7818608E-02  0.1130116E+00
         25   -1    0    0    0    0  0.00000000000E+00  0.00000000000E+00  0.99999998245E-14  0.12500000000E+03  0.12500000000E+03 0.  0.
        -11    1    3    3    0    0 -0.52012984637E+02  0.24204269118E+01  0.28599031298E+02  0.59406343338E+02  0.51100000000E-03 0. -1.
         23    2    1    0    0    0 -0.15751564458E+02  0.73836174343E+01  0.22577424434E+02  0.96497900369E+02  0.92192597817E+02 0.  0.
         11    1    3    3    0    0  0.36261420178E+02  0.49631905224E+01 -0.60216068646E+01  0.37091557031E+02  0.51100000000E-03 0.  1.
         22    1    1    0    0    0  0.15751564458E+02 -0.73836174343E+01 -0.22577424434E+02  0.28502099631E+02  0.00000000000E+00 0. -1.
</event>
<event>
 5    1  0.8863861E-005  0.9118800E+02  0.7818608E-02  0.1130116E+00
         25   -1    0    0    0    0  0.00000000000E+00  0.00000000000E+00  0.99999998245E-14  0.12500000000E+03  0.12500000000E+03 0.  0.
        -11    1    3    3    0    0 -0.24979436922E+02 -0.30565725324E+02  0.62799710235E+00  0.39479491057E+02  0.51100000000E-03 0. -1.
         23    2    1    0    0    0 -0.14550934443E+02  0.20918843870E+02 -0.16395491948E+02  0.94699176938E+02  0.89720645531E+02 0.  0.
         11    1    3    3    0    0  0.10428502480E+02  0.51484569194E+02 -0.17023489050E+02  0.55219685881E+02  0.51100000000E-03 0.  1.
         22    1    1    0    0    0  0.14550934443E+02 -0.20918843870E+02  0.16395491948E+02  0.30300823062E+02  0.00000000000E+00 0.  1.
</event>
<event>
 5    1  0.8863861E-005  0.9118800E+02  0.7818608E-02  0.1130116E+00
         25   -1    0    0    0    0  0.00000000000E+00  0.00000000000E+00  0.99999998245E-14  0.12500000000E+03  0.12500000000E+03 0.  0.
        -11    1    3    3    0    0 -0.16283322554E+02  0.28939790559E+02 -0.97655573756E+01  0.34612485928E+02  0.51100000000E-03 0.  1.
         23    2    1    0    0    0  0.20481425166E+02 -0.13078119419E+02  0.15795289075E+02  0.96016950793E+02  0.91538176179E+02 0.  0.
         11    1    3    3    0    0  0.36764747720E+02 -0.42017909978E+02  0.25560846451E+02  0.61404464865E+02  0.51100000000E-03 0. -1.
         22    1    1    0    0    0 -0.20481425166E+02  0.13078119419E+02 -0.15795289075E+02  0.28983049207E+02  0.00000000000E+00 0. -1.
</event>
<event>
 5    1  0.8863861E-005  0.9118800E+02  0.7818608E-02  0.1130116E+00
         25   -1    0    0    0    0  0.00000000000E+00  0.00000000000E+00  0.99999998245E-14  0.12500000000E+03  0.12500000000E+03 0.  0.
        -11    1    3    3    0    0 -0.21827597522E+02  0.20645065595E+02 -0.24204165983E+02  0.38581140447E+02  0.51100000000E-03 0.  1.
         23    2    1    0    0    0  0.12092934575E+02 -0.24005338534E+02 -0.83731957886E+01  0.96846745260E+02  0.92664374572E+02 0.  0.
         11    1    3    3    0    0  0.33920532097E+02 -0.44650404129E+02  0.15830970194E+02  0.58265604813E+02  0.51100000000E-03 0. -1.
         22    1    1    0    0    0 -0.12092934575E+02  0.24005338534E+02  0.83731957886E+01  0.28153254740E+02  0.00000000000E+00 0. -1.
</event>
<event>
 5    1  0.8863861E-005  0.9118800E+02  0.7818608E-02  0.1130116E+00
         25   -1    0    0    0    0  0.00000000000E+00  0.00000000000E+00  0.99999998245E-14  0.12500000000E+03  0.12500000000E+03 0.  0.
        -11    1    3    3    0    0 -0.21677374611E+02 -0.18074155660E+02 -0.15633133894E+02  0.32264199176E+02  0.51100000000E-03 0.  1.
         23    2    1    0    0    0 -0.22789698157E+01  0.13927291076E+02  0.30337548189E+02  0.91540622088E+02  0.85206546239E+02 0.  0.
         11    1    3    3    0    0  0.19398404795E+02  0.32001446736E+02  0.45970682083E+02  0.59276422912E+02  0.51100000000E-03 0. -1.
         22    1    1    0    0    0  0.22789698157E+01 -0.13927291076E+02 -0.30337548189E+02  0.33459377912E+02  0.00000000000E+00 0. -1.
</event>
<event>
 5    1  0.8863861E-005  0.9118800E+02  0.7818608E-02  0.1130116E+00
         25   -1    0    0    0    0  0.00000000000E+00  0.00000000000E+00  0.99999998245E-14  0.12500000000E+03  0.12500000000E+03 0.  0.
        -11    1    3    3    0    0  0.22257719354E+02 -0.25209417468E+02 -0.25609413297E+02  0.42270117692E+02  0.51100000000E-03 0. -1.
         23    2    1    0    0    0 -0.94788774829E+01  0.20558602897E+02 -0.10896035692E+02  0.99875731548E+02  0.96664020644E+02 0.  0.
         11    1    3    3    0    0 -0.31736596837E+02  0.45768020366E+02  0.14713377605E+02  0.57605613857E+02  0.51100000000E-03 0.  1.
         22    1    1    0    0    0  0.94788774829E+01 -0.20558602897E+02  0.10896035692E+02  0.25124268452E+02  0.00000000000E+00 0.  1.
</event>
<event>
 5    1  0.8863861E-005  0.9118800E+02  0.7818608E-02  0.1130116E+00
         25   -1    0    0    0    0  0.00000000000E+00  0.00000000000E+00  0.99999998245E-14  0.12500000000E+03  0.12500000000E+03 0.  0.
        -11    1    3    3    0    0  0.94661561600E+01 -0.27072180245E+01 -0.55401659900E+02  0.56269717094E+02  0.51100000000E-03 0.  1.
         23    2    1    0    0    0 -0.14617649815E+02 -0.68412058299E+01 -0.24425551754E+02  0.95723979747E+02  0.91137231343E+02 0.  0.
         11    1    3    3    0    0 -0.24083805975E+02 -0.41339878054E+01  0.30976108146E+02  0.39454262654E+02  0.51100000000E-03 0. -1.
         22    1    1    0    0    0  0.14617649815E+02  0.68412058299E+01  0.24425551754E+02  0.29276020253E+02  0.00000000000E+00 0.  1.
</event>
<event>
 5    1  0.8863861E-005  0.9118800E+02  0.7818608E-02  0.1130116E+00
         25   -1    0    0    0    0  0.00000000000E+00  0.00000000000E+00  0.99999998245E-14  0.12500000000E+03  0.12500000000E+03 0.  0.
        -11    1    3    3    0    0 -0.55413914906E+01 -0.30544021620E+02  0.21067934472E+02  0.37516691480E+02  0.51100000000E-03 0.  1.
         23    2    1    0    0    0 -0.67590221463E+01 -0.97645770237E+00 -0.28743983919E+02  0.95455889563E+02  0.90768785332E+02 0.  0.
         11    1    3    3    0    0 -0.12176306557E+01  0.29567563918E+02 -0.49811918391E+02  0.57939198083E+02  0.51100000000E-03 0. -1.
         22    1    1    0    0    0  0.67590221463E+01  0.97645770237E+00  0.28743983919E+02  0.29544110437E+02  0.00000000000E+00 0. -1.
</event>
<event>
 5    1  0.8863861E-005  0.9118800E+02  0.7818608E-02  0.1130116E+00
         25   -1    0    0    0    0  0.00000000000E+00  0.00000000000E+00  0.99999998245E-14  0.12500000000E+03  0.12500000000E+03 0.  0.
        -11    1    3    3    0    0  0.23604575482E+02  0.11600978776E+02  0.51900099501E+02  0.58184010009E+02  0.51100000000E-03 0. -1.
         23    2    1    0    0    0  0.19963415759E+02 -0.70864043460E+01  0.17410476562E+02  0.97579573500E+02  0.93647708862E+02 0.  0.
         11    1    3    3    0    0 -0.36411597236E+01 -0.18687383122E+02 -0.34489622939E+02  0.39395563491E+02  0.51100000000E-03 0.  1.
         22    1    1    0    0    0 -0.19963415759E+02  0.70864043460E+01 -0.17410476562E+02  0.27420426500E+02  0.00000000000E+00 0. -1.
</event>
<event>
 5    1  0.8863861E-005  0.9118800E+02  0.7818608E-02  0.1130116E+00
         25   -1    0    0    0    0  0.00000000000E+00  0.00000000000E+00  0.99999998245E-14  0.12500000000E+03  0.12500000000E+03 0.  0.
        -11    1    3    3    0    0  0.36897665788E+02 -0.33133247521E+02  0.19916972811E+02  0.53440954690E+02  0.51100000000E-03 0. -1.
         23    2    1    0    0    0 -0.34411534615E+00 -0.15620944135E+02  0.25623437174E+02  0.94988454828E+02  0.90122770191E+02 0.  0.
         11    1    3    3    0    0 -0.37241781134E+02  0.17512303386E+02  0.57064643628E+01  0.41547500138E+02  0.51100000000E-03 0.  1.
         22    1    1    0    0    0  0.34411534615E+00  0.15620944135E+02 -0.25623437174E+02  0.30011545172E+02  0.00000000000E+00 0. -1.
</event>
<event>
 5    1  0.8863861E-005  0.9118800E+02  0.7818608E-02  0.1130116E+00
         25   -1    0    0    0    0  0.00000000000E+00  0.00000000000E+00  0.99999998245E-14  0.12500000000E+03  0.12500000000E+03 0.  0.
        -11    1    3    3    0    0  0.57314224622E+02 -0.16255326712E+01 -0.23665734881E+02  0.62029264934E+02  0.51100000000E-03 0.  1.
         23    2    1    0    0    0  0.27585718430E+02  0.46270903651E+01 -0.10955249991E+02  0.94960037801E+02  0.90083347242E+02 0.  0.
         11    1    3    3    0    0 -0.29728506192E+02  0.62526230363E+01  0.12710484890E+02  0.32930772867E+02  0.51100000000E-03 0. -1.
         22    1    1    0    0    0 -0.27585718430E+02 -0.46270903651E+01  0.10955249991E+02  0.30039962199E+02  0.00000000000E+00 0.  1.
</event>
<event>
 5    1  0.8863861E-005  0.9118800E+02  0.7818608E-02  0.1130116E+00
         25   -1    0    0    0    0  0.00000000000E+00  0.00000000000E+00  0.99999998245E-14  0.12500000000E+03  0.12500000000E+03 0.  0.
        -11    1    3    3    0    0  0.91073107183E+01  0.25636597953E+02 -0.33739827337E+02  0.43342291265E+02  0.51100000000E-03 0. -1.
         23    2    1    0    0    0 -0.16541729796E+02  0.21933440247E+02  0.11291495583E+02  0.95298106151E+02  0.90551237086E+02 0.  0.
         11    1    3    3    0    0 -0.25649040514E+02 -0.37031577064E+01  0.45031322920E+02  0.51955814886E+02  0.51100000000E-03 0.  1.
         22    1    1    0    0    0  0.16541729796E+02 -0.21933440247E+02 -0.11291495583E+02  0.29701893849E+02  0.00000000000E+00 0.  1.
</event>
<event>
 5    1  0.8863861E-005  0.9118800E+02  0.7818608E-02  0.1130116E+00
         25   -1    0    0    0    0  0.00000000000E+00  0.00000000000E+00  0.99999998245E-14  0.12500000000E+03  0.12500000000E+03 0.  0.
        -11    1    3    3    0    0  0.97764547466E+01 -0.31615891712E+02  0.30564096413E+02  0.45047837528E+02  0.51100000000E-03 0. -1.
         23    2    1    0    0    0 -0.15582483551E+02  0.12120763848E+02  0.20391972644E+02  0.96617624162E+02  0.92354783528E+02 0.  0.
         11    1    3    3    0    0 -0.25358938298E+02  0.43736655560E+02 -0.10172123769E+02  0.51569786634E+02  0.51100000000E-03 0.  1.
         22    1    1    0    0    0  0.15582483551E+02 -0.12120763848E+02 -0.20391972644E+02  0.28382375838E+02  0.00000000000E+00 0.  1.
</event>
<event>
 5    1  0.8863861E-005  0.9118800E+02  0.7818608E-02  0.1130116E+00
         25   -1    0    0    0    0  0.00000000000E+00  0.00000000000E+00  0.99999998245E-14  0.12500000000E+03  0.12500000000E+03 0.  0.
        -11    1    3    3    0    0  0.54356241877E+02  0.22225728803E+00  0.15343757991E+02  0.56480805047E+02  0.51100000000E-03 0. -1.
         23    2    1    0    0    0  0.16436614706E+02 -0.12378023413E+02  0.19496207656E+02  0.96654279343E+02  0.92404382124E+02 0.  0.
         11    1    3    3    0    0 -0.37919627170E+02 -0.12600280701E+02  0.41524496649E+01  0.40173474295E+02  0.51100000000E-03 0.  1.
         22    1    1    0    0    0 -0.16436614706E+02  0.12378023413E+02 -0.19496207656E+02  0.28345720657E+02  0.00000000000E+00 0. -1.
</event>
<event>
 5    1  0.8863861E-005  0.9118800E+02  0.7818608E-02  0.1130116E+00
         25   -1    0    0    0    0  0.00000000000E+00  0.00000000000E+00  0.99999998245E-14  0.12500000000E+03  0.12500000000E+03 0.  0.
        -11    1    3    3    0    0  0.36083202740E+02 -0.24235013760E+02  0.76162766603E+01  0.44128687748E+02  0.51100000000E-03 0.  1.
         23    2    1    0    0    0 -0.11652915457E+02 -0.21223399947E+02 -0.14449390354E+02  0.96804113322E+02  0.92606848183E+02 0.  0.
         11    1    3    3    0    0 -0.47736118198E+02  0.30116138128E+01 -0.22065667014E+02  0.52675425574E+02  0.51100000000E-03 0. -1.
         22    1    1    0    0    0  0.11652915457E+02  0.21223399947E+02  0.14449390354E+02  0.28195886678E+02  0.00000000000E+00 0. -1.
</event>
<event>
 5    1  0.8863861E-005  0.9118800E+02  0.7818608E-02  0.1130116E+00
         25   -1    0    0    0    0  0.00000000000E+00  0.00000000000E+00  0.99999998245E-14  0.12500000000E+03  0.12500000000E+03 0.  0.
        -11    1    3    3    0    0  0.31408587970E+02 -0.17394521403E+02 -0.44896944202E+02  0.57487427947E+02  0.51100000000E-03 0.  1.
         23    2    1    0    0    0  0.21279606268E+02  0.81542082754E+01 -0.17786037192E+02  0.96092286937E+02  0.91640993744E+02 0.  0.
         11    1    3    3    0    0 -0.10128981703E+02  0.25548729678E+02  0.27110907009E+02  0.38604858990E+02  0.51100000000E-03 0. -1.
         22    1    1    0    0    0 -0.21279606268E+02 -0.81542082754E+01  0.17786037192E+02  0.28907713063E+02  0.00000000000E+00 0.  1.
</event>
<event>
 5    1  0.8863861E-005  0.9118800E+02  0.7818608E-02  0.1130116E+00
         25   -1    0    0    0    0  0.00000000000E+00  0.00000000000E+00  0.99999998245E-14  0.12500000000E+03  0.12500000000E+03 0.  0.
        -11    1    3    3    0    0 -0.30767917870E+02 -0.18450036072E+01  0.19600178196E+02  0.36527192528E+02  0.51100000000E-03 0.  1.
         23    2    1    0    0    0  0.16855148203E+02  0.23837924520E+02 -0.39535597692E+01  0.95538613386E+02  0.90882635011E+02 0.  0.
         11    1    3    3    0    0  0.47623066073E+02  0.25682928127E+02 -0.23553737965E+02  0.59011420859E+02  0.51100000000E-03 0. -1.
         22    1    1    0    0    0 -0.16855148203E+02 -0.23837924520E+02  0.39535597692E+01  0.29461386614E+02  0.00000000000E+00 0. -1.
</event>
<event>
 5    1  0.8863861E-005  0.9118800E+02  0.7818608E-02  0.1130116E+00
         25   -1    0    0    0    0  0.00000000000E+00  0.00000000000E+00  0.99999998245E-14  0.12500000000E+03  0.12500000000E+03 0.  0.
        -11    1    3    3    0    0  0.26675846429E+02  0.13400783927E+02 -0.21500668131E+02  0.36789407754E+02  0.51100000000E-03 0. -1.
         23    2    1    0    0    0 -0.82596821328E+01 -0.27830574462E+02  0.23795856159E+01  0.95872252893E+02  0.91340370172E+02 0.  0.
         11    1    3    3    0    0 -0.34935528561E+02 -0.41231358389E+02  0.23880253746E+02  0.59082845139E+02  0.51100000000E-03 0.  1.
         22    1    1    0    0    0  0.82596821328E+01  0.27830574462E+02 -0.23795856159E+01  0.29127747107E+02  0.00000000000E+00 0.  1.
</event>
<event>
 5    1  0.8863861E-005  0.9118800E+02  0.7818608E-02  0.1130116E+00
         25   -1    0    0    0    0  0.00000000000E+00  0.00000000000E+00  0.99999998245E-14  0.12500000000E+03  0.12500000000E+03 0.  0.
        -11    1    3    3    0    0  0.38810840307E+02 -0.43573347146E+02 -0.63137173449E+01  0.58692256166E+02  0.51100000000E-03 0.  1.
         23    2    1    0    0    0  0.18403559026E+02 -0.13952563417E+02 -0.17121433287E+02  0.96250939345E+02  0.91857143632E+02 0.  0.
         11    1    3    3    0    0 -0.20407281280E+02  0.29620783729E+02 -0.10807715942E+02  0.37558683179E+02  0.51100000000E-03 0. -1.
         22    1    1    0    0    0 -0.18403559026E+02  0.13952563417E+02  0.17121433287E+02  0.28749060655E+02  0.00000000000E+00 0.  1.
</event>
<event>
 5    1  0.8863861E-005  0.9118800E+02  0.7818608E-02  0.1130116E+00
         25   -1    0    0    0    0  0.00000000000E+00  0.00000000000E+00  0.99999998245E-14  0.12500000000E+03  0.12500000000E+03 0.  0.
        -11    1    3    3    0    0 -0.24097957139E+02  0.33783441010E+02  0.42348776429E+01  0.41712907039E+02  0.51100000000E-03 0.  1.
         23    2    1    0    0    0  0.17551480407E+02  0.47793917731E+01  0.22868686872E+02  0.95778879394E+02  0.91212498313E+02 0.  0.
         11    1    3    3    0    0  0.41649437546E+02 -0.29004049237E+02  0.18633809229E+02  0.54065972355E+02  0.51100000000E-03 0. -1.
         22    1    1    0    0    0 -0.17551480407E+02 -0.47793917731E+01 -0.22868686872E+02  0.29221120606E+02  0.00000000000E+00 0.  1.
</event>
<event>
 5    1  0.8863861E-005  0.9118800E+02  0.7818608E-02  0.1130116E+00
         25   -1    0    0    0    0  0.00000000000E+00  0.00000000000E+00  0.99999998245E-14  0.12500000000E+03  0.12500000000E+03 0.  0.
        -11    1    3    3    0    0 -0.22429989751E+01  0.17819361222E+02 -0.57207740378E+02  0.59960705785E+02  0.51100000000E-03 0. -1.
         23    2    1    0    0    0  0.85025193475E+01  0.16121106398E+02 -0.24270431137E+02  0.94648118109E+02  0.89649481467E+02 0.  0.
         11    1    3    3    0    0  0.10745518323E+02 -0.16982548246E+01  0.32937309241E+02  0.34687412324E+02  0.51100000000E-03 0.  1.
         22    1    1    0    0    0 -0.85025193475E+01 -0.16121106398E+02  0.24270431137E+02  0.30351881891E+02  0.00000000000E+00 0. -1.
</event>
<event>
 5    1  0.8863861E-005  0.9118800E+02  0.7818608E-02  0.1130116E+00
         25   -1    0    0    0    0  0.00000000000E+00  0.00000000000E+00  0.99999998245E-14  0.12500000000E+03  0.12500000000E+03 0.  0.
        -11    1    3    3    0    0  0.14971619419E+02  0.12231447759E+02 -0.27298515646E+02  0.33450959015E+02  0.51100000000E-03 0. -1.
         23    2    1    0    0    0 -0.50859588354E+01 -0.25702528401E+02  0.15910279599E+02  0.94346714036E+02  0.89228238293E+02 0.  0.
         11    1    3    3    0    0 -0.20057578255E+02 -0.37933976160E+02  0.43208795245E+02  0.60895755021E+02  0.51100000000E-03 0.  1.
         22    1    1    0    0    0  0.50859588354E+01  0.25702528401E+02 -0.15910279599E+02  0.30653285964E+02  0.00000000000E+00 0.  1.
</event>
<event>
 5    1  0.8863861E-005  0.9118800E+02  0.7818608E-02  0.1130116E+00
         25   -1    0    0    0    0  0.00000000000E+00  0.00000000000E+00  0.99999998245E-14  0.12500000000E+03  0.12500000000E+03 0.  0.
        -11    1    3    3    0    0  0.21904079720E+02 -0.42491015695E+01 -0.28462871058E+02  0.36165986806E+02  0.51100000000E-03 0.  1.
         23    2    1    0    0    0 -0.24680177533E+02  0.73412557694E+01  0.96928285287E+01  0.97487164373E+02  0.93524280769E+02 0.  0.
         11    1    3    3    0    0 -0.46584257253E+02  0.11590357339E+02  0.38155699587E+02  0.61321177567E+02  0.51100000000E-03 0. -1.
         22    1    1    0    0    0  0.24680177533E+02 -0.73412557694E+01 -0.96928285287E+01  0.27512835627E+02  0.00000000000E+00 0. -1.
</event>
<event>
 5    1  0.8863861E-005  0.9118800E+02  0.7818608E-02  0.1130116E+00
         25   -1    0    0    0    0  0.00000000000E+00  0.00000000000E+00  0.99999998245E-14  0.12500000000E+03  0.12500000000E+03 0.  0.
        -11    1    3    3    0    0  0.30351598000E+02  0.10703757980E+02  0.43841716861E+02  0.54386451195E+02  0.51100000000E-03 0.  1.
         23    2    1    0    0    0  0.19856494481E+00  0.76619798362E+01  0.39214211700E+02  0.85043776926E+02  0.75072926089E+02 0.  0.
         11    1    3    3    0    0 -0.30153033055E+02 -0.30417781442E+01 -0.46275051602E+01  0.30657325731E+02  0.51100000000E-03 0. -1.
         22    1    1    0    0    0 -0.19856494481E+00 -0.76619798362E+01 -0.39214211700E+02  0.39956223074E+02  0.00000000000E+00 0.  1.
</event>
<event>
 5    1  0.8863861E-005  0.9118800E+02  0.7818608E-02  0.1130116E+00
         25   -1    0    0    0    0  0.00000000000E+00  0.00000000000E+00  0.99999998245E-14  0.12500000000E+03  0.12500000000E+03 0.  0.
        -11    1    3    3    0    0 -0.38204154667E+02 -0.45585748134E+02 -0.13266776079E+02  0.60939520958E+02  0.51100000000E-03 0. -1.
         23    2    1    0    0    0 -0.20640769899E+02 -0.13987923244E+02 -0.12522286891E+02  0.97098189168E+02  0.93002942384E+02 0.  0.
         11    1    3    3    0    0  0.17563384768E+02  0.31597824890E+02  0.74448918748E+00  0.36158668210E+02  0.51100000000E-03 0.  1.
         22    1    1    0    0    0  0.20640769899E+02  0.13987923244E+02  0.12522286891E+02  0.27901810832E+02  0.00000000000E+00 0. -1.
</event>
<event>
 5    1  0.8863861E-005  0.9118800E+02  0.7818608E-02  0.1130116E+00
         25   -1    0    0    0    0  0.00000000000E+00  0.00000000000E+00  0.99999998245E-14  0.12500000000E+03  0.12500000000E+03 0.  0.
        -11    1    3    3    0    0  0.25918334497E+01 -0.12001685449E+02 -0.54678094730E+02  0.56039736775E+02  0.51100000000E-03 0.  1.
         23    2    1    0    0    0 -0.10118267979E+02 -0.20782664374E+02 -0.18448081970E+02  0.95425852273E+02  0.90727410788E+02 0.  0.
         11    1    3    3    0    0 -0.12710101429E+02 -0.87809789252E+01  0.36230012760E+02  0.39386115498E+02  0.51100000000E-03 0. -1.
         22    1    1    0    0    0  0.10118267979E+02  0.20782664374E+02  0.18448081970E+02  0.29574147727E+02  0.00000000000E+00 0.  1.
</event>
<event>
 5    1  0.8863861E-005  0.9118800E+02  0.7818608E-02  0.1130116E+00
         25   -1    0    0    0    0  0.00000000000E+00  0.00000000000E+00  0.99999998245E-14  0.12500000000E+03  0.12500000000E+03 0.  0.
        -11    1    3    3    0    0 -0.51987596498E+02 -0.15265218146E+01  0.25346016348E+02  0.57857246767E+02  0.51100000000E-03 0.  1.
         23    2    1    0    0    0 -0.26813338089E+02 -0.26733130210E+01 -0.53036770478E+01  0.97536739229E+02  0.93590516652E+02 0.  0.
         11    1    3    3    0    0  0.25174258409E+02 -0.11467912065E+01 -0.30649693396E+02  0.39679492462E+02  0.51100000000E-03 0. -1.
         22    1    1    0    0    0  0.26813338089E+02  0.26733130210E+01  0.53036770478E+01  0.27463260771E+02  0.00000000000E+00 0.  1.
</event>
<event>
 5    1  0.8863861E-005  0.9118800E+02  0.7818608E-02  0.1130116E+00
         25   -1    0    0    0    0  0.00000000000E+00  0.00000000000E+00  0.99999998245E-14  0.12500000000E+03  0.12500000000E+03 0.  0.
        -11    1    3    3    0    0 -0.16465310388E+02  0.69739149810E+01  0.28849136036E+02  0.33941340378E+02  0.51100000000E-03 0. -1.
         23    2    1    0    0    0  0.35576479530E+01  0.69889600895E+00 -0.29153050285E+02  0.95622361301E+02  0.90997749012E+02 0.  0.
         11    1    3    3    0    0  0.20022958341E+02 -0.62750189721E+01 -0.58002186321E+02  0.61681020923E+02  0.51100000000E-03 0.  1.
         22    1    1    0    0    0 -0.35576479530E+01 -0.69889600895E+00  0.29153050285E+02  0.29377638699E+02  0.00000000000E+00 0.  1.
</event>
<event>
 5    1  0.8863861E-005  0.9118800E+02  0.7818608E-02  0.1130116E+00
         25   -1    0    0    0    0  0.00000000000E+00  0.00000000000E+00  0.99999998245E-14  0.12500000000E+03  0.12500000000E+03 0.  0.
        -11    1    3    3    0    0 -0.21386377360E+01  0.29961166169E+02  0.70626755828E+01  0.30856549325E+02  0.51100000000E-03 0.  1.
         23    2    1    0    0    0  0.92354188420E+01 -0.30154615393E+02 -0.45654656846E+01  0.93134073564E+02  0.87512961275E+02 0.  0.
         11    1    3    3    0    0  0.11374056578E+02 -0.60115781562E+02 -0.11628141267E+02  0.62277524240E+02  0.51100000000E-03 0. -1.
         22    1    1    0    0    0 -0.92354188420E+01  0.30154615393E+02  0.45654656846E+01  0.31865926436E+02  0.00000000000E+00 0. -1.
</event>
<event>
 5    1  0.8863861E-005  0.9118800E+02  0.7818608E-02  0.1130116E+00
         25   -1    0    0    0    0  0.00000000000E+00  0.00000000000E+00  0.99999998245E-14  0.12500000000E+03  0.12500000000E+03 0.  0.
        -11    1    3    3    0    0 -0.33217757591E+01 -0.33746178903E+02 -0.72573096185E+01  0.34677187428E+02  0.51100000000E-03 0. -1.
         23    2    1    0    0    0  0.13891520162E+02  0.24347089780E+02 -0.97585840698E+01  0.95318607240E+02  0.90579533063E+02 0.  0.
         11    1    3    3    0    0  0.17213295921E+02  0.58093268683E+02 -0.25012744513E+01  0.60641419812E+02  0.51100000000E-03 0.  1.
         22    1    1    0    0    0 -0.13891520162E+02 -0.24347089780E+02  0.97585840698E+01  0.29681392760E+02  0.00000000000E+00 0.  1.
</event>
<event>
 5    1  0.8863861E-005  0.9118800E+02  0.7818608E-02  0.1130116E+00
         25   -1    0    0    0    0  0.00000000000E+00  0.00000000000E+00  0.99999998245E-14  0.12500000000E+03  0.12500000000E+03 0.  0.
        -11    1    3    3    0    0 -0.54210325067E+02 -0.20387139800E+02 -0.87694730615E+01  0.58577286308E+02  0.51100000000E-03 0. -1.
         23    2    1    0    0    0 -0.23259814001E+02 -0.16441679070E+02  0.97893305819E+01  0.94880591785E+02  0.89973040107E+02 0.  0.
         11    1    3    3    0    0  0.30950511066E+02  0.39454607302E+01  0.18558803643E+02  0.36303305477E+02  0.51100000000E-03 0.  1.
         22    1    1    0    0    0  0.23259814001E+02  0.16441679070E+02 -0.97893305819E+01  0.30119408215E+02  0.00000000000E+00 0. -1.
</event>
<event>
 5    1  0.8863861E-005  0.9118800E+02  0.7818608E-02  0.1130116E+00
         25   -1    0    0    0    0  0.00000000000E+00  0.00000000000E+00  0.99999998245E-14  0.12500000000E+03  0.12500000000E+03 0.  0.
        -11    1    3    3    0    0  0.33101260972E+02  0.35287910638E+02  0.90598249177E+01  0.49224084988E+02  0.51100000000E-03 0. -1.
         23    2    1    0    0    0 -0.95972878630E+01  0.27198520312E+02 -0.65908268731E+01  0.95414421750E+02  0.90711660979E+02 0.  0.
         11    1    3    3    0    0 -0.42698548835E+02 -0.80893903259E+01 -0.15650651791E+02  0.46190336762E+02  0.51100000000E-03 0.  1.
         22    1    1    0    0    0  0.95972878630E+01 -0.27198520312E+02  0.65908268731E+01  0.29585578250E+02  0.00000000000E+00 0. -1.
</event>
<event>
 5    1  0.8863861E-005  0.9118800E+02  0.7818608E-02  0.1130116E+00
         25   -1    0    0    0    0  0.00000000000E+00  0.00000000000E+00  0.99999998245E-14  0.12500000000E+03  0.12500000000E+03 0.  0.
        -11    1    3    3    0    0  0.25517429941E+02  0.26604491855E+02  0.50740650244E+01  0.37211347111E+02  0.51100000000E-03 0. -1.
         23    2    1    0    0    0 -0.47221794479E+01 -0.15101353463E+02 -0.23916292174E+02  0.96323548224E+02  0.91955897341E+02 0.  0.
         11    1    3    3    0    0 -0.30239609389E+02 -0.41705845318E+02 -0.28990357198E+02  0.59112201113E+02  0.51100000000E-03 0.  1.
         22    1    1    0    0    0  0.47221794479E+01  0.15101353463E+02  0.23916292174E+02  0.28676451776E+02  0.00000000000E+00 0.  1.
</event>
<event>
 5    1  0.8863861E-005  0.9118800E+02  0.7818608E-02  0.1130116E+00
         25   -1    0    0    0    0  0.00000000000E+00  0.00000000000E+00  0.99999998245E-14  0.12500000000E+03  0.12500000000E+03 0.  0.
        -11    1    3    3    0    0 -0.21851517684E+02 -0.15187683717E+02  0.27765830457E+02  0.38459015887E+02  0.51100000000E-03 0.  1.
         23    2    1    0    0    0  0.27399479393E+02 -0.89210813936E+01 -0.15978156535E+01  0.96140509722E+02  0.91706746919E+02 0.  0.
         11    1    3    3    0    0  0.49250997078E+02  0.62666023237E+01 -0.29363646110E+02  0.57681493834E+02  0.51100000000E-03 0. -1.
         22    1    1    0    0    0 -0.27399479393E+02  0.89210813936E+01  0.15978156535E+01  0.28859490278E+02  0.00000000000E+00 0. -1.
</event>
<event>
 5    1  0.8863861E-005  0.9118800E+02  0.7818608E-02  0.1130116E+00
         25   -1    0    0    0    0  0.00000000000E+00  0.00000000000E+00  0.99999998245E-14  0.12500000000E+03  0.12500000000E+03 0.  0.
        -11    1    3    3    0    0 -0.38587046163E+02 -0.31110040325E+01  0.33096366575E+02  0.50931404441E+02  0.51100000000E-03 0.  1.
         23    2    1    0    0    0  0.43591170566E+01  0.72607567383E+01  0.28403581100E+02  0.95360770772E+02  0.90637700175E+02 0.  0.
         11    1    3    3    0    0  0.42946163219E+02  0.10371760771E+02 -0.46927854745E+01  0.44429366330E+02  0.51100000000E-03 0. -1.
         22    1    1    0    0    0 -0.43591170566E+01 -0.72607567383E+01 -0.28403581100E+02  0.29639229228E+02  0.00000000000E+00 0.  1.
</event>
<event>
 5    1  0.8863861E-005  0.9118800E+02  0.7818608E-02  0.1130116E+00
         25   -1    0    0    0    0  0.00000000000E+00  0.00000000000E+00  0.99999998245E-14  0.12500000000E+03  0.12500000000E+03 0.  0.
        -11    1    3    3    0    0 -0.17480322176E+02  0.48881776404E+02  0.11985015022E+02  0.53278797970E+02  0.51100000000E-03 0. -1.
         23    2    1    0    0    0 -0.23040925577E+02  0.68848575426E+01  0.16431203259E+02  0.95874925659E+02  0.91344027800E+02 0.  0.
         11    1    3    3    0    0 -0.55606034014E+01 -0.41996918861E+02  0.44461882371E+01  0.42596127689E+02  0.51100000000E-03 0.  1.
         22    1    1    0    0    0  0.23040925577E+02 -0.68848575426E+01 -0.16431203259E+02  0.29125074341E+02  0.00000000000E+00 0. -1.
</event>
<event>
 5    1  0.8863861E-005  0.9118800E+02  0.7818608E-02  0.1130116E+00
         25   -1    0    0    0    0  0.00000000000E+00  0.00000000000E+00  0.99999998245E-14  0.12500000000E+03  0.12500000000E+03 0.  0.
        -11    1    3    3    0    0  0.16515136793E+02 -0.27707862639E+01  0.41034142711E+02  0.44319610424E+02  0.51100000000E-03 0.  1.
         23    2    1    0    0    0 -0.78418341583E+01  0.21683643939E+02 -0.45508121756E+01  0.10149713488E+03  0.98738461198E+02 0.  0.
         11    1    3    3    0    0 -0.24356970951E+02  0.24454430203E+02 -0.45584954887E+02  0.57177524455E+02  0.51100000000E-03 0. -1.
         22    1    1    0    0    0  0.78418341583E+01 -0.21683643939E+02  0.45508121756E+01  0.23502865121E+02  0.00000000000E+00 0. -1.
</event>
<event>
 5    1  0.8863861E-005  0.9118800E+02  0.7818608E-02  0.1130116E+00
         25   -1    0    0    0    0  0.00000000000E+00  0.00000000000E+00  0.99999998245E-14  0.12500000000E+03  0.12500000000E+03 0.  0.
        -11    1    3    3    0    0  0.21161789505E+02 -0.23401311292E+02  0.15169863192E+02  0.35008105559E+02  0.51100000000E-03 0. -1.
         23    2    1    0    0    0 -0.21419566360E+02 -0.20622406326E+01 -0.21090623671E+02  0.94869200702E+02  0.89957213027E+02 0.  0.
         11    1    3    3    0    0 -0.42581355865E+02  0.21339070660E+02 -0.36260486864E+02  0.59861095144E+02  0.51100000000E-03 0.  1.
         22    1    1    0    0    0  0.21419566360E+02  0.20622406326E+01  0.21090623671E+02  0.30130799298E+02  0.00000000000E+00 0.  1.
</event>
<event>
 5    1  0.8863861E-005  0.9118800E+02  0.7818608E-02  0.1130116E+00
         25   -1    0    0    0    0  0.00000000000E+00  0.00000000000E+00  0.99999998245E-14  0.12500000000E+03  0.12500000000E+03 0.  0.
        -11    1    3    3    0    0  0.19235390320E+02 -0.58989999554E+01 -0.53724300181E+02  0.57368099772E+02  0.51100000000E-03 0.  1.
         23    2    1    0    0    0  0.93748916887E+00  0.13283127895E+02 -0.26359272101E+02  0.95468125724E+02  0.90785634496E+02 0.  0.
         11    1    3    3    0    0 -0.18297901151E+02  0.19182127850E+02  0.27365028080E+02  0.38100025952E+02  0.51100000000E-03 0. -1.
         22    1    1    0    0    0 -0.93748916887E+00 -0.13283127895E+02  0.26359272101E+02  0.29531874276E+02  0.00000000000E+00 0.  1.
</event>
<event>
 5    1  0.8863861E-005  0.9118800E+02  0.7818608E-02  0.1130116E+00
         25   -1    0    0    0    0  0.00000000000E+00  0.00000000000E+00  0.99999998245E-14  0.12500000000E+03  0.12500000000E+03 0.  0.
        -11    1    3    3    0    0 -0.25783118187E+01 -0.31424511553E+02 -0.26267641855E+02  0.41038233722E+02  0.51100000000E-03 0.  1.
         23    2    1    0    0    0  0.19014352482E+02  0.13258084660E+02  0.70026772746E+01  0.10078513064E+03  0.97832932388E+02 0.  0.
         11    1    3    3    0    0  0.21592664301E+02  0.44682596213E+02  0.33270319129E+02  0.59746896917E+02  0.51100000000E-03 0. -1.
         22    1    1    0    0    0 -0.19014352482E+02 -0.13258084660E+02 -0.70026772746E+01  0.24214869361E+02  0.00000000000E+00 0. -1.
</event>
<event>
 5    1  0.8863861E-005  0.9118800E+02  0.7818608E-02  0.1130116E+00
         25   -1    0    0    0    0  0.00000000000E+00  0.00000000000E+00  0.99999998245E-14  0.12500000000E+03  0.12500000000E+03 0.  0.
        -11    1    3    3    0    0 -0.44337727514E+02 -0.30640587414E+02 -0.80990505945E+01  0.54500222926E+02  0.51100000000E-03 0. -1.
         23    2    1    0    0    0 -0.20125115601E+02  0.26773654421E+01 -0.19094282487E+02  0.97129223416E+02  0.93044644414E+02 0.  0.
         11    1    3    3    0    0  0.24212611913E+02  0.33317952856E+02 -0.10995231893E+02  0.42629000490E+02  0.51100000000E-03 0.  1.
         22    1    1    0    0    0  0.20125115601E+02 -0.26773654421E+01  0.19094282487E+02  0.27870776584E+02  0.00000000000E+00 0. -1.
</event>
<event>
 5    1  0.8863861E-005  0.9118800E+02  0.7818608E-02  0.1130116E+00
         25   -1    0    0    0    0  0.00000000000E+00  0.00000000000E+00  0.99999998245E-14  0.12500000000E+03  0.12500000000E+03 0.  0.
        -11    1    3    3    0    0 -0.35921344024E+01  0.16363277503E+02 -0.23939487954E+02  0.29219160904E+02  0.51100000000E-03 0. -1.
         23    2    1    0    0    0 -0.57160224027E+01 -0.13626479113E+02  0.30331006780E+02  0.91260945220E+02  0.84795261100E+02 0.  0.
         11    1    3    3    0    0 -0.21238880003E+01 -0.29989756616E+02  0.54270494734E+02  0.62041784316E+02  0.51100000000E-03 0.  1.
         22    1    1    0    0    0  0.57160224027E+01  0.13626479113E+02 -0.30331006780E+02  0.33739054780E+02  0.00000000000E+00 0.  1.
</event>
<event>
 5    1  0.8863861E-005  0.9118800E+02  0.7818608E-02  0.1130116E+00
         25   -1    0    0    0    0  0.00000000000E+00  0.00000000000E+00  0.99999998245E-14  0.12500000000E+03  0.12500000000E+03 0.  0.
        -11    1    3    3    0    0  0.20344428531E+02 -0.39457498419E+02  0.25148928650E+02  0.51022138001E+02  0.51100000000E-03 0.  1.
         23    2    1    0    0    0  0.84220551926E+01  0.35271343936E+01  0.27830344363E+02  0.95710074120E+02  0.91118156972E+02 0.  0.
         11    1    3    3    0    0 -0.11922373339E+02  0.42984632813E+02  0.26814157135E+01  0.44687936119E+02  0.51100000000E-03 0. -1.
         22    1    1    0    0    0 -0.84220551926E+01 -0.35271343936E+01 -0.27830344363E+02  0.29289925880E+02  0.00000000000E+00 0.  1.
</event>
<event>
 5    1  0.8863861E-005  0.9118800E+02  0.7818608E-02  0.1130116E+00
         25   -1    0    0    0    0  0.00000000000E+00  0.00000000000E+00  0.99999998245E-14  0.12500000000E+03  0.12500000000E+03 0.  0.
        -11    1    3    3    0    0 -0.33735155239E+02  0.20252158800E+02 -0.12715009143E+02  0.41350720584E+02  0.51100000000E-03 0. -1.
         23    2    1    0    0    0  0.31481506892E+01 -0.18797637794E+02 -0.22032662573E+02  0.95867539420E+02  0.91333919521E+02 0.  0.
         11    1    3    3    0    0  0.36883305928E+02 -0.39049796595E+02 -0.93176534297E+01  0.54516818836E+02  0.51100000000E-03 0.  1.
         22    1    1    0    0    0 -0.31481506892E+01  0.18797637794E+02  0.22032662573E+02  0.29132460580E+02  0.00000000000E+00 0.  1.
</event>
<event>
 5    1  0.8863861E-005  0.9118800E+02  0.7818608E-02  0.1130116E+00
         25   -1    0    0    0    0  0.00000000000E+00  0.00000000000E+00  0.99999998245E-14  0.12500000000E+03  0.12500000000E+03 0.  0.
        -11    1    3    3    0    0  0.41985242438E+02 -0.85428175132E+01 -0.86305938197E+01  0.43706149036E+02  0.51100000000E-03 0.  1.
         23    2    1    0    0    0 -0.31659642905E+01  0.70479675881E+01 -0.28522397310E+02  0.95449630707E+02  0.90760165694E+02 0.  0.
         11    1    3    3    0    0 -0.45151206728E+02  0.15590785101E+02 -0.19891803491E+02  0.51743481671E+02  0.51100000000E-03 0. -1.
         22    1    1    0    0    0  0.31659642905E+01 -0.70479675881E+01  0.28522397310E+02  0.29550369293E+02  0.00000000000E+00 0. -1.
</event>
<event>
 5    1  0.8863861E-005  0.9118800E+02  0.7818608E-02  0.1130116E+00
         25   -1    0    0    0    0  0.00000000000E+00  0.00000000000E+00  0.99999998245E-14  0.12500000000E+03  0.12500000000E+03 0.  0.
        -11    1    3    3    0    0  0.11407131439E+02 -0.20504653958E+02 -0.25094396658E+02  0.34355381318E+02  0.51100000000E-03 0. -1.
         23    2    1    0    0    0 -0.26519416674E+02  0.12783799271E+02  0.77391357580E+01  0.94559907904E+02  0.89526403792E+02 0.  0.
         11    1    3    3    0    0 -0.37926548114E+02  0.33288453230E+02  0.32833532416E+02  0.60204526586E+02  0.51100000000E-03 0.  1.
         22    1    1    0    0    0  0.26519416674E+02 -0.12783799271E+02 -0.77391357580E+01  0.30440092096E+02  0.00000000000E+00 0.  1.
</event>
<event>
 5    1  0.8863861E-005  0.9118800E+02  0.7818608E-02  0.1130116E+00
         25   -1    0    0    0    0  0.00000000000E+00  0.00000000000E+00  0.99999998245E-14  0.12500000000E+03  0.12500000000E+03 0.  0.
        -11    1    3    3    0    0 -0.38685453909E+02 -0.21255421004E+02  0.89914219786E+01  0.45046675079E+02  0.51100000000E-03 0. -1.
         23    2    1    0    0    0  0.13622645481E+02 -0.22741162235E+02  0.77132017943E+01  0.97391479366E+02  0.93396305288E+02 0.  0.
         11    1    3    3    0    0  0.52308099390E+02 -0.14857412307E+01 -0.12782201843E+01  0.52344804287E+02  0.51100000000E-03 0.  1.
         22    1    1    0    0    0 -0.13622645481E+02  0.22741162235E+02 -0.77132017943E+01  0.27608520634E+02  0.00000000000E+00 0. -1.
</event>
<event>
 5    1  0.8863861E-005  0.9118800E+02  0.7818608E-02  0.1130116E+00
         25   -1    0    0    0    0  0.00000000000E+00  0.00000000000E+00  0.99999998245E-14  0.12500000000E+03  0.12500000000E+03 0.  0.
        -11    1    3    3    0    0  0.19459217824E+02  0.88100257679E+01  0.37002490091E+02  0.42725425516E+02  0.51100000000E-03 0.  1.
         23    2    1    0    0    0  0.22810689510E+02  0.27350825444E+02 -0.52614668738E+01  0.88998913321E+02  0.81392434110E+02 0.  0.
         11    1    3    3    0    0  0.33514716861E+01  0.18540799676E+02 -0.42263956965E+02  0.46273487805E+02  0.51100000000E-03 0. -1.
         22    1    1    0    0    0 -0.22810689510E+02 -0.27350825444E+02  0.52614668738E+01  0.36001086679E+02  0.00000000000E+00 0. -1.
</event>
<event>
 5    1  0.8863861E-005  0.9118800E+02  0.7818608E-02  0.1130116E+00
         25   -1    0    0    0    0  0.00000000000E+00  0.00000000000E+00  0.99999998245E-14  0.12500000000E+03  0.12500000000E+03 0.  0.
        -11    1    3    3    0    0  0.32422393836E+02 -0.34277397175E+01 -0.83788328787E+01  0.33662529054E+02  0.51100000000E-03 0.  1.
         23    2    1    0    0    0 -0.26312459721E+02  0.12694314114E+02 -0.85142685688E+01  0.94570016157E+02  0.89540516188E+02 0.  0.
         11    1    3    3    0    0 -0.58734853557E+02  0.16122053832E+02 -0.13543569008E+00  0.60907487103E+02  0.51100000000E-03 0. -1.
         22    1    1    0    0    0  0.26312459721E+02 -0.12694314114E+02  0.85142685688E+01  0.30429983843E+02  0.00000000000E+00 0. -1.
</event>
<event>
 5    1  0.8863861E-005  0.9118800E+02  0.7818608E-02  0.1130116E+00
         25   -1    0    0    0    0  0.00000000000E+00  0.00000000000E+00  0.99999998245E-14  0.12500000000E+03  0.12500000000E+03 0.  0.
        -11    1    3    3    0    0  0.47097139698E+02 -0.14010778216E+02 -0.83103859730E+01  0.49834776906E+02  0.51100000000E-03 0. -1.
         23    2    1    0    0    0  0.17964739309E+02  0.21636042726E+02  0.12351220128E+01  0.96850830746E+02  0.92669885543E+02 0.  0.
         11    1    3    3    0    0 -0.29132400389E+02  0.35646820943E+02  0.95455079858E+01  0.47016053840E+02  0.51100000000E-03 0.  1.
         22    1    1    0    0    0 -0.17964739309E+02 -0.21636042726E+02 -0.12351220128E+01  0.28149169254E+02  0.00000000000E+00 0. -1.
</event>
<event>
 5    1  0.8863861E-005  0.9118800E+02  0.7818608E-02  0.1130116E+00
         25   -1    0    0    0    0  0.00000000000E+00  0.00000000000E+00  0.99999998245E-14  0.12500000000E+03  0.12500000000E+03 0.  0.
        -11    1    3    3    0    0  0.88601876996E+01 -0.20471695592E+02 -0.32651709572E+02  0.39543993029E+02  0.51100000000E-03 0.  1.
         23    2    1    0    0    0  0.14759574590E+02 -0.12849365110E+02  0.22298001413E+02  0.95332642638E+02  0.90598899881E+02 0.  0.
         11    1    3    3    0    0  0.58993868902E+01  0.76223304823E+01  0.54949710985E+02  0.55788649609E+02  0.51100000000E-03 0. -1.
         22    1    1    0    0    0 -0.14759574590E+02  0.12849365110E+02 -0.22298001413E+02  0.29667357362E+02  0.00000000000E+00 0. -1.
</event>
<event>
 5    1  0.8863861E-005  0.9118800E+02  0.7818608E-02  0.1130116E+00
         25   -1    0    0    0    0  0.00000000000E+00  0.00000000000E+00  0.99999998245E-14  0.12500000000E+03  0.12500000000E+03 0.  0.
        -11    1    3    3    0    0 -0.14175317199E+02  0.11039519111E+02 -0.29125109502E+02  0.34221084197E+02  0.51100000000E-03 0. -1.
         23    2    1    0    0    0  0.14267907034E+02 -0.20449748961E+02  0.15371790213E+02  0.95707384240E+02  0.91114466799E+02 0.  0.
         11    1    3    3    0    0  0.28443224233E+02 -0.31489268072E+02  0.44496899715E+02  0.61486300043E+02  0.51100000000E-03 0.  1.
         22    1    1    0    0    0 -0.14267907034E+02  0.20449748961E+02 -0.15371790213E+02  0.29292615760E+02  0.00000000000E+00 0.  1.
</event>
<event>
 5    1  0.8863861E-005  0.9118800E+02  0.7818608E-02  0.1130116E+00
         25   -1    0    0    0    0  0.00000000000E+00  0.00000000000E+00  0.99999998245E-14  0.12500000000E+03  0.12500000000E+03 0.  0.
        -11    1    3    3    0    0  0.14567930497E+02  0.14682516264E+02  0.27268634755E+02  0.34225419274E+02  0.51100000000E-03 0. -1.
         23    2    1    0    0    0 -0.22477517880E+02 -0.48918128995E+01 -0.17913055400E+02  0.95844448260E+02  0.91302311389E+02 0.  0.
         11    1    3    3    0    0 -0.37045448377E+02 -0.19574329164E+02 -0.45181690155E+02  0.61619028986E+02  0.51100000000E-03 0.  1.
         22    1    1    0    0    0  0.22477517880E+02  0.48918128995E+01  0.17913055400E+02  0.29155551740E+02  0.00000000000E+00 0.  1.
</event>
<event>
 5    1  0.8863861E-005  0.9118800E+02  0.7818608E-02  0.1130116E+00
         25   -1    0    0    0    0  0.00000000000E+00  0.00000000000E+00  0.99999998245E-14  0.12500000000E+03  0.12500000000E+03 0.  0.
        -11    1    3    3    0    0 -0.19092606620E+02  0.15833154631E+01 -0.39220577888E+02  0.43649607622E+02  0.51100000000E-03 0. -1.
         23    2    1    0    0    0  0.82692886987E+01  0.27724887933E+02 -0.32048943070E+01  0.95891205900E+02  0.91366303827E+02 0.  0.
         11    1    3    3    0    0  0.27361895318E+02  0.26141572469E+02  0.36015683581E+02  0.52241598278E+02  0.51100000000E-03 0.  1.
         22    1    1    0    0    0 -0.82692886987E+01 -0.27724887933E+02  0.32048943070E+01  0.29108794100E+02  0.00000000000E+00 0.  1.
</event>
<event>
 5    1  0.8863861E-005  0.9118800E+02  0.7818608E-02  0.1130116E+00
         25   -1    0    0    0    0  0.00000000000E+00  0.00000000000E+00  0.99999998245E-14  0.12500000000E+03  0.12500000000E+03 0.  0.
        -11    1    3    3    0    0  0.30430170421E+02 -0.20414980358E+02  0.42054108160E+02  0.55779160161E+02  0.51100000000E-03 0.  1.
         23    2    1    0    0    0  0.27410979701E+02 -0.12057349930E+02  0.40817258696E+01  0.94777459048E+02  0.89829643003E+02 0.  0.
         11    1    3    3    0    0 -0.30191907197E+01  0.83576304286E+01 -0.37972382291E+02  0.38998298887E+02  0.51100000000E-03 0. -1.
         22    1    1    0    0    0 -0.27410979701E+02  0.12057349930E+02 -0.40817258696E+01  0.30222540952E+02  0.00000000000E+00 0.  1.
</event>
<event>
 5    1  0.8863861E-005  0.9118800E+02  0.7818608E-02  0.1130116E+00
         25   -1    0    0    0    0  0.00000000000E+00  0.00000000000E+00  0.99999998245E-14  0.12500000000E+03  0.12500000000E+03 0.  0.
        -11    1    3    3    0    0 -0.36035188486E+01  0.31558488974E+02 -0.70521192068E+01  0.32536993715E+02  0.51100000000E-03 0. -1.
         23    2    1    0    0    0  0.14266380661E+02 -0.25136545992E+02  0.10061383122E+02  0.94395964451E+02  0.89297206635E+02 0.  0.
         11    1    3    3    0    0  0.17869899510E+02 -0.56695034966E+02  0.17113502329E+02  0.61858970736E+02  0.51100000000E-03 0.  1.
         22    1    1    0    0    0 -0.14266380661E+02  0.25136545992E+02 -0.10061383122E+02  0.30604035549E+02  0.00000000000E+00 0.  1.
</event>
<event>
 5    1  0.8863861E-005  0.9118800E+02  0.7818608E-02  0.1130116E+00
         25   -1    0    0    0    0  0.00000000000E+00  0.00000000000E+00  0.99999998245E-14  0.12500000000E+03  0.12500000000E+03 0.  0.
        -11    1    3    3    0    0  0.12116459507E+02  0.34329472877E+02 -0.44782277855E+02  0.57712855666E+02  0.51100000000E-03 0.  1.
         23    2    1    0    0    0 -0.93091209756E+01  0.91463618749E+01 -0.26417091745E+02  0.95535132698E+02  0.90877847545E+02 0.  0.
         11    1    3    3    0    0 -0.21425580483E+02 -0.25183111002E+02  0.18365186110E+02  0.37822277032E+02  0.51100000000E-03 0. -1.
         22    1    1    0    0    0  0.93091209756E+01 -0.91463618749E+01  0.26417091745E+02  0.29464867302E+02  0.00000000000E+00 0.  1.
</event>
<event>
 5    1  0.8863861E-005  0.9118800E+02  0.7818608E-02  0.1130116E+00
         25   -1    0    0    0    0  0.00000000000E+00  0.00000000000E+00  0.99999998245E-14  0.12500000000E+03  0.12500000000E+03 0.  0.
        -11    1    3    3    0    0  0.20626828616E+01 -0.44529853579E+02  0.16400598860E+02  0.47498864866E+02  0.51100000000E-03 0. -1.
         23    2    1    0    0    0 -0.19179396816E+02 -0.12052601566E+01  0.21668535818E+02  0.96037483556E+02  0.91566210411E+02 0.  0.
         11    1    3    3    0    0 -0.21242079678E+02  0.43324593423E+02  0.52679369578E+01  0.48538618690E+02  0.51100000000E-03 0.  1.
         22    1    1    0    0    0  0.19179396816E+02  0.12052601566E+01 -0.21668535818E+02  0.28962516444E+02  0.00000000000E+00 0. -1.
</event>
<event>
 5    1  0.8863861E-005  0.9118800E+02  0.7818608E-02  0.1130116E+00
         25   -1    0    0    0    0  0.00000000000E+00  0.00000000000E+00  0.99999998245E-14  0.12500000000E+03  0.12500000000E+03 0.  0.
        -11    1    3    3    0    0  0.50208516507E+02 -0.15934127751E+02  0.69975983342E+01  0.53139043459E+02  0.51100000000E-03 0.  1.
         23    2    1    0    0    0  0.33075908671E+02  0.14218882044E+02  0.90406720193E+01  0.87879573123E+02  0.79654838401E+02 0.  0.
         11    1    3    3    0    0 -0.17132607836E+02  0.30153009795E+02  0.20430736851E+01  0.34740529664E+02  0.51100000000E-03 0. -1.
         22    1    1    0    0    0 -0.33075908671E+02 -0.14218882044E+02 -0.90406720193E+01  0.37120426877E+02  0.00000000000E+00 0.  1.
</event>
<event>
 5    1  0.8863861E-005  0.9118800E+02  0.7818608E-02  0.1130116E+00
         25   -1    0    0    0    0  0.00000000000E+00  0.00000000000E+00  0.99999998245E-14  0.12500000000E+03  0.12500000000E+03 0.  0.
        -11    1    3    3    0    0 -0.29906605857E+02  0.45917970292E+01  0.10308725241E+02  0.31964972864E+02  0.51100000000E-03 0. -1.
         23    2    1    0    0    0  0.26694440585E+02 -0.14645358761E+02 -0.60785847924E+01  0.93951185458E+02  0.88672410390E+02 0.  0.
         11    1    3    3    0    0  0.56601046443E+02 -0.19237155790E+02 -0.16387310033E+02  0.61986212593E+02  0.51100000000E-03 0.  1.
         22    1    1    0    0    0 -0.26694440585E+02  0.14645358761E+02  0.60785847924E+01  0.31048814542E+02  0.00000000000E+00 0.  1.
</event>
<event>
 5    1  0.8863861E-005  0.9118800E+02  0.7818608E-02  0.1130116E+00
         25   -1    0    0    0    0  0.00000000000E+00  0.00000000000E+00  0.99999998245E-14  0.12500000000E+03  0.12500000000E+03 0.  0.
        -11    1    3    3    0    0  0.29113082650E+02 -0.50549472955E+00 -0.30497011399E+02  0.42165089954E+02  0.51100000000E-03 0.  1.
         23    2    1    0    0    0  0.45425734785E+01  0.20579893288E+02  0.15799586431E+02  0.98660032025E+02  0.95078956695E+02 0.  0.
         11    1    3    3    0    0 -0.24570509171E+02  0.21085388017E+02  0.46296597830E+02  0.56494942071E+02  0.51100000000E-03 0. -1.
         22    1    1    0    0    0 -0.45425734785E+01 -0.20579893288E+02 -0.15799586431E+02  0.26339967975E+02  0.00000000000E+00 0. -1.
</event>
<event>
 5    1  0.8863861E-005  0.9118800E+02  0.7818608E-02  0.1130116E+00
         25   -1    0    0    0    0  0.00000000000E+00  0.00000000000E+00  0.99999998245E-14  0.12500000000E+03  0.12500000000E+03 0.  0.
        -11    1    3    3    0    0  0.32344303401E+02  0.18400752321E+02  0.41165046737E+02  0.55491465304E+02  0.51100000000E-03 0.  1.
         23    2    1    0    0    0  0.18579676597E+01  0.24753224394E+02  0.16896671915E+02  0.94972151533E+02  0.90100154735E+02 0.  0.
         11    1    3    3    0    0 -0.30486335741E+02  0.63524720732E+01 -0.24268374822E+02  0.39480686229E+02  0.51100000000E-03 0. -1.
         22    1    1    0    0    0 -0.18579676597E+01 -0.24753224394E+02 -0.16896671915E+02  0.30027848467E+02  0.00000000000E+00 0.  1.
</event>
<event>
 5    1  0.8863861E-005  0.9118800E+02  0.7818608E-02  0.1130116E+00
         25   -1    0    0    0    0  0.00000000000E+00  0.00000000000E+00  0.99999998245E-14  0.12500000000E+03  0.12500000000E+03 0.  0.
        -11    1    3    3    0    0  0.53596726742E+01  0.48926323641E+02  0.11332884716E+02  0.50506885793E+02  0.51100000000E-03 0.  1.
         23    2    1    0    0    0  0.14842106171E+02  0.15943414765E+02 -0.18837426017E+02  0.96201923521E+02  0.91790418237E+02 0.  0.
         11    1    3    3    0    0  0.94824334969E+01 -0.32982908876E+02 -0.30170310733E+02  0.45695037728E+02  0.51100000000E-03 0. -1.
         22    1    1    0    0    0 -0.14842106171E+02 -0.15943414765E+02  0.18837426017E+02  0.28798076479E+02  0.00000000000E+00 0. -1.
</event>
<event>
 5    1  0.8863861E-005  0.9118800E+02  0.7818608E-02  0.1130116E+00
         25   -1    0    0    0    0  0.00000000000E+00  0.00000000000E+00  0.99999998245E-14  0.12500000000E+03  0.12500000000E+03 0.  0.
        -11    1    3    3    0    0 -0.40941758899E+02  0.39892077301E+02  0.24692121395E+02  0.62268019982E+02  0.51100000000E-03 0.  1.
         23    2    1    0    0    0 -0.16809244808E+02  0.21475297894E+02  0.12842020141E+02  0.94856068405E+02  0.89938963199E+02 0.  0.
         11    1    3    3    0    0  0.24132514091E+02 -0.18416779407E+02 -0.11850101254E+02  0.32588048424E+02  0.51100000000E-03 0. -1.
         22    1    1    0    0    0  0.16809244808E+02 -0.21475297894E+02 -0.12842020141E+02  0.30143931595E+02  0.00000000000E+00 0.  1.
</event>
<event>
 5    1  0.8863861E-005  0.9118800E+02  0.7818608E-02  0.1130116E+00
         25   -1    0    0    0    0  0.00000000000E+00  0.00000000000E+00  0.99999998245E-14  0.12500000000E+03  0.12500000000E+03 0.  0.
        -11    1    3    3    0    0  0.13476913246E+02  0.10133391722E+02  0.29460790166E+02  0.33944822520E+02  0.51100000000E-03 0. -1.
         23    2    1    0    0    0 -0.31189370083E+02 -0.64714038071E+01 -0.50051425048E+01  0.92755507061E+02  0.86970551138E+02 0.  0.
         11    1    3    3    0    0 -0.44666283330E+02 -0.16604795529E+02 -0.34465932671E+02  0.58810684541E+02  0.51100000000E-03 0.  1.
         22    1    1    0    0    0  0.31189370083E+02  0.64714038071E+01  0.50051425048E+01  0.32244492939E+02  0.00000000000E+00 0.  1.
</event>
<event>
 5    1  0.8863861E-005  0.9118800E+02  0.7818608E-02  0.1130116E+00
         25   -1    0    0    0    0  0.00000000000E+00  0.00000000000E+00  0.99999998245E-14  0.12500000000E+03  0.12500000000E+03 0.  0.
        -11    1    3    3    0    0  0.46627806610E+02  0.10416348859E+01 -0.45827289244E+01  0.46864045463E+02  0.51100000000E-03 0.  1.
         23    2    1    0    0    0  0.52725551587E+01  0.24981760657E+02 -0.14457913350E+02  0.95658570896E+02  0.91047475111E+02 0.  0.
         11    1    3    3    0    0 -0.41355251451E+02  0.23940125771E+02 -0.98751844253E+01  0.48794525433E+02  0.51100000000E-03 0. -1.
         22    1    1    0    0    0 -0.52725551587E+01 -0.24981760657E+02  0.14457913350E+02  0.29341429104E+02  0.00000000000E+00 0.  1.
</event>
<event>
 5    1  0.8863861E-005  0.9118800E+02  0.7818608E-02  0.1130116E+00
         25   -1    0    0    0    0  0.00000000000E+00  0.00000000000E+00  0.99999998245E-14  0.12500000000E+03  0.12500000000E+03 0.  0.
        -11    1    3    3    0    0  0.65056383254E+01 -0.16485118100E+02  0.56933338747E+02  0.59627908818E+02  0.51100000000E-03 0.  1.
         23    2    1    0    0    0  0.16230999390E+02 -0.63694721496E+01  0.24876693345E+02  0.94621300416E+02  0.89612081239E+02 0.  0.
         11    1    3    3    0    0  0.97253610642E+01  0.10115645950E+02 -0.32056645403E+02  0.34993391598E+02  0.51100000000E-03 0. -1.
         22    1    1    0    0    0 -0.16230999390E+02  0.63694721496E+01 -0.24876693345E+02  0.30378699584E+02  0.00000000000E+00 0.  1.
</event>
<event>
 5    1  0.8863861E-005  0.9118800E+02  0.7818608E-02  0.1130116E+00
         25   -1    0    0    0    0  0.00000000000E+00  0.00000000000E+00  0.99999998245E-14  0.12500000000E+03  0.12500000000E+03 0.  0.
        -11    1    3    3    0    0  0.11120138590E+02  0.20208784355E+02  0.28189014960E+02  0.36423522784E+02  0.51100000000E-03 0.  1.
         23    2    1    0    0    0 -0.21631515759E+01 -0.24528146930E+02 -0.11628390517E+02  0.97768975734E+02  0.93900180689E+02 0.  0.
         11    1    3    3    0    0 -0.13283290166E+02 -0.44736931285E+02 -0.39817405476E+02  0.61345452949E+02  0.51100000000E-03 0. -1.
         22    1    1    0    0    0  0.21631515759E+01  0.24528146930E+02  0.11628390517E+02  0.27231024266E+02  0.00000000000E+00 0. -1.
</event>
<event>
 5    1  0.8863861E-005  0.9118800E+02  0.7818608E-02  0.1130116E+00
         25   -1    0    0    0    0  0.00000000000E+00  0.00000000000E+00  0.99999998245E-14  0.12500000000E+03  0.12500000000E+03 0.  0.
        -11    1    3    3    0    0  0.23305759752E+02 -0.26816941014E+02 -0.33174197644E+02  0.48608992507E+02  0.51100000000E-03 0.  1.
         23    2    1    0    0    0  0.26838421987E+02  0.51624617422E+01  0.35574059329E+01  0.97439030442E+02  0.93459925158E+02 0.  0.
         11    1    3    3    0    0  0.35326622352E+01  0.31979402756E+02  0.36731603577E+02  0.48830037935E+02  0.51100000000E-03 0. -1.
         22    1    1    0    0    0 -0.26838421987E+02 -0.51624617422E+01 -0.35574059329E+01  0.27560969558E+02  0.00000000000E+00 0. -1.
</event>
<event>
 5    1  0.8863861E-005  0.9118800E+02  0.7818608E-02  0.1130116E+00
         25   -1    0    0    0    0  0.00000000000E+00  0.00000000000E+00  0.99999998245E-14  0.12500000000E+03  0.12500000000E+03 0.  0.
        -11    1    3    3    0    0  0.18362429232E+02 -0.45759510001E+02  0.92484071650E+01  0.50166169857E+02  0.51100000000E-03 0. -1.
         23    2    1    0    0    0 -0.19410767328E+02 -0.20050624103E+02  0.83629823198E+01  0.95866773463E+02  0.91332871222E+02 0.  0.
         11    1    3    3    0    0 -0.37773196560E+02  0.25708885898E+02 -0.88542484516E+00  0.45700603605E+02  0.51100000000E-03 0.  1.
         22    1    1    0    0    0  0.19410767328E+02  0.20050624103E+02 -0.83629823198E+01  0.29133226537E+02  0.00000000000E+00 0.  1.
</event>
<event>
 5    1  0.8863861E-005  0.9118800E+02  0.7818608E-02  0.1130116E+00
         25   -1    0    0    0    0  0.00000000000E+00  0.00000000000E+00  0.99999998245E-14  0.12500000000E+03  0.12500000000E+03 0.  0.
        -11    1    3    3    0    0  0.39803959689E+02 -0.31387462379E+02  0.33235982307E+02  0.60614837471E+02  0.51100000000E-03 0.  1.
         23    2    1    0    0    0  0.24352190266E+02 -0.11680168439E+02  0.65546427667E+01  0.97207575721E+02  0.93149846646E+02 0.  0.
         11    1    3    3    0    0 -0.15451769423E+02  0.19707293939E+02 -0.26681339540E+02  0.36592738250E+02  0.51100000000E-03 0. -1.
         22    1    1    0    0    0 -0.24352190266E+02  0.11680168439E+02 -0.65546427667E+01  0.27792424279E+02  0.00000000000E+00 0.  1.
</event>
<event>
 5    1  0.8863861E-005  0.9118800E+02  0.7818608E-02  0.1130116E+00
         25   -1    0    0    0    0  0.00000000000E+00  0.00000000000E+00  0.99999998245E-14  0.12500000000E+03  0.12500000000E+03 0.  0.
        -11    1    3    3    0    0  0.26779604032E+02 -0.35661969258E+02  0.22399711632E+02  0.49906616044E+02  0.51100000000E-03 0.  1.
         23    2    1    0    0    0  0.21929086071E+02  0.98001059670E+01  0.16159946259E+02  0.96050548261E+02  0.91584043727E+02 0.  0.
         11    1    3    3    0    0 -0.48505179615E+01  0.45462075226E+02 -0.62397653730E+01  0.46143932217E+02  0.51100000000E-03 0. -1.
         22    1    1    0    0    0 -0.21929086071E+02 -0.98001059670E+01 -0.16159946259E+02  0.28949451739E+02  0.00000000000E+00 0.  1.
</event>
<event>
 5    1  0.8863861E-005  0.9118800E+02  0.7818608E-02  0.1130116E+00
         25   -1    0    0    0    0  0.00000000000E+00  0.00000000000E+00  0.99999998245E-14  0.12500000000E+03  0.12500000000E+03 0.  0.
        -11    1    3    3    0    0 -0.22356752507E+02 -0.17542141692E+02  0.44503795119E+02  0.52802830398E+02  0.51100000000E-03 0.  1.
         23    2    1    0    0    0 -0.27585879688E+02 -0.90254352968E+00  0.37326907090E+01  0.97148100192E+02  0.93070000795E+02 0.  0.
         11    1    3    3    0    0 -0.52291271810E+01  0.16639598162E+02 -0.40771104410E+02  0.44345269794E+02  0.51100000000E-03 0. -1.
         22    1    1    0    0    0  0.27585879688E+02  0.90254352968E+00 -0.37326907090E+01  0.27851899808E+02  0.00000000000E+00 0.  1.
</event>
<event>
 5    1  0.8863861E-005  0.9118800E+02  0.7818608E-02  0.1130116E+00
         25   -1    0    0    0    0  0.00000000000E+00  0.00000000000E+00  0.99999998245E-14  0.12500000000E+03  0.12500000000E+03 0.  0.
        -11    1    3    3    0    0 -0.46578150304E+02  0.28372768408E+02  0.59536209176E+00  0.54542575380E+02  0.51100000000E-03 0. -1.
         23    2    1    0    0    0 -0.25645684330E+02 -0.25440142905E+01  0.15704591466E+02  0.94820415400E+02  0.89889397874E+02 0.  0.
         11    1    3    3    0    0  0.20932465973E+02 -0.30916782698E+02  0.15109229374E+02  0.40277840020E+02  0.51100000000E-03 0.  1.
         22    1    1    0    0    0  0.25645684330E+02  0.25440142905E+01 -0.15704591466E+02  0.30179584600E+02  0.00000000000E+00 0. -1.
</event>
<event>
 5    1  0.8863861E-005  0.9118800E+02  0.7818608E-02  0.1130116E+00
         25   -1    0    0    0    0  0.00000000000E+00  0.00000000000E+00  0.99999998245E-14  0.12500000000E+03  0.12500000000E+03 0.  0.
        -11    1    3    3    0    0 -0.27045459903E+02 -0.38300046914E+02  0.30431388610E+02  0.55896510696E+02  0.51100000000E-03 0.  1.
         23    2    1    0    0    0 -0.13739109900E+01 -0.74167777803E+01  0.27858289855E+02  0.96138597787E+02  0.91704140837E+02 0.  0.
         11    1    3    3    0    0  0.25671548913E+02  0.30883269134E+02 -0.25730987542E+01  0.40242087091E+02  0.51100000000E-03 0. -1.
         22    1    1    0    0    0  0.13739109900E+01  0.74167777803E+01 -0.27858289855E+02  0.28861402213E+02  0.00000000000E+00 0.  1.
</event>
<event>
 5    1  0.8863861E-005  0.9118800E+02  0.7818608E-02  0.1130116E+00
         25   -1    0    0    0    0  0.00000000000E+00  0.00000000000E+00  0.99999998245E-14  0.12500000000E+03  0.12500000000E+03 0.  0.
        -11    1    3    3    0    0  0.58277102419E+02  0.10844128315E+02  0.79966014730E+01  0.59814391418E+02  0.51100000000E-03 0.  1.
         23    2    1    0    0    0  0.27964664689E+02 -0.77845358286E+01  0.52676223709E+01  0.95497977787E+02  0.90826727601E+02 0.  0.
         11    1    3    3    0    0 -0.30312437731E+02 -0.18628664144E+02 -0.27289791021E+01  0.35683586369E+02  0.51100000000E-03 0. -1.
         22    1    1    0    0    0 -0.27964664689E+02  0.77845358286E+01 -0.52676223709E+01  0.29502022213E+02  0.00000000000E+00 0.  1.
</event>
<event>
 5    1  0.8863861E-005  0.9118800E+02  0.7818608E-02  0.1130116E+00
         25   -1    0    0    0    0  0.00000000000E+00  0.00000000000E+00  0.99999998245E-14  0.12500000000E+03  0.12500000000E+03 0.  0.
        -11    1    3    3    0    0 -0.18861578122E+02  0.60720565876E+01  0.32021100933E+02  0.37656073954E+02  0.51100000000E-03 0. -1.
         23    2    1    0    0    0  0.28981855119E+02  0.49351662369E+01 -0.63658048939E+00  0.95594064772E+02  0.90958870887E+02 0.  0.
         11    1    3    3    0    0  0.47843433240E+02 -0.11368903507E+01 -0.32657681422E+02  0.57937990818E+02  0.51100000000E-03 0.  1.
         22    1    1    0    0    0 -0.28981855119E+02 -0.49351662369E+01  0.63658048939E+00  0.29405935228E+02  0.00000000000E+00 0.  1.
</event>
<event>
 5    1  0.8863861E-005  0.9118800E+02  0.7818608E-02  0.1130116E+00
         25   -1    0    0    0    0  0.00000000000E+00  0.00000000000E+00  0.99999998245E-14  0.12500000000E+03  0.12500000000E+03 0.  0.
        -11    1    3    3    0    0 -0.70830369438E+01  0.26400588693E+02  0.30334320427E+02  0.40832970645E+02  0.51100000000E-03 0. -1.
         23    2    1    0    0    0 -0.11692838002E+02 -0.24599434114E+02  0.89013429440E+01  0.96345357697E+02  0.91985539213E+02 0.  0.
         11    1    3    3    0    0 -0.46098010577E+01 -0.51000022808E+02 -0.21432977483E+02  0.55512387052E+02  0.51100000000E-03 0.  1.
         22    1    1    0    0    0  0.11692838002E+02  0.24599434114E+02 -0.89013429440E+01  0.28654642303E+02  0.00000000000E+00 0.  1.
</event>
<event>
 5    1  0.8863861E-005  0.9118800E+02  0.7818608E-02  0.1130116E+00
         25   -1    0    0    0    0  0.00000000000E+00  0.00000000000E+00  0.99999998245E-14  0.12500000000E+03  0.12500000000E+03 0.  0.
        -11    1    3    3    0    0 -0.54628738586E+02  0.65728321671E+01  0.12214625452E+02  0.56362206109E+02  0.51100000000E-03 0.  1.
         23    2    1    0    0    0 -0.26577584847E+02 -0.12981804767E+02 -0.55646332139E+01  0.94902484918E+02  0.90003451209E+02 0.  0.
         11    1    3    3    0    0  0.28051153739E+02 -0.19554636934E+02 -0.17779258666E+02  0.38540278809E+02  0.51100000000E-03 0. -1.
         22    1    1    0    0    0  0.26577584847E+02  0.12981804767E+02  0.55646332139E+01  0.30097515082E+02  0.00000000000E+00 0.  1.
</event>
<event>
 5    1  0.8863861E-005  0.9118800E+02  0.7818608E-02  0.1130116E+00
         25   -1    0    0    0    0  0.00000000000E+00  0.00000000000E+00  0.99999998245E-14  0.12500000000E+03  0.12500000000E+03 0.  0.
        -11    1    3    3    0    0 -0.10465278053E+02 -0.31990715892E+02 -0.13446794744E+00  0.33659263657E+02  0.51100000000E-03 0.  1.
         23    2    1    0    0    0  0.16540337566E+02  0.13901169455E+02  0.24503535564E+02  0.92331229987E+02  0.86358598279E+02 0.  0.
         11    1    3    3    0    0  0.27005615619E+02  0.45891885348E+02  0.24638003512E+02  0.58671966330E+02  0.51100000000E-03 0. -1.
         22    1    1    0    0    0 -0.16540337566E+02 -0.13901169455E+02 -0.24503535564E+02  0.32668770013E+02  0.00000000000E+00 0. -1.
</event>
<event>
 5    1  0.8863861E-005  0.9118800E+02  0.7818608E-02  0.1130116E+00
         25   -1    0    0    0    0  0.00000000000E+00  0.00000000000E+00  0.99999998245E-14  0.12500000000E+03  0.12500000000E+03 0.  0.
        -11    1    3    3    0    0 -0.28023768728E+02 -0.53698900976E+02  0.81816691358E+01  0.61121545218E+02  0.51100000000E-03 0. -1.
         23    2    1    0    0    0 -0.11669734162E+02 -0.25694886978E+02 -0.53772055999E+01  0.96271542814E+02  0.91885176735E+02 0.  0.
         11    1    3    3    0    0  0.16354034566E+02  0.28004013998E+02 -0.13558874736E+02  0.35149997596E+02  0.51100000000E-03 0.  1.
         22    1    1    0    0    0  0.11669734162E+02  0.25694886978E+02  0.53772055999E+01  0.28728457186E+02  0.00000000000E+00 0. -1.
</event>
<event>
 5    1  0.8863861E-005  0.9118800E+02  0.7818608E-02  0.1130116E+00
         25   -1    0    0    0    0  0.00000000000E+00  0.00000000000E+00  0.99999998245E-14  0.12500000000E+03  0.12500000000E+03 0.  0.
        -11    1    3    3    0    0  0.81543645328E+01 -0.57998139011E+02  0.21434771781E+02  0.62367677777E+02  0.51100000000E-03 0. -1.
         23    2    1    0    0    0  0.65981869377E+00 -0.24201415689E+02  0.79767697185E+01  0.99509359812E+02  0.96189084376E+02 0.  0.
         11    1    3    3    0    0 -0.74945458391E+01  0.33796723322E+02 -0.13458002062E+02  0.37141682036E+02  0.51100000000E-03 0.  1.
         22    1    1    0    0    0 -0.65981869377E+00  0.24201415689E+02 -0.79767697185E+01  0.25490640188E+02  0.00000000000E+00 0. -1.
</event>
<event>
 5    1  0.8863861E-005  0.9118800E+02  0.7818608E-02  0.1130116E+00
         25   -1    0    0    0    0  0.00000000000E+00  0.00000000000E+00  0.99999998245E-14  0.12500000000E+03  0.12500000000E+03 0.  0.
        -11    1    3    3    0    0  0.37630722428E+02 -0.24814975826E+02  0.26410019500E+02  0.52243118455E+02  0.51100000000E-03 0. -1.
         23    2    1    0    0    0  0.22675137598E+02 -0.12784630693E+02 -0.12869672434E+02  0.95961454658E+02  0.91462362010E+02 0.  0.
         11    1    3    3    0    0 -0.14955584830E+02  0.12030345133E+02 -0.39279691934E+02  0.43718336202E+02  0.51100000000E-03 0.  1.
         22    1    1    0    0    0 -0.22675137598E+02  0.12784630693E+02  0.12869672434E+02  0.29038545342E+02  0.00000000000E+00 0. -1.
</event>
<event>
 5    1  0.8863861E-005  0.9118800E+02  0.7818608E-02  0.1130116E+00
         25   -1    0    0    0    0  0.00000000000E+00  0.00000000000E+00  0.99999998245E-14  0.12500000000E+03  0.12500000000E+03 0.  0.
        -11    1    3    3    0    0  0.17949177463E+02  0.33950073843E+02  0.48004289792E+02  0.61475135821E+02  0.51100000000E-03 0. -1.
         23    2    1    0    0    0  0.20382788382E+01  0.17479286155E+02  0.28242303390E+02  0.91723766350E+02  0.85474800892E+02 0.  0.
         11    1    3    3    0    0 -0.15910898625E+02 -0.16470787688E+02 -0.19761986401E+02  0.30248630529E+02  0.51100000000E-03 0.  1.
         22    1    1    0    0    0 -0.20382788382E+01 -0.17479286155E+02 -0.28242303390E+02  0.33276233650E+02  0.00000000000E+00 0. -1.
</event>
<event>
 5    1  0.8863861E-005  0.9118800E+02  0.7818608E-02  0.1130116E+00
         25   -1    0    0    0    0  0.00000000000E+00  0.00000000000E+00  0.99999998245E-14  0.12500000000E+03  0.12500000000E+03 0.  0.
        -11    1    3    3    0    0 -0.36071869394E+02  0.71537938854E+01  0.36679899873E+02  0.51940076853E+02  0.51100000000E-03 0. -1.
         23    2    1    0    0    0 -0.26343986489E+02 -0.13459910710E+02 -0.34016917759E+00  0.95414690546E+02  0.90712031376E+02 0.  0.
         11    1    3    3    0    0  0.97278829047E+01 -0.20613704595E+02 -0.37020069051E+02  0.43474613693E+02  0.51100000000E-03 0.  1.
         22    1    1    0    0    0  0.26343986489E+02  0.13459910710E+02  0.34016917759E+00  0.29585309454E+02  0.00000000000E+00 0. -1.
</event>
<event>
 5    1  0.8863861E-005  0.9118800E+02  0.7818608E-02  0.1130116E+00
         25   -1    0    0    0    0  0.00000000000E+00  0.00000000000E+00  0.99999998245E-14  0.12500000000E+03  0.12500000000E+03 0.  0.
        -11    1    3    3    0    0 -0.30375563159E+02  0.66210662980E+01  0.28830414698E+02  0.42399365185E+02  0.51100000000E-03 0. -1.
         23    2    1    0    0    0 -0.12610748517E+02  0.14715366275E+02 -0.21303748529E+02  0.96200300624E+02  0.91788208153E+02 0.  0.
         11    1    3    3    0    0  0.17764814642E+02  0.80942999765E+01 -0.50134163227E+02  0.53800935439E+02  0.51100000000E-03 0.  1.
         22    1    1    0    0    0  0.12610748517E+02 -0.14715366275E+02  0.21303748529E+02  0.28799699376E+02  0.00000000000E+00 0. -1.
</event>
<event>
 5    1  0.8863861E-005  0.9118800E+02  0.7818608E-02  0.1130116E+00
         25   -1    0    0    0    0  0.00000000000E+00  0.00000000000E+00  0.99999998245E-14  0.12500000000E+03  0.12500000000E+03 0.  0.
        -11    1    3    3    0    0 -0.54495251793E+02 -0.26799179465E+02 -0.13761126651E+01  0.60743906479E+02  0.51100000000E-03 0.  1.
         23    2    1    0    0    0 -0.22057093948E+02 -0.19048411026E+02 -0.80684229421E+01  0.94760013148E+02  0.89805363354E+02 0.  0.
         11    1    3    3    0    0  0.32438157846E+02  0.77507684391E+01 -0.66923102770E+01  0.34016106669E+02  0.51100000000E-03 0. -1.
         22    1    1    0    0    0  0.22057093948E+02  0.19048411026E+02  0.80684229421E+01  0.30239986852E+02  0.00000000000E+00 0.  1.
</event>
<event>
 5    1  0.8863861E-005  0.9118800E+02  0.7818608E-02  0.1130116E+00
         25   -1    0    0    0    0  0.00000000000E+00  0.00000000000E+00  0.99999998245E-14  0.12500000000E+03  0.12500000000E+03 0.  0.
        -11    1    3    3    0    0 -0.32135749664E+02 -0.46668637947E+02 -0.79373847205E+01  0.57215996459E+02  0.51100000000E-03 0.  1.
         23    2    1    0    0    0 -0.13325699053E+02 -0.23321675988E+02  0.14324443258E+02  0.94558835423E+02  0.89524906343E+02 0.  0.
         11    1    3    3    0    0  0.18810050611E+02  0.23346961959E+02  0.22261827979E+02  0.37342838964E+02  0.51100000000E-03 0. -1.
         22    1    1    0    0    0  0.13325699053E+02  0.23321675988E+02 -0.14324443258E+02  0.30441164577E+02  0.00000000000E+00 0.  1.
</event>
<event>
 5    1  0.8863861E-005  0.9118800E+02  0.7818608E-02  0.1130116E+00
         25   -1    0    0    0    0  0.00000000000E+00  0.00000000000E+00  0.99999998245E-14  0.12500000000E+03  0.12500000000E+03 0.  0.
        -11    1    3    3    0    0 -0.23071039634E+02 -0.25016188263E+02 -0.15535430459E+02  0.37408984814E+02  0.51100000000E-03 0. -1.
         23    2    1    0    0    0  0.46949209999E+01  0.24698726226E+02 -0.17470250773E+02  0.94384986976E+02  0.89281838826E+02 0.  0.
         11    1    3    3    0    0  0.27765960634E+02  0.49714914488E+02 -0.19348203139E+01  0.56976002162E+02  0.51100000000E-03 0.  1.
         22    1    1    0    0    0 -0.46949209999E+01 -0.24698726226E+02  0.17470250773E+02  0.30615013024E+02  0.00000000000E+00 0.  1.
</event>
<event>
 5    1  0.8863861E-005  0.9118800E+02  0.7818608E-02  0.1130116E+00
         25   -1    0    0    0    0  0.00000000000E+00  0.00000000000E+00  0.99999998245E-14  0.12500000000E+03  0.12500000000E+03 0.  0.
        -11    1    3    3    0    0 -0.39231053043E+02 -0.36814123203E+01 -0.11660497155E+02  0.41092523818E+02  0.51100000000E-03 0. -1.
         23    2    1    0    0    0  0.55251908678E+00  0.28726927563E+02  0.65310364553E+01  0.95534832739E+02  0.90877434959E+02 0.  0.
         11    1    3    3    0    0  0.39783572130E+02  0.32408339883E+02  0.18191533610E+02  0.54442308922E+02  0.51100000000E-03 0.  1.
         22    1    1    0    0    0 -0.55251908678E+00 -0.28726927563E+02 -0.65310364553E+01  0.29465167261E+02  0.00000000000E+00 0.  1.
</event>
<event>
 5    1  0.8863861E-005  0.9118800E+02  0.7818608E-02  0.1130116E+00
         25   -1    0    0    0    0  0.00000000000E+00  0.00000000000E+00  0.99999998245E-14  0.12500000000E+03  0.12500000000E+03 0.  0.
        -11    1    3    3    0    0 -0.30805403293E+01  0.71703579759E+01 -0.39644609803E+02  0.40405430934E+02  0.51100000000E-03 0.  1.
         23    2    1    0    0    0  0.28277175178E+02  0.94222521750E+01  0.47640876663E+01  0.94815997559E+02  0.89883254223E+02 0.  0.
         11    1    3    3    0    0  0.31357715507E+02  0.22518941992E+01  0.44408697469E+02  0.54410566625E+02  0.51100000000E-03 0. -1.
         22    1    1    0    0    0 -0.28277175178E+02 -0.94222521750E+01 -0.47640876663E+01  0.30184002441E+02  0.00000000000E+00 0. -1.
</event>
<event>
 5    1  0.8863861E-005  0.9118800E+02  0.7818608E-02  0.1130116E+00
         25   -1    0    0    0    0  0.00000000000E+00  0.00000000000E+00  0.99999998245E-14  0.12500000000E+03  0.12500000000E+03 0.  0.
        -11    1    3    3    0    0  0.34413343336E+01 -0.53171437213E+02  0.23635170712E+02  0.58289500016E+02  0.51100000000E-03 0.  1.
         23    2    1    0    0    0 -0.80285985162E+00 -0.29396418257E+02 -0.43697114872E+01  0.95269739847E+02  0.90512070806E+02 0.  0.
         11    1    3    3    0    0 -0.42441941852E+01  0.23775018956E+02 -0.28004882199E+02  0.36980239830E+02  0.51100000000E-03 0. -1.
         22    1    1    0    0    0  0.80285985162E+00  0.29396418257E+02  0.43697114872E+01  0.29730260153E+02  0.00000000000E+00 0.  1.
</event>
<event>
 5    1  0.8863861E-005  0.9118800E+02  0.7818608E-02  0.1130116E+00
         25   -1    0    0    0    0  0.00000000000E+00  0.00000000000E+00  0.99999998245E-14  0.12500000000E+03  0.12500000000E+03 0.  0.
        -11    1    3    3    0    0  0.20120183340E+02  0.25125121529E+02 -0.30077171865E+02  0.44053714680E+02  0.51100000000E-03 0.  1.
         23    2    1    0    0    0 -0.22072679025E+02  0.19067205104E+02 -0.69669399205E+00  0.95823865021E+02  0.91274126976E+02 0.  0.
         11    1    3    3    0    0 -0.42192862365E+02 -0.60579164246E+01  0.29380477873E+02  0.51770150340E+02  0.51100000000E-03 0. -1.
         22    1    1    0    0    0  0.22072679025E+02 -0.19067205104E+02  0.69669399205E+00  0.29176134979E+02  0.00000000000E+00 0. -1.
</event>
<event>
 5    1  0.8863861E-005  0.9118800E+02  0.7818608E-02  0.1130116E+00
         25   -1    0    0    0    0  0.00000000000E+00  0.00000000000E+00  0.99999998245E-14  0.12500000000E+03  0.12500000000E+03 0.  0.
        -11    1    3    3    0    0 -0.19623628465E+02  0.10474215809E+02 -0.17431493493E+02  0.28260448627E+02  0.51100000000E-03 0.  1.
         23    2    1    0    0    0  0.20257356153E+02 -0.31301917937E+02 -0.45187147288E+01  0.87442186863E+02  0.78965478000E+02 0.  0.
         11    1    3    3    0    0  0.39880984618E+02 -0.41776133746E+02  0.12912778764E+02  0.59181738235E+02  0.51100000000E-03 0. -1.
         22    1    1    0    0    0 -0.20257356153E+02  0.31301917937E+02  0.45187147288E+01  0.37557813137E+02  0.00000000000E+00 0. -1.
</event>
<event>
 5    1  0.8863861E-005  0.9118800E+02  0.7818608E-02  0.1130116E+00
         25   -1    0    0    0    0  0.00000000000E+00  0.00000000000E+00  0.99999998245E-14  0.12500000000E+03  0.12500000000E+03 0.  0.
        -11    1    3    3    0    0 -0.15942085469E+02 -0.25577998815E+02  0.30342387680E+02  0.42767331024E+02  0.51100000000E-03 0.  1.
         23    2    1    0    0    0  0.86844757593E+01  0.21190770451E+02  0.14284401170E+02  0.98009020242E+02  0.94219186265E+02 0.  0.
         11    1    3    3    0    0  0.24626561228E+02  0.46768769267E+02 -0.16057986510E+02  0.55241689218E+02  0.51100000000E-03 0. -1.
         22    1    1    0    0    0 -0.86844757593E+01 -0.21190770451E+02 -0.14284401170E+02  0.26990979758E+02  0.00000000000E+00 0. -1.
</event>
<event>
 5    1  0.8863861E-005  0.9118800E+02  0.7818608E-02  0.1130116E+00
         25   -1    0    0    0    0  0.00000000000E+00  0.00000000000E+00  0.99999998245E-14  0.12500000000E+03  0.12500000000E+03 0.  0.
        -11    1    3    3    0    0 -0.33247864801E+02  0.26641591898E+02 -0.32014971576E+02  0.53293089026E+02  0.51100000000E-03 0.  1.
         23    2    1    0    0    0 -0.27572952890E+01  0.32612520634E+02 -0.12603240706E+02  0.89928346836E+02  0.82807528093E+02 0.  0.
         11    1    3    3    0    0  0.30490569512E+02  0.59709287355E+01  0.19411730870E+02  0.36635257809E+02  0.51100000000E-03 0. -1.
         22    1    1    0    0    0  0.27572952890E+01 -0.32612520634E+02  0.12603240706E+02  0.35071653164E+02  0.00000000000E+00 0. -1.
</event>
<event>
 5    1  0.8863861E-005  0.9118800E+02  0.7818608E-02  0.1130116E+00
         25   -1    0    0    0    0  0.00000000000E+00  0.00000000000E+00  0.99999998245E-14  0.12500000000E+03  0.12500000000E+03 0.  0.
        -11    1    3    3    0    0 -0.35658002736E+02 -0.88652785160E+01 -0.29423794411E+02  0.47072773448E+02  0.51100000000E-03 0.  1.
         23    2    1    0    0    0 -0.95391770466E+01 -0.26519962547E+02  0.77069419815E+01  0.95781833272E+02  0.91216546295E+02 0.  0.
         11    1    3    3    0    0  0.26118825690E+02 -0.17654684031E+02  0.37130736392E+02  0.48709059824E+02  0.51100000000E-03 0. -1.
         22    1    1    0    0    0  0.95391770466E+01  0.26519962547E+02 -0.77069419815E+01  0.29218166728E+02  0.00000000000E+00 0.  1.
</event>
<event>
 5    1  0.8863861E-005  0.9118800E+02  0.7818608E-02  0.1130116E+00
         25   -1    0    0    0    0  0.00000000000E+00  0.00000000000E+00  0.99999998245E-14  0.12500000000E+03  0.12500000000E+03 0.  0.
        -11    1    3    3    0    0  0.89679363432E+01  0.46276675216E+02 -0.21852453576E+02  0.51956561461E+02  0.51100000000E-03 0.  1.
         23    2    1    0    0    0 -0.11882485373E+02  0.26352557090E+02  0.95149542778E+01  0.94566711010E+02  0.89535902031E+02 0.  0.
         11    1    3    3    0    0 -0.20850421716E+02 -0.19924118126E+02  0.31367407854E+02  0.42610149549E+02  0.51100000000E-03 0. -1.
         22    1    1    0    0    0  0.11882485373E+02 -0.26352557090E+02 -0.95149542778E+01  0.30433288990E+02  0.00000000000E+00 0.  1.
</event>
<event>
 5    1  0.8863861E-005  0.9118800E+02  0.7818608E-02  0.1130116E+00
         25   -1    0    0    0    0  0.00000000000E+00  0.00000000000E+00  0.99999998245E-14  0.12500000000E+03  0.12500000000E+03 0.  0.
        -11    1    3    3    0    0 -0.36740037134E+02 -0.68993477409E+01 -0.88154695387E+01  0.38407601218E+02  0.51100000000E-03 0. -1.
         23    2    1    0    0    0 -0.45396265449E+01  0.28716900676E+02  0.15309356276E+02  0.92142048403E+02  0.86084331331E+02 0.  0.
         11    1    3    3    0    0  0.32200410589E+02  0.35616248416E+02  0.24124825815E+02  0.53734447185E+02  0.51100000000E-03 0.  1.
         22    1    1    0    0    0  0.45396265449E+01 -0.28716900676E+02 -0.15309356276E+02  0.32857951597E+02  0.00000000000E+00 0.  1.
</event>
<event>
 5    1  0.8863861E-005  0.9118800E+02  0.7818608E-02  0.1130116E+00
         25   -1    0    0    0    0  0.00000000000E+00  0.00000000000E+00  0.99999998245E-14  0.12500000000E+03  0.12500000000E+03 0.  0.
        -11    1    3    3    0    0  0.10164884295E+02  0.50408103951E+02  0.33959727708E+02  0.61624385781E+02  0.51100000000E-03 0. -1.
         23    2    1    0    0    0 -0.16533123298E+01  0.21027929311E+02  0.18846918373E+02  0.96713720908E+02  0.92484756727E+02 0.  0.
         11    1    3    3    0    0 -0.11818196625E+02 -0.29380174640E+02 -0.15112809335E+02  0.35089335127E+02  0.51100000000E-03 0.  1.
         22    1    1    0    0    0  0.16533123298E+01 -0.21027929311E+02 -0.18846918373E+02  0.28286279092E+02  0.00000000000E+00 0. -1.
</event>
<event>
 5    1  0.8863861E-005  0.9118800E+02  0.7818608E-02  0.1130116E+00
         25   -1    0    0    0    0  0.00000000000E+00  0.00000000000E+00  0.99999998245E-14  0.12500000000E+03  0.12500000000E+03 0.  0.
        -11    1    3    3    0    0  0.26731057707E+02  0.20672342320E+02  0.10056952593E+02  0.35256736645E+02  0.51100000000E-03 0.  1.
         23    2    1    0    0    0 -0.29374439905E+02  0.23452768558E+01 -0.18704800574E+01  0.95472779695E+02  0.90792042183E+02 0.  0.
         11    1    3    3    0    0 -0.56105497612E+02 -0.18327065464E+02 -0.11927432651E+02  0.60216043051E+02  0.51100000000E-03 0. -1.
         22    1    1    0    0    0  0.29374439905E+02 -0.23452768558E+01  0.18704800574E+01  0.29527220305E+02  0.00000000000E+00 0. -1.
</event>
<event>
 5    1  0.8863861E-005  0.9118800E+02  0.7818608E-02  0.1130116E+00
         25   -1    0    0    0    0  0.00000000000E+00  0.00000000000E+00  0.99999998245E-14  0.12500000000E+03  0.12500000000E+03 0.  0.
        -11    1    3    3    0    0 -0.15779865269E+02  0.46730191959E+02 -0.33220624293E+02  0.59467006542E+02  0.51100000000E-03 0.  1.
         23    2    1    0    0    0 -0.19280181314E+02  0.14762558046E+02 -0.15620107097E+02  0.96127067048E+02  0.91688422180E+02 0.  0.
         11    1    3    3    0    0 -0.35003160448E+01 -0.31967633913E+02  0.17600517196E+02  0.36660060505E+02  0.51100000000E-03 0. -1.
         22    1    1    0    0    0  0.19280181314E+02 -0.14762558046E+02  0.15620107097E+02  0.28872932952E+02  0.00000000000E+00 0.  1.
</event>
<event>
 5    1  0.8863861E-005  0.9118800E+02  0.7818608E-02  0.1130116E+00
         25   -1    0    0    0    0  0.00000000000E+00  0.00000000000E+00  0.99999998245E-14  0.12500000000E+03  0.12500000000E+03 0.  0.
        -11    1    3    3    0    0  0.46619432656E+02 -0.42120915190E+00  0.63522330812E+01  0.47052096485E+02  0.51100000000E-03 0.  1.
         23    2    1    0    0    0  0.12166737063E+02  0.15709045067E+02  0.27881047822E+02  0.90763230069E+02  0.84058357807E+02 0.  0.
         11    1    3    3    0    0 -0.34452695593E+02  0.16130254219E+02  0.21528814740E+02  0.43711133584E+02  0.51100000000E-03 0. -1.
         22    1    1    0    0    0 -0.12166737063E+02 -0.15709045067E+02 -0.27881047822E+02  0.34236769931E+02  0.00000000000E+00 0.  1.
</event>
<event>
 5    1  0.8863861E-005  0.9118800E+02  0.7818608E-02  0.1130116E+00
         25   -1    0    0    0    0  0.00000000000E+00  0.00000000000E+00  0.99999998245E-14  0.12500000000E+03  0.12500000000E+03 0.  0.
        -11    1    3    3    0    0 -0.12283277342E+02  0.26245702969E+02 -0.19188020110E+02  0.34754797404E+02  0.51100000000E-03 0.  1.
         23    2    1    0    0    0  0.30629124129E+02 -0.49995825830E+01  0.58059258630E+01  0.93427102666E+02  0.87930516128E+02 0.  0.
         11    1    3    3    0    0  0.42912401471E+02 -0.31245285552E+02  0.24993945973E+02  0.58672305262E+02  0.51100000000E-03 0. -1.
         22    1    1    0    0    0 -0.30629124129E+02  0.49995825830E+01 -0.58059258630E+01  0.31572897334E+02  0.00000000000E+00 0. -1.
</event>
<event>
 5    1  0.8863861E-005  0.9118800E+02  0.7818608E-02  0.1130116E+00
         25   -1    0    0    0    0  0.00000000000E+00  0.00000000000E+00  0.99999998245E-14  0.12500000000E+03  0.12500000000E+03 0.  0.
        -11    1    3    3    0    0  0.31283299239E+02 -0.91951306098E+01 -0.42199159841E+02  0.53328832068E+02  0.51100000000E-03 0.  1.
         23    2    1    0    0    0  0.51562804044E+01 -0.25913382803E+02 -0.14796585899E+02  0.94717503567E+02  0.89746174803E+02 0.  0.
         11    1    3    3    0    0 -0.26127018835E+02 -0.16718252194E+02  0.27402573941E+02  0.41388671499E+02  0.51100000000E-03 0. -1.
         22    1    1    0    0    0 -0.51562804044E+01  0.25913382803E+02  0.14796585899E+02  0.30282496433E+02  0.00000000000E+00 0.  1.
</event>
<event>
 5    1  0.8863861E-005  0.9118800E+02  0.7818608E-02  0.1130116E+00
         25   -1    0    0    0    0  0.00000000000E+00  0.00000000000E+00  0.99999998245E-14  0.12500000000E+03  0.12500000000E+03 0.  0.
        -11    1    3    3    0    0 -0.75147085337E+01  0.23694377140E+01  0.51754040166E+02  0.52350413114E+02  0.51100000000E-03 0.  1.
         23    2    1    0    0    0  0.16301188307E+02  0.15867284036E+02  0.16946551875E+02  0.96633028654E+02  0.92375630788E+02 0.  0.
         11    1    3    3    0    0  0.23815896841E+02  0.13497846322E+02 -0.34807488291E+02  0.44282615540E+02  0.51100000000E-03 0. -1.
         22    1    1    0    0    0 -0.16301188307E+02 -0.15867284036E+02 -0.16946551875E+02  0.28366971346E+02  0.00000000000E+00 0.  1.
</event>
<event>
 5    1  0.8863861E-005  0.9118800E+02  0.7818608E-02  0.1130116E+00
         25   -1    0    0    0    0  0.00000000000E+00  0.00000000000E+00  0.99999998245E-14  0.12500000000E+03  0.12500000000E+03 0.  0.
        -11    1    3    3    0    0 -0.21781525186E+02  0.15691590312E+02  0.22519595439E+02  0.35039877639E+02  0.51100000000E-03 0.  1.
         23    2    1    0    0    0  0.70260859494E+01 -0.25659090972E+02 -0.11680829880E+02  0.95944938136E+02  0.91439786384E+02 0.  0.
         11    1    3    3    0    0  0.28807611135E+02 -0.41350681283E+02 -0.34200425319E+02  0.60905060497E+02  0.51100000000E-03 0. -1.
         22    1    1    0    0    0 -0.70260859494E+01  0.25659090972E+02  0.11680829880E+02  0.29055061864E+02  0.00000000000E+00 0. -1.
</event>
<event>
 5    1  0.8863861E-005  0.9118800E+02  0.7818608E-02  0.1130116E+00
         25   -1    0    0    0    0  0.00000000000E+00  0.00000000000E+00  0.99999998245E-14  0.12500000000E+03  0.12500000000E+03 0.  0.
        -11    1    3    3    0    0 -0.17152465445E+02 -0.53243501565E+01 -0.53816114570E+02  0.56733852003E+02  0.51100000000E-03 0. -1.
         23    2    1    0    0    0 -0.21998162660E+02  0.84316408518E+01 -0.18169461181E+02  0.95248679904E+02  0.90482981692E+02 0.  0.
         11    1    3    3    0    0 -0.48456972154E+01  0.13755991008E+02  0.35646653389E+02  0.38514827901E+02  0.51100000000E-03 0.  1.
         22    1    1    0    0    0  0.21998162660E+02 -0.84316408518E+01  0.18169461181E+02  0.29751320096E+02  0.00000000000E+00 0. -1.
</event>
<event>
 5    1  0.8863861E-005  0.9118800E+02  0.7818608E-02  0.1130116E+00
         25   -1    0    0    0    0  0.00000000000E+00  0.00000000000E+00  0.99999998245E-14  0.12500000000E+03  0.12500000000E+03 0.  0.
        -11    1    3    3    0    0  0.19414121136E+02  0.39010886346E+02  0.39032741980E+02  0.58500532474E+02  0.51100000000E-03 0. -1.
         23    2    1    0    0    0  0.20284381893E+02  0.68617101734E+01  0.18864494569E+02  0.96462158970E+02  0.92144124840E+02 0.  0.
         11    1    3    3    0    0  0.87026075776E+00 -0.32149176172E+02 -0.20168247411E+02  0.37961626497E+02  0.51100000000E-03 0.  1.
         22    1    1    0    0    0 -0.20284381893E+02 -0.68617101734E+01 -0.18864494569E+02  0.28537841030E+02  0.00000000000E+00 0. -1.
</event>
<event>
 5    1  0.8863861E-005  0.9118800E+02  0.7818608E-02  0.1130116E+00
         25   -1    0    0    0    0  0.00000000000E+00  0.00000000000E+00  0.99999998245E-14  0.12500000000E+03  0.12500000000E+03 0.  0.
        -11    1    3    3    0    0 -0.39417564488E+02 -0.34583183311E+02  0.19617253349E+02  0.55987298447E+02  0.51100000000E-03 0.  1.
         23    2    1    0    0    0 -0.43011715136E+01 -0.14590120993E+02  0.23950062843E+02  0.96627879579E+02  0.92368662948E+02 0.  0.
         11    1    3    3    0    0  0.35116392975E+02  0.19993062318E+02  0.43328094941E+01  0.40640581132E+02  0.51100000000E-03 0. -1.
         22    1    1    0    0    0  0.43011715136E+01  0.14590120993E+02 -0.23950062843E+02  0.28372120421E+02  0.00000000000E+00 0.  1.
</event>
<event>
 5    1  0.8863861E-005  0.9118800E+02  0.7818608E-02  0.1130116E+00
         25   -1    0    0    0    0  0.00000000000E+00  0.00000000000E+00  0.99999998245E-14  0.12500000000E+03  0.12500000000E+03 0.  0.
        -11    1    3    3    0    0 -0.40560029645E+02 -0.18310828039E+02  0.53239543775E+01  0.44819046384E+02  0.51100000000E-03 0. -1.
         23    2    1    0    0    0  0.17366452517E+01 -0.20227973468E+02 -0.21884963402E+02  0.95148057510E+02  0.90343867403E+02 0.  0.
         11    1    3    3    0    0  0.42296674897E+02 -0.19171454295E+01 -0.27208917779E+02  0.50329011126E+02  0.51100000000E-03 0.  1.
         22    1    1    0    0    0 -0.17366452517E+01  0.20227973468E+02  0.21884963402E+02  0.29851942490E+02  0.00000000000E+00 0.  1.
</event>
<event>
 5    1  0.8863861E-005  0.9118800E+02  0.7818608E-02  0.1130116E+00
         25   -1    0    0    0    0  0.00000000000E+00  0.00000000000E+00  0.99999998245E-14  0.12500000000E+03  0.12500000000E+03 0.  0.
        -11    1    3    3    0    0  0.21251788080E+02 -0.43531978955E+01 -0.25107641895E+02  0.33181056497E+02  0.51100000000E-03 0.  1.
         23    2    1    0    0    0 -0.22655632790E+02  0.54059671726E+00  0.18864522751E+02  0.95513729287E+02  0.90848402967E+02 0.  0.
         11    1    3    3    0    0 -0.43907420870E+02  0.48937946127E+01  0.43972164646E+02  0.62332672789E+02  0.51100000000E-03 0. -1.
         22    1    1    0    0    0  0.22655632790E+02 -0.54059671726E+00 -0.18864522751E+02  0.29486270713E+02  0.00000000000E+00 0. -1.
</event>
<event>
 5    1  0.8863861E-005  0.9118800E+02  0.7818608E-02  0.1130116E+00
         25   -1    0    0    0    0  0.00000000000E+00  0.00000000000E+00  0.99999998245E-14  0.12500000000E+03  0.12500000000E+03 0.  0.
        -11    1    3    3    0    0 -0.24109944055E+02  0.37109715070E+02  0.13624505654E+02  0.46303860633E+02  0.51100000000E-03 0.  1.
         23    2    1    0    0    0 -0.14928612599E+02  0.10835435262E+02 -0.25012193647E+02  0.93921390596E+02  0.88630399125E+02 0.  0.
         11    1    3    3    0    0  0.91813314558E+01 -0.26274279808E+02 -0.38636699301E+02  0.47617529964E+02  0.51100000000E-03 0. -1.
         22    1    1    0    0    0  0.14928612599E+02 -0.10835435262E+02  0.25012193647E+02  0.31078609404E+02  0.00000000000E+00 0. -1.
</event>
<event>
 5    1  0.8863861E-005  0.9118800E+02  0.7818608E-02  0.1130116E+00
         25   -1    0    0    0    0  0.00000000000E+00  0.00000000000E+00  0.99999998245E-14  0.12500000000E+03  0.12500000000E+03 0.  0.
        -11    1    3    3    0    0  0.14242315389E+02 -0.14079655434E+02 -0.28351347692E+02  0.34711369333E+02  0.51100000000E-03 0. -1.
         23    2    1    0    0    0  0.54576206904E+01  0.10443750150E+02  0.26810241868E+02  0.95714395860E+02  0.91124085537E+02 0.  0.
         11    1    3    3    0    0 -0.87846946986E+01  0.24523405584E+02  0.55161589560E+02  0.61003026527E+02  0.51100000000E-03 0.  1.
         22    1    1    0    0    0 -0.54576206904E+01 -0.10443750150E+02 -0.26810241868E+02  0.29285604140E+02  0.00000000000E+00 0.  1.
</event>
<event>
 5    1  0.8863861E-005  0.9118800E+02  0.7818608E-02  0.1130116E+00
         25   -1    0    0    0    0  0.00000000000E+00  0.00000000000E+00  0.99999998245E-14  0.12500000000E+03  0.12500000000E+03 0.  0.
        -11    1    3    3    0    0 -0.50225683981E+01  0.47101933663E+02  0.25021770502E+01  0.47435000140E+02  0.51100000000E-03 0.  1.
         23    2    1    0    0    0  0.20144049142E+02  0.99891444396E+01  0.19348771552E+02  0.95336205855E+02  0.90603815945E+02 0.  0.
         11    1    3    3    0    0  0.25166617541E+02 -0.37112789223E+02  0.16846594502E+02  0.47901205715E+02  0.51100000000E-03 0. -1.
         22    1    1    0    0    0 -0.20144049142E+02 -0.99891444396E+01 -0.19348771552E+02  0.29663794145E+02  0.00000000000E+00 0.  1.
</event>
<event>
 5    1  0.8863861E-005  0.9118800E+02  0.7818608E-02  0.1130116E+00
         25   -1    0    0    0    0  0.00000000000E+00  0.00000000000E+00  0.99999998245E-14  0.12500000000E+03  0.12500000000E+03 0.  0.
        -11    1    3    3    0    0  0.35789172517E+02 -0.98521518301E+01  0.11148740270E+02  0.38758536802E+02  0.51100000000E-03 0. -1.
         23    2    1    0    0    0 -0.17596398064E+02 -0.90246235710E+01 -0.16825541368E+02  0.99035102585E+02  0.95570788667E+02 0.  0.
         11    1    3    3    0    0 -0.53385570581E+02  0.82752825911E+00 -0.27974281637E+02  0.60276565784E+02  0.51100000000E-03 0.  1.
         22    1    1    0    0    0  0.17596398064E+02  0.90246235710E+01  0.16825541368E+02  0.25964897415E+02  0.00000000000E+00 0.  1.
</event>
<event>
 5    1  0.8863861E-005  0.9118800E+02  0.7818608E-02  0.1130116E+00
         25   -1    0    0    0    0  0.00000000000E+00  0.00000000000E+00  0.99999998245E-14  0.12500000000E+03  0.12500000000E+03 0.  0.
        -11    1    3    3    0    0  0.23761086659E+02 -0.26044167076E+02  0.80685047604E+01  0.36166125687E+02  0.51100000000E-03 0. -1.
         23    2    1    0    0    0 -0.26995305323E+02  0.47228374177E+01  0.10705219047E+02  0.95578011325E+02  0.90936806801E+02 0.  0.
         11    1    3    3    0    0 -0.50756391982E+02  0.30767004494E+02  0.26367142870E+01  0.59411885638E+02  0.51100000000E-03 0.  1.
         22    1    1    0    0    0  0.26995305323E+02 -0.47228374177E+01 -0.10705219047E+02  0.29421988675E+02  0.00000000000E+00 0.  1.
</event>
<event>
 5    1  0.8863861E-005  0.9118800E+02  0.7818608E-02  0.1130116E+00
         25   -1    0    0    0    0  0.00000000000E+00  0.00000000000E+00  0.99999998245E-14  0.12500000000E+03  0.12500000000E+03 0.  0.
        -11    1    3    3    0    0  0.86670960635E+01  0.31264857387E+02  0.70296372492E+01  0.33196771857E+02  0.51100000000E-03 0. -1.
         23    2    1    0    0    0 -0.22688566488E+02 -0.17513832519E+02 -0.11565342543E+02  0.94092678425E+02  0.88871646808E+02 0.  0.
         11    1    3    3    0    0 -0.31355662551E+02 -0.48778689906E+02 -0.18594979792E+02  0.60895906568E+02  0.51100000000E-03 0.  1.
         22    1    1    0    0    0  0.22688566488E+02  0.17513832519E+02  0.11565342543E+02  0.30907321575E+02  0.00000000000E+00 0.  1.
</event>
<event>
 5    1  0.8863861E-005  0.9118800E+02  0.7818608E-02  0.1130116E+00
         25   -1    0    0    0    0  0.00000000000E+00  0.00000000000E+00  0.99999998245E-14  0.12500000000E+03  0.12500000000E+03 0.  0.
        -11    1    3    3    0    0  0.92153701047E+01 -0.53079812420E+02 -0.12091506949E+02  0.55214074956E+02  0.51100000000E-03 0.  1.
         23    2    1    0    0    0 -0.38896082833E+01 -0.16107277885E+02 -0.23663442284E+02  0.96111733278E+02  0.91667515072E+02 0.  0.
         11    1    3    3    0    0 -0.13104978388E+02  0.36972534535E+02 -0.11571935336E+02  0.40897658321E+02  0.51100000000E-03 0. -1.
         22    1    1    0    0    0  0.38896082833E+01  0.16107277885E+02  0.23663442284E+02  0.28888266722E+02  0.00000000000E+00 0.  1.
</event>
<event>
 5    1  0.8863861E-005  0.9118800E+02  0.7818608E-02  0.1130116E+00
         25   -1    0    0    0    0  0.00000000000E+00  0.00000000000E+00  0.99999998245E-14  0.12500000000E+03  0.12500000000E+03 0.  0.
        -11    1    3    3    0    0  0.10498674379E+02 -0.18108246697E+02 -0.44142360457E+02  0.48853646221E+02  0.51100000000E-03 0. -1.
         23    2    1    0    0    0 -0.34712025148E+01 -0.27416306480E+02  0.13373072519E+01  0.97332482970E+02  0.93317312126E+02 0.  0.
         11    1    3    3    0    0 -0.13969876894E+02 -0.93080597837E+01  0.45479667709E+02  0.48478836749E+02  0.51100000000E-03 0.  1.
         22    1    1    0    0    0  0.34712025148E+01  0.27416306480E+02 -0.13373072519E+01  0.27667517030E+02  0.00000000000E+00 0.  1.
</event>
<event>
 5    1  0.8863861E-005  0.9118800E+02  0.7818608E-02  0.1130116E+00
         25   -1    0    0    0    0  0.00000000000E+00  0.00000000000E+00  0.99999998245E-14  0.12500000000E+03  0.12500000000E+03 0.  0.
        -11    1    3    3    0    0 -0.20511915737E+02  0.41265546748E+01  0.29230244007E+02  0.35946826086E+02  0.51100000000E-03 0.  1.
         23    2    1    0    0    0  0.27279621397E+02 -0.12014661120E+02 -0.17433291615E+01  0.95140846932E+02  0.90333890279E+02 0.  0.
         11    1    3    3    0    0  0.47791537133E+02 -0.16141215794E+02 -0.30973573168E+02  0.59194020846E+02  0.51100000000E-03 0. -1.
         22    1    1    0    0    0 -0.27279621397E+02  0.12014661120E+02  0.17433291615E+01  0.29859153068E+02  0.00000000000E+00 0. -1.
</event>
<event>
 5    1  0.8863861E-005  0.9118800E+02  0.7818608E-02  0.1130116E+00
         25   -1    0    0    0    0  0.00000000000E+00  0.00000000000E+00  0.99999998245E-14  0.12500000000E+03  0.12500000000E+03 0.  0.
        -11    1    3    3    0    0 -0.45577259457E+02  0.86191297344E+01 -0.18952006350E+02  0.50107429808E+02  0.51100000000E-03 0.  1.
         23    2    1    0    0    0 -0.18338829985E+02  0.16388081067E+02  0.16424080846E+02  0.95425816699E+02  0.90727361776E+02 0.  0.
         11    1    3    3    0    0  0.27238429472E+02  0.77689513323E+01  0.35376087196E+02  0.45318386892E+02  0.51100000000E-03 0. -1.
         22    1    1    0    0    0  0.18338829985E+02 -0.16388081067E+02 -0.16424080846E+02  0.29574183301E+02  0.00000000000E+00 0.  1.
</event>
<event>
 5    1  0.8863861E-005  0.9118800E+02  0.7818608E-02  0.1130116E+00
         25   -1    0    0    0    0  0.00000000000E+00  0.00000000000E+00  0.99999998245E-14  0.12500000000E+03  0.12500000000E+03 0.  0.
        -11    1    3    3    0    0  0.96539585252E+01 -0.16888654622E+02 -0.20404493833E+02  0.28191646617E+02  0.51100000000E-03 0.  1.
         23    2    1    0    0    0 -0.12294148050E+02  0.15045455197E+02  0.28450466157E+02  0.90547992469E+02  0.83737674420E+02 0.  0.
         11    1    3    3    0    0 -0.21948106575E+02  0.31934109819E+02  0.48854959990E+02  0.62356345852E+02  0.51100000000E-03 0. -1.
         22    1    1    0    0    0  0.12294148050E+02 -0.15045455197E+02 -0.28450466157E+02  0.34452007531E+02  0.00000000000E+00 0. -1.
</event>
<event>
 5    1  0.8863861E-005  0.9118800E+02  0.7818608E-02  0.1130116E+00
         25   -1    0    0    0    0  0.00000000000E+00  0.00000000000E+00  0.99999998245E-14  0.12500000000E+03  0.12500000000E+03 0.  0.
        -11    1    3    3    0    0 -0.27376055100E+02  0.12791734802E+02 -0.28998179764E+02  0.41880440565E+02  0.51100000000E-03 0. -1.
         23    2    1    0    0    0 -0.16727089096E+02 -0.63082379646E+01  0.21576100037E+02  0.96980052308E+02  0.92844025532E+02 0.  0.
         11    1    3    3    0    0  0.10648966003E+02 -0.19099972767E+02  0.50574279801E+02  0.55099611743E+02  0.51100000000E-03 0.  1.
         22    1    1    0    0    0  0.16727089096E+02  0.63082379646E+01 -0.21576100037E+02  0.28019947692E+02  0.00000000000E+00 0.  1.
</event>
<event>
 5    1  0.8863861E-005  0.9118800E+02  0.7818608E-02  0.1130116E+00
         25   -1    0    0    0    0  0.00000000000E+00  0.00000000000E+00  0.99999998245E-14  0.12500000000E+03  0.12500000000E+03 0.  0.
        -11    1    3    3    0    0 -0.22849235976E+02 -0.48315404104E+02 -0.14042872991E+02  0.55260004891E+02  0.51100000000E-03 0. -1.
         23    2    1    0    0    0  0.73758785233E+01 -0.25362201912E+02  0.56078895685E+01  0.97998272366E+02  0.94204926047E+02 0.  0.
         11    1    3    3    0    0  0.30225114500E+02  0.22953202192E+02  0.19650762559E+02  0.42738267476E+02  0.51100000000E-03 0.  1.
         22    1    1    0    0    0 -0.73758785233E+01  0.25362201912E+02 -0.56078895685E+01  0.27001727634E+02  0.00000000000E+00 0. -1.
</event>
<event>
 5    1  0.8863861E-005  0.9118800E+02  0.7818608E-02  0.1130116E+00
         25   -1    0    0    0    0  0.00000000000E+00  0.00000000000E+00  0.99999998245E-14  0.12500000000E+03  0.12500000000E+03 0.  0.
        -11    1    3    3    0    0 -0.53305721124E+02  0.30767471119E+02  0.19518078919E+01  0.61578784804E+02  0.51100000000E-03 0.  1.
         23    2    1    0    0    0 -0.21628748021E+02  0.16948315241E+02  0.73449322787E+01  0.96557142186E+02  0.92272886301E+02 0.  0.
         11    1    3    3    0    0  0.31676973103E+02 -0.13819155879E+02  0.53931243869E+01  0.34978357381E+02  0.51100000000E-03 0. -1.
         22    1    1    0    0    0  0.21628748021E+02 -0.16948315241E+02 -0.73449322787E+01  0.28442857814E+02  0.00000000000E+00 0.  1.
</event>
<event>
 5    1  0.8863861E-005  0.9118800E+02  0.7818608E-02  0.1130116E+00
         25   -1    0    0    0    0  0.00000000000E+00  0.00000000000E+00  0.99999998245E-14  0.12500000000E+03  0.12500000000E+03 0.  0.
        -11    1    3    3    0    0  0.19149295489E+02  0.95509670102E+01  0.22372372480E+02  0.30958674701E+02  0.51100000000E-03 0. -1.
         23    2    1    0    0    0  0.33013928243E+02  0.35904254439E+02 -0.10282945738E+02  0.75152493363E+02  0.56241651297E+02 0.  0.
         11    1    3    3    0    0  0.13864632754E+02  0.26353287429E+02 -0.32655318218E+02  0.44193818662E+02  0.51100000000E-03 0.  1.
         22    1    1    0    0    0 -0.33013928243E+02 -0.35904254439E+02  0.10282945738E+02  0.49847506637E+02  0.00000000000E+00 0.  1.
</event>
<event>
 5    1  0.8863861E-005  0.9118800E+02  0.7818608E-02  0.1130116E+00
         25   -1    0    0    0    0  0.00000000000E+00  0.00000000000E+00  0.99999998245E-14  0.12500000000E+03  0.12500000000E+03 0.  0.
        -11    1    3    3    0    0 -0.18152726883E+01 -0.12956528995E+02  0.40827409814E+02  0.42872418300E+02  0.51100000000E-03 0.  1.
         23    2    1    0    0    0 -0.21314111663E+02 -0.26336700683E+02 -0.12018187499E+01  0.91097824153E+02  0.84554456052E+02 0.  0.
         11    1    3    3    0    0 -0.19498838975E+02 -0.13380171687E+02 -0.42029228564E+02  0.48225405853E+02  0.51100000000E-03 0. -1.
         22    1    1    0    0    0  0.21314111663E+02  0.26336700683E+02  0.12018187499E+01  0.33902175847E+02  0.00000000000E+00 0. -1.
</event>
<event>
 5    1  0.8863861E-005  0.9118800E+02  0.7818608E-02  0.1130116E+00
         25   -1    0    0    0    0  0.00000000000E+00  0.00000000000E+00  0.99999998245E-14  0.12500000000E+03  0.12500000000E+03 0.  0.
        -11    1    3    3    0    0 -0.98924486314E+01 -0.11964667926E+02 -0.54704060723E+02  0.56864295286E+02  0.51100000000E-03 0. -1.
         23    2    1    0    0    0  0.11257611842E+02 -0.15418222753E+02 -0.23412539309E+02  0.94790689942E+02  0.89848052208E+02 0.  0.
         11    1    3    3    0    0  0.21150060474E+02 -0.34535548271E+01  0.31291521414E+02  0.37926394657E+02  0.51100000000E-03 0.  1.
         22    1    1    0    0    0 -0.11257611842E+02  0.15418222753E+02  0.23412539309E+02  0.30209310058E+02  0.00000000000E+00 0. -1.
</event>
<event>
 5    1  0.8863861E-005  0.9118800E+02  0.7818608E-02  0.1130116E+00
         25   -1    0    0    0    0  0.00000000000E+00  0.00000000000E+00  0.99999998245E-14  0.12500000000E+03  0.12500000000E+03 0.  0.
        -11    1    3    3    0    0 -0.11892224663E+02  0.20707355433E+02  0.28586280982E+02  0.37247752108E+02  0.51100000000E-03 0.  1.
         23    2    1    0    0    0  0.25923602729E+02  0.43980901267E+01 -0.12906907317E+02  0.95708966701E+02  0.91116637752E+02 0.  0.
         11    1    3    3    0    0  0.37815827392E+02 -0.16309265307E+02 -0.41493188299E+02  0.58461214593E+02  0.51100000000E-03 0. -1.
         22    1    1    0    0    0 -0.25923602729E+02 -0.43980901267E+01  0.12906907317E+02  0.29291033299E+02  0.00000000000E+00 0. -1.
</event>
<event>
 5    1  0.8863861E-005  0.9118800E+02  0.7818608E-02  0.1130116E+00
         25   -1    0    0    0    0  0.00000000000E+00  0.00000000000E+00  0.99999998245E-14  0.12500000000E+03  0.12500000000E+03 0.  0.
        -11    1    3    3    0    0 -0.45416753156E+02 -0.14886903424E+01 -0.11661204627E+01  0.45456105238E+02  0.51100000000E-03 0.  1.
         23    2    1    0    0    0 -0.50508540770E+01 -0.27522245908E+02  0.10881546722E+02  0.94976788883E+02  0.90106588110E+02 0.  0.
         11    1    3    3    0    0  0.40365899079E+02 -0.26033555565E+02  0.12047667185E+02  0.49520683645E+02  0.51100000000E-03 0. -1.
         22    1    1    0    0    0  0.50508540770E+01  0.27522245908E+02 -0.10881546722E+02  0.30023211117E+02  0.00000000000E+00 0.  1.
</event>
<event>
 5    1  0.8863861E-005  0.9118800E+02  0.7818608E-02  0.1130116E+00
         25   -1    0    0    0    0  0.00000000000E+00  0.00000000000E+00  0.99999998245E-14  0.12500000000E+03  0.12500000000E+03 0.  0.
        -11    1    3    3    0    0 -0.32112791590E+00  0.26639306008E+02 -0.21264225920E+02  0.34086992416E+02  0.51100000000E-03 0. -1.
         23    2    1    0    0    0  0.14896338274E+02 -0.16825658600E+02  0.19239666001E+02  0.95416754250E+02  0.90714875089E+02 0.  0.
         11    1    3    3    0    0  0.15217466190E+02 -0.43464964608E+02  0.40503891921E+02  0.61329761834E+02  0.51100000000E-03 0.  1.
         22    1    1    0    0    0 -0.14896338274E+02  0.16825658600E+02 -0.19239666001E+02  0.29583245750E+02  0.00000000000E+00 0.  1.
</event>
<event>
 5    1  0.8863861E-005  0.9118800E+02  0.7818608E-02  0.1130116E+00
         25   -1    0    0    0    0  0.00000000000E+00  0.00000000000E+00  0.99999998245E-14  0.12500000000E+03  0.12500000000E+03 0.  0.
        -11    1    3    3    0    0  0.48004334069E+02 -0.25733210101E+02  0.26572389435E+02  0.60602855313E+02  0.51100000000E-03 0. -1.
         23    2    1    0    0    0  0.21679423254E+02 -0.36806192503E+01  0.18193806217E+01  0.10293522045E+03  0.10054255374E+03 0.  0.
         11    1    3    3    0    0 -0.26324910815E+02  0.22052590851E+02 -0.24753008814E+02  0.42332365139E+02  0.51100000000E-03 0.  1.
         22    1    1    0    0    0 -0.21679423254E+02  0.36806192503E+01 -0.18193806217E+01  0.22064779549E+02  0.00000000000E+00 0. -1.
</event>
<event>
 5    1  0.8863861E-005  0.9118800E+02  0.7818608E-02  0.1130116E+00
         25   -1    0    0    0    0  0.00000000000E+00  0.00000000000E+00  0.99999998245E-14  0.12500000000E+03  0.12500000000E+03 0.  0.
        -11    1    3    3    0    0  0.25666600927E+01 -0.60517126678E+02 -0.39866852441E+01  0.60702586641E+02  0.51100000000E-03 0.  1.
         23    2    1    0    0    0 -0.90629658262E+01 -0.27163298931E+02  0.83000366560E+00  0.96352642976E+02  0.91995438712E+02 0.  0.
         11    1    3    3    0    0 -0.11629625919E+02  0.33353827747E+02  0.48166889097E+01  0.35650056335E+02  0.51100000000E-03 0. -1.
         22    1    1    0    0    0  0.90629658262E+01  0.27163298931E+02 -0.83000366560E+00  0.28647357024E+02  0.00000000000E+00 0.  1.
</event>
<event>
 5    1  0.8863861E-005  0.9118800E+02  0.7818608E-02  0.1130116E+00
         25   -1    0    0    0    0  0.00000000000E+00  0.00000000000E+00  0.99999998245E-14  0.12500000000E+03  0.12500000000E+03 0.  0.
        -11    1    3    3    0    0  0.17024481622E+02  0.27196412292E+02  0.50365689125E+02  0.59717505452E+02  0.51100000000E-03 0.  1.
         23    2    1    0    0    0  0.14392937264E+02  0.20165776394E+02  0.14641907892E+02  0.96221524582E+02  0.91817107042E+02 0.  0.
         11    1    3    3    0    0 -0.26315443578E+01 -0.70306358978E+01 -0.35723781233E+02  0.36504019130E+02  0.51100000000E-03 0. -1.
         22    1    1    0    0    0 -0.14392937264E+02 -0.20165776394E+02 -0.14641907892E+02  0.28778475418E+02  0.00000000000E+00 0.  1.
</event>
<event>
 5    1  0.8863861E-005  0.9118800E+02  0.7818608E-02  0.1130116E+00
         25   -1    0    0    0    0  0.00000000000E+00  0.00000000000E+00  0.99999998245E-14  0.12500000000E+03  0.12500000000E+03 0.  0.
        -11    1    3    3    0    0  0.75095172218E+01 -0.20835470737E+01  0.56784253170E+02  0.57316537105E+02  0.51100000000E-03 0. -1.
         23    2    1    0    0    0 -0.13822466608E+02 -0.60700361920E+01  0.24740238422E+02  0.96017499768E+02  0.91538925830E+02 0.  0.
         11    1    3    3    0    0 -0.21331983830E+02 -0.39864891183E+01 -0.32044014748E+02  0.38700962663E+02  0.51100000000E-03 0.  1.
         22    1    1    0    0    0  0.13822466608E+02  0.60700361920E+01 -0.24740238422E+02  0.28982500232E+02  0.00000000000E+00 0. -1.
</event>
<event>
 5    1  0.8863861E-005  0.9118800E+02  0.7818608E-02  0.1130116E+00
         25   -1    0    0    0    0  0.00000000000E+00  0.00000000000E+00  0.99999998245E-14  0.12500000000E+03  0.12500000000E+03 0.  0.
        -11    1    3    3    0    0 -0.34251004519E+02  0.44617506563E+02 -0.26965748330E+02  0.62377919055E+02  0.51100000000E-03 0.  1.
         23    2    1    0    0    0 -0.13959152861E+02  0.22369627491E+02 -0.11428008647E+02  0.96262262366E+02  0.91872550805E+02 0.  0.
         11    1    3    3    0    0  0.20291851658E+02 -0.22247879072E+02  0.15537739682E+02  0.33884343311E+02  0.51100000000E-03 0. -1.
         22    1    1    0    0    0  0.13959152861E+02 -0.22369627491E+02  0.11428008647E+02  0.28737737634E+02  0.00000000000E+00 0.  1.
</event>
<event>
 5    1  0.8863861E-005  0.9118800E+02  0.7818608E-02  0.1130116E+00
         25   -1    0    0    0    0  0.00000000000E+00  0.00000000000E+00  0.99999998245E-14  0.12500000000E+03  0.12500000000E+03 0.  0.
        -11    1    3    3    0    0 -0.18175680901E+02 -0.25339649515E+02 -0.35109224898E+02  0.46958608231E+02  0.51100000000E-03 0.  1.
         23    2    1    0    0    0  0.21011511212E+02 -0.20406353325E+02 -0.87954754732E+01  0.94417926031E+02  0.89327943600E+02 0.  0.
         11    1    3    3    0    0  0.39187192113E+02  0.49332961905E+01  0.26313749425E+02  0.47459317800E+02  0.51100000000E-03 0. -1.
         22    1    1    0    0    0 -0.21011511212E+02  0.20406353325E+02  0.87954754732E+01  0.30582073969E+02  0.00000000000E+00 0.  1.
</event>
<event>
 5    1  0.8863861E-005  0.9118800E+02  0.7818608E-02  0.1130116E+00
         25   -1    0    0    0    0  0.00000000000E+00  0.00000000000E+00  0.99999998245E-14  0.12500000000E+03  0.12500000000E+03 0.  0.
        -11    1    3    3    0    0 -0.19723568313E+02 -0.24594729061E+02 -0.21871753991E+02  0.38370476508E+02  0.51100000000E-03 0. -1.
         23    2    1    0    0    0 -0.65218287997E+01 -0.11306787551E+01  0.28637709208E+02  0.95607295565E+02  0.90977051454E+02 0.  0.
         11    1    3    3    0    0  0.13201739513E+02  0.23464050306E+02  0.50509463198E+02  0.57236819057E+02  0.51100000000E-03 0.  1.
         22    1    1    0    0    0  0.65218287997E+01  0.11306787551E+01 -0.28637709208E+02  0.29392704435E+02  0.00000000000E+00 0.  1.
</event>
<event>
 5    1  0.8863861E-005  0.9118800E+02  0.7818608E-02  0.1130116E+00
         25   -1    0    0    0    0  0.00000000000E+00  0.00000000000E+00  0.99999998245E-14  0.12500000000E+03  0.12500000000E+03 0.  0.
        -11    1    3    3    0    0  0.41265656112E+02  0.28982484324E+02 -0.26933927239E+02  0.57168830745E+02  0.51100000000E-03 0. -1.
         23    2    1    0    0    0  0.27055476603E+02 -0.28154385061E+01 -0.14677834596E+02  0.94091031453E+02  0.88869330274E+02 0.  0.
         11    1    3    3    0    0 -0.14210179509E+02 -0.31797922830E+02  0.12256092643E+02  0.36922200708E+02  0.51100000000E-03 0.  1.
         22    1    1    0    0    0 -0.27055476603E+02  0.28154385061E+01  0.14677834596E+02  0.30908968547E+02  0.00000000000E+00 0. -1.
</event>
<event>
 5    1  0.8863861E-005  0.9118800E+02  0.7818608E-02  0.1130116E+00
         25   -1    0    0    0    0  0.00000000000E+00  0.00000000000E+00  0.99999998245E-14  0.12500000000E+03  0.12500000000E+03 0.  0.
        -11    1    3    3    0    0  0.30359879904E+02 -0.32889804896E+02  0.37739858152E+02  0.58547061989E+02  0.51100000000E-03 0. -1.
         23    2    1    0    0    0  0.24451274192E+02 -0.36388587416E+01  0.14792472510E+02  0.96191609807E+02  0.91776371969E+02 0.  0.
         11    1    3    3    0    0 -0.59086057125E+01  0.29250946155E+02 -0.22947385641E+02  0.37644547818E+02  0.51100000000E-03 0.  1.
         22    1    1    0    0    0 -0.24451274192E+02  0.36388587416E+01 -0.14792472510E+02  0.28808390193E+02  0.00000000000E+00 0. -1.
</event>
<event>
 5    1  0.8863861E-005  0.9118800E+02  0.7818608E-02  0.1130116E+00
         25   -1    0    0    0    0  0.00000000000E+00  0.00000000000E+00  0.99999998245E-14  0.12500000000E+03  0.12500000000E+03 0.  0.
        -11    1    3    3    0    0 -0.27252554604E+02  0.56132522328E+01 -0.51490629497E+02  0.58527730687E+02  0.51100000000E-03 0. -1.
         23    2    1    0    0    0 -0.26936507719E+02  0.38525667386E+01 -0.17320832839E+02  0.92744318814E+02  0.86954469140E+02 0.  0.
         11    1    3    3    0    0  0.31604688489E+00 -0.17606854942E+01  0.34169796659E+02  0.34216588126E+02  0.51100000000E-03 0.  1.
         22    1    1    0    0    0  0.26936507719E+02 -0.38525667386E+01  0.17320832839E+02  0.32255681186E+02  0.00000000000E+00 0. -1.
</event>
<event>
 5    1  0.8863861E-005  0.9118800E+02  0.7818608E-02  0.1130116E+00
         25   -1    0    0    0    0  0.00000000000E+00  0.00000000000E+00  0.99999998245E-14  0.12500000000E+03  0.12500000000E+03 0.  0.
        -11    1    3    3    0    0  0.60055139373E+02  0.40886294016E+01 -0.13442133689E+02  0.61676799640E+02  0.51100000000E-03 0. -1.
         23    2    1    0    0    0  0.28772745529E+02  0.91309554158E+01 -0.70347482325E+01  0.94004308126E+02  0.88747264923E+02 0.  0.
         11    1    3    3    0    0 -0.31282393844E+02  0.50423260142E+01  0.64073854569E+01  0.32327508486E+02  0.51100000000E-03 0.  1.
         22    1    1    0    0    0 -0.28772745529E+02 -0.91309554158E+01  0.70347482325E+01  0.30995691874E+02  0.00000000000E+00 0. -1.
</event>
<event>
 5    1  0.8863861E-005  0.9118800E+02  0.7818608E-02  0.1130116E+00
         25   -1    0    0    0    0  0.00000000000E+00  0.00000000000E+00  0.99999998245E-14  0.12500000000E+03  0.12500000000E+03 0.  0.
        -11    1    3    3    0    0 -0.22164594450E+02  0.12702960315E+00 -0.45998501083E+02  0.51060233898E+02  0.51100000000E-03 0.  1.
         23    2    1    0    0    0 -0.18515762051E+02 -0.25376529125E+02 -0.19458987124E+02  0.88047951956E+02  0.79918633552E+02 0.  0.
         11    1    3    3    0    0  0.36488323982E+01 -0.25503558728E+02  0.26539513958E+02  0.36987718057E+02  0.51100000000E-03 0. -1.
         22    1    1    0    0    0  0.18515762051E+02  0.25376529125E+02  0.19458987124E+02  0.36952048044E+02  0.00000000000E+00 0.  1.
</event>
<event>
 5    1  0.8863861E-005  0.9118800E+02  0.7818608E-02  0.1130116E+00
         25   -1    0    0    0    0  0.00000000000E+00  0.00000000000E+00  0.99999998245E-14  0.12500000000E+03  0.12500000000E+03 0.  0.
        -11    1    3    3    0    0 -0.10448750339E+02  0.33767827797E+02 -0.23827089154E+02  0.42628309321E+02  0.51100000000E-03 0. -1.
         23    2    1    0    0    0  0.99623664661E+01  0.28551440676E+01 -0.40459532090E+02  0.83234292413E+02  0.71997035379E+02 0.  0.
         11    1    3    3    0    0  0.20411116805E+02 -0.30912683729E+02 -0.16632442936E+02  0.40605983092E+02  0.51100000000E-03 0.  1.
         22    1    1    0    0    0 -0.99623664661E+01 -0.28551440676E+01  0.40459532090E+02  0.41765707587E+02  0.00000000000E+00 0. -1.
</event>
<event>
 5    1  0.8863861E-005  0.9118800E+02  0.7818608E-02  0.1130116E+00
         25   -1    0    0    0    0  0.00000000000E+00  0.00000000000E+00  0.99999998245E-14  0.12500000000E+03  0.12500000000E+03 0.  0.
        -11    1    3    3    0    0  0.29385943090E+02 -0.43780377404E+02  0.95569085551E+01  0.53587214878E+02  0.51100000000E-03 0.  1.
         23    2    1    0    0    0  0.16375949114E+02 -0.19067466552E+02 -0.18970767511E+02  0.93509842648E+02  0.88048058820E+02 0.  0.
         11    1    3    3    0    0 -0.13009993976E+02  0.24712910853E+02 -0.28527676066E+02  0.39922627770E+02  0.51100000000E-03 0. -1.
         22    1    1    0    0    0 -0.16375949114E+02  0.19067466552E+02  0.18970767511E+02  0.31490157352E+02  0.00000000000E+00 0.  1.
</event>
<event>
 5    1  0.8863861E-005  0.9118800E+02  0.7818608E-02  0.1130116E+00
         25   -1    0    0    0    0  0.00000000000E+00  0.00000000000E+00  0.99999998245E-14  0.12500000000E+03  0.12500000000E+03 0.  0.
        -11    1    3    3    0    0 -0.58801617657E+02 -0.11095060147E+02  0.50218478358E+01  0.60049559155E+02  0.51100000000E-03 0.  1.
         23    2    1    0    0    0 -0.50032974579E+02 -0.36854179477E+01 -0.40312573737E+01  0.74669771641E+02  0.55158343977E+02 0.  0.
         11    1    3    3    0    0  0.87686430785E+01  0.74096421990E+01 -0.90531052095E+01  0.14620212487E+02  0.51100000000E-03 0. -1.
         22    1    1    0    0    0  0.50032974579E+02  0.36854179477E+01  0.40312573737E+01  0.50330228359E+02  0.00000000000E+00 0.  1.
</event>
<event>
 5    1  0.8863861E-005  0.9118800E+02  0.7818608E-02  0.1130116E+00
         25   -1    0    0    0    0  0.00000000000E+00  0.00000000000E+00  0.99999998245E-14  0.12500000000E+03  0.12500000000E+03 0.  0.
        -11    1    3    3    0    0 -0.15200907721E+02  0.29663416732E+02 -0.30537676264E+02  0.45205481522E+02  0.51100000000E-03 0.  1.
         23    2    1    0    0    0 -0.12234334598E+02 -0.19335957523E+02 -0.18045091044E+02  0.95859246626E+02  0.91322569262E+02 0.  0.
         11    1    3    3    0    0  0.29665731232E+01 -0.48999374255E+02  0.12492585219E+02  0.50653765104E+02  0.51100000000E-03 0. -1.
         22    1    1    0    0    0  0.12234334598E+02  0.19335957523E+02  0.18045091044E+02  0.29140753374E+02  0.00000000000E+00 0. -1.
</event>
<event>
 5    1  0.8863861E-005  0.9118800E+02  0.7818608E-02  0.1130116E+00
         25   -1    0    0    0    0  0.00000000000E+00  0.00000000000E+00  0.99999998245E-14  0.12500000000E+03  0.12500000000E+03 0.  0.
        -11    1    3    3    0    0 -0.96534181472E+01  0.80886900087E+01 -0.34200062352E+02  0.36445296722E+02  0.51100000000E-03 0.  1.
         23    2    1    0    0    0 -0.18346221517E+02 -0.10653081781E+02  0.20856204647E+02  0.95250155165E+02  0.90485019706E+02 0.  0.
         11    1    3    3    0    0 -0.86928033703E+01 -0.18741771790E+02  0.55056267000E+02  0.58804858443E+02  0.51100000000E-03 0. -1.
         22    1    1    0    0    0  0.18346221517E+02  0.10653081781E+02 -0.20856204647E+02  0.29749844835E+02  0.00000000000E+00 0. -1.
</event>
<event>
 5    1  0.8863861E-005  0.9118800E+02  0.7818608E-02  0.1130116E+00
         25   -1    0    0    0    0  0.00000000000E+00  0.00000000000E+00  0.99999998245E-14  0.12500000000E+03  0.12500000000E+03 0.  0.
        -11    1    3    3    0    0  0.39934295035E+02  0.10393451615E+02  0.29371787704E+02  0.50650505127E+02  0.51100000000E-03 0. -1.
         23    2    1    0    0    0  0.26534287487E+02 -0.35829664897E+01 -0.11486962282E+02  0.95864860327E+02  0.91330252828E+02 0.  0.
         11    1    3    3    0    0 -0.13400007548E+02 -0.13976418105E+02 -0.40858749987E+02  0.45214355199E+02  0.51100000000E-03 0.  1.
         22    1    1    0    0    0 -0.26534287487E+02  0.35829664897E+01  0.11486962282E+02  0.29135139673E+02  0.00000000000E+00 0. -1.
</event>
<event>
 5    1  0.8863861E-005  0.9118800E+02  0.7818608E-02  0.1130116E+00
         25   -1    0    0    0    0  0.00000000000E+00  0.00000000000E+00  0.99999998245E-14  0.12500000000E+03  0.12500000000E+03 0.  0.
        -11    1    3    3    0    0 -0.59255208462E+01  0.50297155462E+02  0.32779578731E+02  0.60327576008E+02  0.51100000000E-03 0. -1.
         23    2    1    0    0    0  0.81068466844E+00  0.16826975479E+02  0.24170964047E+02  0.95537484555E+02  0.90881082403E+02 0.  0.
         11    1    3    3    0    0  0.67362055146E+01 -0.33470179983E+02 -0.86086146846E+01  0.35209908547E+02  0.51100000000E-03 0.  1.
         22    1    1    0    0    0 -0.81068466844E+00 -0.16826975479E+02 -0.24170964047E+02  0.29462515445E+02  0.00000000000E+00 0. -1.
</event>
<event>
 5    1  0.8863861E-005  0.9118800E+02  0.7818608E-02  0.1130116E+00
         25   -1    0    0    0    0  0.00000000000E+00  0.00000000000E+00  0.99999998245E-14  0.12500000000E+03  0.12500000000E+03 0.  0.
        -11    1    3    3    0    0  0.34630196325E+02 -0.16018097208E+02 -0.41930725092E+01  0.38385046476E+02  0.51100000000E-03 0.  1.
         23    2    1    0    0    0 -0.43450404943E+01  0.25278832426E+02 -0.13638397534E+02  0.95949963287E+02  0.91446655607E+02 0.  0.
         11    1    3    3    0    0 -0.38975236819E+02  0.41296929635E+02 -0.94453250246E+01  0.57564916811E+02  0.51100000000E-03 0. -1.
         22    1    1    0    0    0  0.43450404943E+01 -0.25278832426E+02  0.13638397534E+02  0.29050036713E+02  0.00000000000E+00 0. -1.
</event>
<event>
 5    1  0.8863861E-005  0.9118800E+02  0.7818608E-02  0.1130116E+00
         25   -1    0    0    0    0  0.00000000000E+00  0.00000000000E+00  0.99999998245E-14  0.12500000000E+03  0.12500000000E+03 0.  0.
        -11    1    3    3    0    0 -0.52973661183E+02  0.19333366192E+02 -0.14114540010E+02  0.58130956189E+02  0.51100000000E-03 0. -1.
         23    2    1    0    0    0 -0.20932781488E+02  0.26635317664E+01  0.10090948423E+02  0.10160976737E+03  0.98880947827E+02 0.  0.
         11    1    3    3    0    0  0.32040879695E+02 -0.16669834425E+02  0.24205488433E+02  0.43478811184E+02  0.51100000000E-03 0.  1.
         22    1    1    0    0    0  0.20932781488E+02 -0.26635317664E+01 -0.10090948423E+02  0.23390232627E+02  0.00000000000E+00 0. -1.
</event>
<event>
 5    1  0.8863861E-005  0.9118800E+02  0.7818608E-02  0.1130116E+00
         25   -1    0    0    0    0  0.00000000000E+00  0.00000000000E+00  0.99999998245E-14  0.12500000000E+03  0.12500000000E+03 0.  0.
        -11    1    3    3    0    0  0.18119794531E+02  0.26883358955E+02  0.11452844667E+02  0.34383274913E+02  0.51100000000E-03 0. -1.
         23    2    1    0    0    0 -0.24239770533E+02 -0.16376316170E+02  0.18183852162E+01  0.95690330408E+02  0.91091067631E+02 0.  0.
         11    1    3    3    0    0 -0.42359565064E+02 -0.43259675125E+02 -0.96344594507E+01  0.61307055495E+02  0.51100000000E-03 0.  1.
         22    1    1    0    0    0  0.24239770533E+02  0.16376316170E+02 -0.18183852162E+01  0.29309669592E+02  0.00000000000E+00 0.  1.
</event>
<event>
 5    1  0.8863861E-005  0.9118800E+02  0.7818608E-02  0.1130116E+00
         25   -1    0    0    0    0  0.00000000000E+00  0.00000000000E+00  0.99999998245E-14  0.12500000000E+03  0.12500000000E+03 0.  0.
        -11    1    3    3    0    0 -0.20040742362E+02 -0.97257401945E+01  0.45085676491E+02  0.50288563329E+02  0.51100000000E-03 0. -1.
         23    2    1    0    0    0 -0.26745754315E+02 -0.14784484739E+02  0.17941843721E+01  0.94387331700E+02  0.89285121521E+02 0.  0.
         11    1    3    3    0    0 -0.67050119539E+01 -0.50587445444E+01 -0.43291492119E+02  0.44098768371E+02  0.51100000000E-03 0.  1.
         22    1    1    0    0    0  0.26745754315E+02  0.14784484739E+02 -0.17941843721E+01  0.30612668300E+02  0.00000000000E+00 0. -1.
</event>
<event>
 4    1  0.8863861E-005  0.9118800E+02  0.7818608E-02  0.1130116E+00
         25   -1    0    0    0    0  0.00000000000E+00  0.00000000000E+00  0.99999998245E-14  0.12500000000E+03  0.12500000000E+03 0.  0.
        -11    1    1    0    0    0  0.70646057405E+01 -0.54723559418E+01 -0.13056711595E+02  0.15821916817E+02  0.51100000000E-03 0. -1.
         11    1    1    0    0    0  0.10075881917E+02  0.54116998291E+02  0.16557581643E+02  0.57483270702E+02  0.51100000000E-03 0.  1.
         22    1    1    0    0    0 -0.17140487658E+02 -0.48644642349E+02 -0.35008700481E+01  0.51694812482E+02  0.00000000000E+00 0.  1.
</event>
<event>
 5    1  0.8863861E-005  0.9118800E+02  0.7818608E-02  0.1130116E+00
         25   -1    0    0    0    0  0.00000000000E+00  0.00000000000E+00  0.99999998245E-14  0.12500000000E+03  0.12500000000E+03 0.  0.
        -11    1    3    3    0    0  0.25698706951E+02  0.19167250898E+02 -0.15255020702E+02  0.35503840677E+02  0.51100000000E-03 0. -1.
         23    2    1    0    0    0 -0.16628586772E+02 -0.63197094014E+01  0.21507915740E+02  0.97088728720E+02  0.92990226261E+02 0.  0.
         11    1    3    3    0    0 -0.42327293723E+02 -0.25486960300E+02  0.36762936442E+02  0.61584888043E+02  0.51100000000E-03 0.  1.
         22    1    1    0    0    0  0.16628586772E+02  0.63197094014E+01 -0.21507915740E+02  0.27911271280E+02  0.00000000000E+00 0.  1.
</event>
<event>
 5    1  0.8863861E-005  0.9118800E+02  0.7818608E-02  0.1130116E+00
         25   -1    0    0    0    0  0.00000000000E+00  0.00000000000E+00  0.99999998245E-14  0.12500000000E+03  0.12500000000E+03 0.  0.
        -11    1    3    3    0    0  0.30402875088E+02 -0.24338687684E+02 -0.79213773713E+01  0.39742354630E+02  0.51100000000E-03 0.  1.
         23    2    1    0    0    0 -0.56931826011E+01  0.14916233227E+02 -0.24648722471E+02  0.95632230911E+02  0.91011305494E+02 0.  0.
         11    1    3    3    0    0 -0.36096057689E+02  0.39254920911E+02 -0.16727345100E+02  0.55889876281E+02  0.51100000000E-03 0. -1.
         22    1    1    0    0    0  0.56931826011E+01 -0.14916233227E+02  0.24648722471E+02  0.29367769089E+02  0.00000000000E+00 0. -1.
</event>
<event>
 5    1  0.8863861E-005  0.9118800E+02  0.7818608E-02  0.1130116E+00
         25   -1    0    0    0    0  0.00000000000E+00  0.00000000000E+00  0.99999998245E-14  0.12500000000E+03  0.12500000000E+03 0.  0.
        -11    1    3    3    0    0 -0.43928209800E+02  0.25081630044E+02  0.51202171402E+01  0.50842820592E+02  0.51100000000E-03 0. -1.
         23    2    1    0    0    0 -0.11876915156E+02  0.77181666486E+01  0.27817457585E+02  0.93783943930E+02  0.88436338587E+02 0.  0.
         11    1    3    3    0    0  0.32051294645E+02 -0.17363463395E+02  0.22697240445E+02  0.42941123338E+02  0.51100000000E-03 0.  1.
         22    1    1    0    0    0  0.11876915156E+02 -0.77181666486E+01 -0.27817457585E+02  0.31216056070E+02  0.00000000000E+00 0. -1.
</event>
<event>
 5    1  0.8863861E-005  0.9118800E+02  0.7818608E-02  0.1130116E+00
         25   -1    0    0    0    0  0.00000000000E+00  0.00000000000E+00  0.99999998245E-14  0.12500000000E+03  0.12500000000E+03 0.  0.
        -11    1    3    3    0    0  0.24684043763E+02  0.18591646195E+02 -0.22242143774E+02  0.38074457115E+02  0.51100000000E-03 0. -1.
         23    2    1    0    0    0  0.38748292874E+01  0.17485729191E+02  0.27600444765E+02  0.92097878814E+02  0.86020170329E+02 0.  0.
         11    1    3    3    0    0 -0.20809214475E+02 -0.11059170033E+01  0.49842588539E+02  0.54023421698E+02  0.51100000000E-03 0.  1.
         22    1    1    0    0    0 -0.38748292874E+01 -0.17485729191E+02 -0.27600444765E+02  0.32902121186E+02  0.00000000000E+00 0.  1.
</event>
<event>
 5    1  0.8863861E-005  0.9118800E+02  0.7818608E-02  0.1130116E+00
         25   -1    0    0    0    0  0.00000000000E+00  0.00000000000E+00  0.99999998245E-14  0.12500000000E+03  0.12500000000E+03 0.  0.
        -11    1    3    3    0    0  0.40630217322E+02 -0.90847854036E+00  0.95768661144E+01  0.41753517909E+02  0.51100000000E-03 0.  1.
         23    2    1    0    0    0  0.40214881468E+01 -0.14536717400E+02 -0.26228768614E+02  0.94743813481E+02  0.89782812220E+02 0.  0.
         11    1    3    3    0    0 -0.36608729175E+02 -0.13628238859E+02 -0.35805634729E+02  0.52990295572E+02  0.51100000000E-03 0. -1.
         22    1    1    0    0    0 -0.40214881468E+01  0.14536717400E+02  0.26228768614E+02  0.30256186519E+02  0.00000000000E+00 0. -1.
</event>
<event>
 5    1  0.8863861E-005  0.9118800E+02  0.7818608E-02  0.1130116E+00
         25   -1    0    0    0    0  0.00000000000E+00  0.00000000000E+00  0.99999998245E-14  0.12500000000E+03  0.12500000000E+03 0.  0.
        -11    1    3    3    0    0 -0.25825991183E+02 -0.27971161140E+02 -0.14110901765E+02  0.40601542150E+02  0.51100000000E-03 0. -1.
         23    2    1    0    0    0 -0.75716392262E+01  0.79587213129E+01  0.25576901396E+02  0.97163893043E+02  0.93091209363E+02 0.  0.
         11    1    3    3    0    0  0.18254351957E+02  0.35929882453E+02  0.39687803161E+02  0.56562350892E+02  0.51100000000E-03 0.  1.
         22    1    1    0    0    0  0.75716392262E+01 -0.79587213129E+01 -0.25576901396E+02  0.27836106957E+02  0.00000000000E+00 0.  1.
</event>
<event>
 5    1  0.8863861E-005  0.9118800E+02  0.7818608E-02  0.1130116E+00
         25   -1    0    0    0    0  0.00000000000E+00  0.00000000000E+00  0.99999998245E-14  0.12500000000E+03  0.12500000000E+03 0.  0.
        -11    1    3    3    0    0  0.20408919952E+02 -0.16226130123E+02 -0.23850277645E+02  0.35336200367E+02  0.51100000000E-03 0. -1.
         23    2    1    0    0    0 -0.26464017462E+02  0.49265295712E+01  0.93001970766E+01  0.96520031961E+02  0.92222600214E+02 0.  0.
         11    1    3    3    0    0 -0.46872937414E+02  0.21152659695E+02  0.33150474721E+02  0.61183831594E+02  0.51100000000E-03 0.  1.
         22    1    1    0    0    0  0.26464017462E+02 -0.49265295712E+01 -0.93001970766E+01  0.28479968039E+02  0.00000000000E+00 0.  1.
</event>
<event>
 5    1  0.8863861E-005  0.9118800E+02  0.7818608E-02  0.1130116E+00
         25   -1    0    0    0    0  0.00000000000E+00  0.00000000000E+00  0.99999998245E-14  0.12500000000E+03  0.12500000000E+03 0.  0.
        -11    1    3    3    0    0  0.18920456917E+02 -0.42646398730E+02  0.72629762307E+01  0.47217050295E+02  0.51100000000E-03 0. -1.
         23    2    1    0    0    0  0.25596387322E+02  0.52202625069E+01 -0.76223591354E+01  0.97787382644E+02  0.93924680787E+02 0.  0.
         11    1    3    3    0    0  0.66759304049E+01  0.47866661236E+02 -0.14885335366E+02  0.50570332349E+02  0.51100000000E-03 0.  1.
         22    1    1    0    0    0 -0.25596387322E+02 -0.52202625069E+01  0.76223591354E+01  0.27212617356E+02  0.00000000000E+00 0. -1.
</event>
<event>
 5    1  0.8863861E-005  0.9118800E+02  0.7818608E-02  0.1130116E+00
         25   -1    0    0    0    0  0.00000000000E+00  0.00000000000E+00  0.99999998245E-14  0.12500000000E+03  0.12500000000E+03 0.  0.
        -11    1    3    3    0    0 -0.18292710922E+02  0.40397558509E+02  0.42746951553E+02  0.61594544188E+02  0.51100000000E-03 0.  1.
         23    2    1    0    0    0 -0.14653780311E+02  0.19655039405E+02  0.15643699279E+02  0.95917717102E+02  0.91402567117E+02 0.  0.
         11    1    3    3    0    0  0.36389306116E+01 -0.20742519104E+02 -0.27103252274E+02  0.34323172914E+02  0.51100000000E-03 0. -1.
         22    1    1    0    0    0  0.14653780311E+02 -0.19655039405E+02 -0.15643699279E+02  0.29082282898E+02  0.00000000000E+00 0.  1.
</event>
<event>
 5    1  0.8863861E-005  0.9118800E+02  0.7818608E-02  0.1130116E+00
         25   -1    0    0    0    0  0.00000000000E+00  0.00000000000E+00  0.99999998245E-14  0.12500000000E+03  0.12500000000E+03 0.  0.
        -11    1    3    3    0    0  0.34728737474E+02  0.88177353813E+01 -0.20577422017E+02  0.41319099227E+02  0.51100000000E-03 0.  1.
         23    2    1    0    0    0 -0.19320706460E+02  0.17839060560E+02 -0.74875153735E+01  0.97658005445E+02  0.93752340564E+02 0.  0.
         11    1    3    3    0    0 -0.54049443934E+02  0.90213251792E+01  0.13089906643E+02  0.56338906218E+02  0.51100000000E-03 0. -1.
         22    1    1    0    0    0  0.19320706460E+02 -0.17839060560E+02  0.74875153735E+01  0.27341994555E+02  0.00000000000E+00 0. -1.
</event>
<event>
 5    1  0.8863861E-005  0.9118800E+02  0.7818608E-02  0.1130116E+00
         25   -1    0    0    0    0  0.00000000000E+00  0.00000000000E+00  0.99999998245E-14  0.12500000000E+03  0.12500000000E+03 0.  0.
        -11    1    3    3    0    0 -0.24087911067E+02 -0.34290042211E+02  0.12708615768E+02  0.43789763294E+02  0.51100000000E-03 0. -1.
         23    2    1    0    0    0 -0.32122905358E+02  0.47361370135E+01  0.23320020800E+02  0.85023314137E+02  0.75038846835E+02 0.  0.
         11    1    3    3    0    0 -0.80349942914E+01  0.39026179224E+02  0.10611405032E+02  0.41233550843E+02  0.51100000000E-03 0.  1.
         22    1    1    0    0    0  0.32122905358E+02 -0.47361370135E+01 -0.23320020800E+02  0.39976685863E+02  0.00000000000E+00 0.  1.
</event>
<event>
 5    1  0.8863861E-005  0.9118800E+02  0.7818608E-02  0.1130116E+00
         25   -1    0    0    0    0  0.00000000000E+00  0.00000000000E+00  0.99999998245E-14  0.12500000000E+03  0.12500000000E+03 0.  0.
        -11    1    3    3    0    0  0.60331155901E+01 -0.44263862071E+02 -0.30535695221E+02  0.54112074919E+02  0.51100000000E-03 0.  1.
         23    2    1    0    0    0  0.27362380756E+01 -0.29091101676E+01 -0.29104554154E+02  0.95622712969E+02  0.90998232084E+02 0.  0.
         11    1    3    3    0    0 -0.32968775145E+01  0.41354751904E+02  0.14311410666E+01  0.41510638051E+02  0.51100000000E-03 0. -1.
         22    1    1    0    0    0 -0.27362380756E+01  0.29091101676E+01  0.29104554154E+02  0.29377287031E+02  0.00000000000E+00 0.  1.
</event>
<event>
 5    1  0.8863861E-005  0.9118800E+02  0.7818608E-02  0.1130116E+00
         25   -1    0    0    0    0  0.00000000000E+00  0.00000000000E+00  0.99999998245E-14  0.12500000000E+03  0.12500000000E+03 0.  0.
        -11    1    3    3    0    0  0.33778162197E+02 -0.35445644461E+02  0.13659502501E+02  0.50832469559E+02  0.51100000000E-03 0.  1.
         23    2    1    0    0    0 -0.54791148920E+01 -0.17061508090E+02  0.23660073818E+02  0.95319790240E+02  0.90581165593E+02 0.  0.
         11    1    3    3    0    0 -0.39257277089E+02  0.18384136370E+02  0.10000571317E+02  0.44487320682E+02  0.51100000000E-03 0. -1.
         22    1    1    0    0    0  0.54791148920E+01  0.17061508090E+02 -0.23660073818E+02  0.29680209760E+02  0.00000000000E+00 0.  1.
</event>
<event>
 5    1  0.8863861E-005  0.9118800E+02  0.7818608E-02  0.1130116E+00
         25   -1    0    0    0    0  0.00000000000E+00  0.00000000000E+00  0.99999998245E-14  0.12500000000E+03  0.12500000000E+03 0.  0.
        -11    1    3    3    0    0  0.46040025556E+02  0.36817023366E+02  0.38565532464E+01  0.59076646535E+02  0.51100000000E-03 0. -1.
         23    2    1    0    0    0  0.26104477258E+02  0.97931035539E+01 -0.99656028283E+01  0.95391524020E+02  0.90680102586E+02 0.  0.
         11    1    3    3    0    0 -0.19935548298E+02 -0.27023919812E+02 -0.13822156075E+02  0.36314877485E+02  0.51100000000E-03 0.  1.
         22    1    1    0    0    0 -0.26104477258E+02 -0.97931035539E+01  0.99656028283E+01  0.29608475980E+02  0.00000000000E+00 0. -1.
</event>
<event>
 5    1  0.8863861E-005  0.9118800E+02  0.7818608E-02  0.1130116E+00
         25   -1    0    0    0    0  0.00000000000E+00  0.00000000000E+00  0.99999998245E-14  0.12500000000E+03  0.12500000000E+03 0.  0.
        -11    1    3    3    0    0  0.24413176756E+02 -0.21561693737E+02 -0.72564257245E+01  0.33370129617E+02  0.51100000000E-03 0. -1.
         23    2    1    0    0    0 -0.22458564153E+02  0.10747861958E+02  0.16579170291E+02  0.95087251413E+02  0.90259696727E+02 0.  0.
         11    1    3    3    0    0 -0.46871740909E+02  0.32309555694E+02  0.23835596016E+02  0.61717121796E+02  0.51100000000E-03 0.  1.
         22    1    1    0    0    0  0.22458564153E+02 -0.10747861958E+02 -0.16579170291E+02  0.29912748587E+02  0.00000000000E+00 0.  1.
</event>
<event>
 5    1  0.8863861E-005  0.9118800E+02  0.7818608E-02  0.1130116E+00
         25   -1    0    0    0    0  0.00000000000E+00  0.00000000000E+00  0.99999998245E-14  0.12500000000E+03  0.12500000000E+03 0.  0.
        -11    1    3    3    0    0  0.24045788344E+01 -0.28574861249E+02  0.51381620666E+02  0.58841954737E+02  0.51100000000E-03 0. -1.
         23    2    1    0    0    0 -0.18809019154E+01 -0.25458700716E+02  0.15453160220E+02  0.95159031601E+02  0.90359049908E+02 0.  0.
         11    1    3    3    0    0 -0.42854807498E+01  0.31161605331E+01 -0.35928460445E+02  0.36317076864E+02  0.51100000000E-03 0.  1.
         22    1    1    0    0    0  0.18809019154E+01  0.25458700716E+02 -0.15453160220E+02  0.29840968399E+02  0.00000000000E+00 0. -1.
</event>
<event>
 5    1  0.8863861E-005  0.9118800E+02  0.7818608E-02  0.1130116E+00
         25   -1    0    0    0    0  0.00000000000E+00  0.00000000000E+00  0.99999998245E-14  0.12500000000E+03  0.12500000000E+03 0.  0.
        -11    1    3    3    0    0  0.33314386380E+02  0.11385534930E+02 -0.26658286048E+02  0.44160423014E+02  0.51100000000E-03 0. -1.
         23    2    1    0    0    0  0.13789070897E+02  0.17792737648E+02  0.19838103989E+02  0.94995494354E+02  0.90132533463E+02 0.  0.
         11    1    3    3    0    0 -0.19525315483E+02  0.64072027188E+01  0.46496390037E+02  0.50835071340E+02  0.51100000000E-03 0.  1.
         22    1    1    0    0    0 -0.13789070897E+02 -0.17792737648E+02 -0.19838103989E+02  0.30004505646E+02  0.00000000000E+00 0. -1.
</event>
<event>
 5    1  0.8863861E-005  0.9118800E+02  0.7818608E-02  0.1130116E+00
         25   -1    0    0    0    0  0.00000000000E+00  0.00000000000E+00  0.99999998245E-14  0.12500000000E+03  0.12500000000E+03 0.  0.
        -11    1    3    3    0    0  0.48932314364E+02  0.13007010685E+02 -0.31615127445E+02  0.59691456672E+02  0.51100000000E-03 0. -1.
         23    2    1    0    0    0  0.25740985468E+02  0.12650695053E+02 -0.35515471587E+01  0.96099275002E+02  0.91650525097E+02 0.  0.
         11    1    3    3    0    0 -0.23191328897E+02 -0.35631563149E+00  0.28063580286E+02  0.36407818330E+02  0.51100000000E-03 0.  1.
         22    1    1    0    0    0 -0.25740985468E+02 -0.12650695053E+02  0.35515471587E+01  0.28900724998E+02  0.00000000000E+00 0. -1.
</event>
<event>
 5    1  0.8863861E-005  0.9118800E+02  0.7818608E-02  0.1130116E+00
         25   -1    0    0    0    0  0.00000000000E+00  0.00000000000E+00  0.99999998245E-14  0.12500000000E+03  0.12500000000E+03 0.  0.
        -11    1    3    3    0    0  0.56470122865E+02 -0.21111635580E+02  0.97357720571E+01  0.61068495897E+02  0.51100000000E-03 0. -1.
         23    2    1    0    0    0  0.22153364318E+02 -0.17666972570E+02  0.77936386023E+01  0.95612344887E+02  0.90983988820E+02 0.  0.
         11    1    3    3    0    0 -0.34316758547E+02  0.34446630105E+01 -0.19421334548E+01  0.34543848990E+02  0.51100000000E-03 0.  1.
         22    1    1    0    0    0 -0.22153364318E+02  0.17666972570E+02 -0.77936386023E+01  0.29387655113E+02  0.00000000000E+00 0. -1.
</event>
<event>
 5    1  0.8863861E-005  0.9118800E+02  0.7818608E-02  0.1130116E+00
         25   -1    0    0    0    0  0.00000000000E+00  0.00000000000E+00  0.99999998245E-14  0.12500000000E+03  0.12500000000E+03 0.  0.
        -11    1    3    3    0    0 -0.25812365969E+02  0.80735693458E+01  0.34309320769E+02  0.43687415245E+02  0.51100000000E-03 0. -1.
         23    2    1    0    0    0  0.53589537743E+01 -0.26566687079E+02  0.11762200817E+02  0.95455853101E+02  0.90768735120E+02 0.  0.
         11    1    3    3    0    0  0.31171319743E+02 -0.34640256425E+02 -0.22547119952E+02  0.51768437857E+02  0.51100000000E-03 0.  1.
         22    1    1    0    0    0 -0.53589537743E+01  0.26566687079E+02 -0.11762200817E+02  0.29544146899E+02  0.00000000000E+00 0.  1.
</event>
<event>
 5    1  0.8863861E-005  0.9118800E+02  0.7818608E-02  0.1130116E+00
         25   -1    0    0    0    0  0.00000000000E+00  0.00000000000E+00  0.99999998245E-14  0.12500000000E+03  0.12500000000E+03 0.  0.
        -11    1    3    3    0    0 -0.13776472811E+02  0.10119642760E+01 -0.40711849960E+02  0.42991510816E+02  0.51100000000E-03 0.  1.
         23    2    1    0    0    0  0.22479943817E+02  0.19647876770E+02 -0.22369100340E+02  0.87693652208E+02  0.79362541869E+02 0.  0.
         11    1    3    3    0    0  0.36256416628E+02  0.18635912494E+02  0.18342749620E+02  0.44702141392E+02  0.51100000000E-03 0. -1.
         22    1    1    0    0    0 -0.22479943817E+02 -0.19647876770E+02  0.22369100340E+02  0.37306347792E+02  0.00000000000E+00 0.  1.
</event>
<event>
 5    1  0.8863861E-005  0.9118800E+02  0.7818608E-02  0.1130116E+00
         25   -1    0    0    0    0  0.00000000000E+00  0.00000000000E+00  0.99999998245E-14  0.12500000000E+03  0.12500000000E+03 0.  0.
        -11    1    3    3    0    0  0.22601613830E+02 -0.24093039353E+02  0.98061071654E+01  0.34459646414E+02  0.51100000000E-03 0. -1.
         23    2    1    0    0    0 -0.16434868668E+02  0.22973523145E+02 -0.17848440859E+01  0.96696760923E+02  0.92461831210E+02 0.  0.
         11    1    3    3    0    0 -0.39036482498E+02  0.47066562499E+02 -0.11590951251E+02  0.62237114509E+02  0.51100000000E-03 0.  1.
         22    1    1    0    0    0  0.16434868668E+02 -0.22973523145E+02  0.17848440859E+01  0.28303239077E+02  0.00000000000E+00 0.  1.
</event>
<event>
 5    1  0.8863861E-005  0.9118800E+02  0.7818608E-02  0.1130116E+00
         25   -1    0    0    0    0  0.00000000000E+00  0.00000000000E+00  0.99999998245E-14  0.12500000000E+03  0.12500000000E+03 0.  0.
        -11    1    3    3    0    0  0.35028111364E+02  0.31379154659E+02 -0.24828362971E+02  0.53179578232E+02  0.51100000000E-03 0.  1.
         23    2    1    0    0    0  0.20962135405E+02 -0.85516208375E+01 -0.18031209465E+02  0.96057542357E+02  0.91593589236E+02 0.  0.
         11    1    3    3    0    0 -0.14065975959E+02 -0.39930775496E+02  0.67971535063E+01  0.42877964125E+02  0.51100000000E-03 0. -1.
         22    1    1    0    0    0 -0.20962135405E+02  0.85516208375E+01  0.18031209465E+02  0.28942457643E+02  0.00000000000E+00 0.  1.
</event>
<event>
 5    1  0.8863861E-005  0.9118800E+02  0.7818608E-02  0.1130116E+00
         25   -1    0    0    0    0  0.00000000000E+00  0.00000000000E+00  0.99999998245E-14  0.12500000000E+03  0.12500000000E+03 0.  0.
        -11    1    3    3    0    0  0.60596967136E+01 -0.26436492693E+02 -0.24265450936E+02  0.36392584128E+02  0.51100000000E-03 0.  1.
         23    2    1    0    0    0 -0.20666459677E+02  0.20874506811E+02 -0.70836860886E+00  0.95617192505E+02  0.90990648565E+02 0.  0.
         11    1    3    3    0    0 -0.26726156391E+02  0.47310999503E+02  0.23557082327E+02  0.59224608377E+02  0.51100000000E-03 0. -1.
         22    1    1    0    0    0  0.20666459677E+02 -0.20874506811E+02  0.70836860886E+00  0.29382807495E+02  0.00000000000E+00 0. -1.
</event>
<event>
 5    1  0.8863861E-005  0.9118800E+02  0.7818608E-02  0.1130116E+00
         25   -1    0    0    0    0  0.00000000000E+00  0.00000000000E+00  0.99999998245E-14  0.12500000000E+03  0.12500000000E+03 0.  0.
        -11    1    3    3    0    0  0.35777704830E+02 -0.43228643047E+02 -0.24798984118E+02  0.61349403877E+02  0.51100000000E-03 0. -1.
         23    2    1    0    0    0  0.22620932574E+02 -0.14177053336E+02 -0.10244095626E+02  0.96405648688E+02  0.92067432743E+02 0.  0.
         11    1    3    3    0    0 -0.13156772256E+02  0.29051589711E+02  0.14554888492E+02  0.35056244810E+02  0.51100000000E-03 0.  1.
         22    1    1    0    0    0 -0.22620932574E+02  0.14177053336E+02  0.10244095626E+02  0.28594351312E+02  0.00000000000E+00 0. -1.
</event>
<event>
 5    1  0.8863861E-005  0.9118800E+02  0.7818608E-02  0.1130116E+00
         25   -1    0    0    0    0  0.00000000000E+00  0.00000000000E+00  0.99999998245E-14  0.12500000000E+03  0.12500000000E+03 0.  0.
        -11    1    3    3    0    0 -0.42016678043E+02 -0.42562026533E+02  0.82109312254E+01  0.60368424927E+02  0.51100000000E-03 0. -1.
         23    2    1    0    0    0 -0.25613698892E+02 -0.12690433003E+02  0.10556457971E+02  0.94527923181E+02  0.89481734423E+02 0.  0.
         11    1    3    3    0    0  0.16402979151E+02  0.29871593529E+02  0.23455267455E+01  0.34159498254E+02  0.51100000000E-03 0.  1.
         22    1    1    0    0    0  0.25613698892E+02  0.12690433003E+02 -0.10556457971E+02  0.30472076819E+02  0.00000000000E+00 0. -1.
</event>
<event>
 5    1  0.8863861E-005  0.9118800E+02  0.7818608E-02  0.1130116E+00
         25   -1    0    0    0    0  0.00000000000E+00  0.00000000000E+00  0.99999998245E-14  0.12500000000E+03  0.12500000000E+03 0.  0.
        -11    1    3    3    0    0  0.31318479201E+02  0.54148525733E+01 -0.52694269920E+02  0.61537418296E+02  0.51100000000E-03 0.  1.
         23    2    1    0    0    0  0.52341506055E+01  0.46759564798E+01 -0.22426622730E+02  0.10150075940E+03  0.98743049633E+02 0.  0.
         11    1    3    3    0    0 -0.26084328596E+02 -0.73889609342E+00  0.30267647190E+02  0.39963341107E+02  0.51100000000E-03 0. -1.
         22    1    1    0    0    0 -0.52341506055E+01 -0.46759564798E+01  0.22426622730E+02  0.23499240597E+02  0.00000000000E+00 0.  1.
</event>
<event>
 5    1  0.8863861E-005  0.9118800E+02  0.7818608E-02  0.1130116E+00
         25   -1    0    0    0    0  0.00000000000E+00  0.00000000000E+00  0.99999998245E-14  0.12500000000E+03  0.12500000000E+03 0.  0.
        -11    1    3    3    0    0 -0.10986764408E+02  0.36933501873E+02  0.38128497322E+02  0.54208623493E+02  0.51100000000E-03 0. -1.
         23    2    1    0    0    0 -0.79255039258E+01  0.29196363383E+02 -0.15083987483E+01  0.94709464943E+02  0.89734977771E+02 0.  0.
         11    1    3    3    0    0  0.30612604826E+01 -0.77371384896E+01 -0.39636896070E+02  0.40500841449E+02  0.51100000000E-03 0.  1.
         22    1    1    0    0    0  0.79255039258E+01 -0.29196363383E+02  0.15083987483E+01  0.30290535057E+02  0.00000000000E+00 0.  1.
</event>
<event>
 5    1  0.8863861E-005  0.9118800E+02  0.7818608E-02  0.1130116E+00
         25   -1    0    0    0    0  0.00000000000E+00  0.00000000000E+00  0.99999998245E-14  0.12500000000E+03  0.12500000000E+03 0.  0.
        -11    1    3    3    0    0 -0.60199388719E+02 -0.13433136424E+02  0.32073229838E+01  0.61763277741E+02  0.51100000000E-03 0. -1.
         23    2    1    0    0    0 -0.28364446856E+02 -0.44630450399E+01  0.80234528429E+01  0.95186640377E+02  0.90397234992E+02 0.  0.
         11    1    3    3    0    0  0.31834941863E+02  0.89700913844E+01  0.48161298591E+01  0.33423362636E+02  0.51100000000E-03 0.  1.
         22    1    1    0    0    0  0.28364446856E+02  0.44630450399E+01 -0.80234528429E+01  0.29813359623E+02  0.00000000000E+00 0. -1.
</event>
<event>
 5    1  0.8863861E-005  0.9118800E+02  0.7818608E-02  0.1130116E+00
         25   -1    0    0    0    0  0.00000000000E+00  0.00000000000E+00  0.99999998245E-14  0.12500000000E+03  0.12500000000E+03 0.  0.
        -11    1    3    3    0    0 -0.19880589529E+02 -0.43230399721E+01 -0.14955223090E+02  0.25250449749E+02  0.51100000000E-03 0.  1.
         23    2    1    0    0    0  0.21834242165E+02 -0.20784910244E+02  0.25400226027E+02  0.85580232027E+02  0.75960897881E+02 0.  0.
         11    1    3    3    0    0  0.41714831694E+02 -0.16461870272E+02  0.40355449117E+02  0.60329782278E+02  0.51100000000E-03 0. -1.
         22    1    1    0    0    0 -0.21834242165E+02  0.20784910244E+02 -0.25400226027E+02  0.39419767973E+02  0.00000000000E+00 0. -1.
</event>
<event>
 5    1  0.8863861E-005  0.9118800E+02  0.7818608E-02  0.1130116E+00
         25   -1    0    0    0    0  0.00000000000E+00  0.00000000000E+00  0.99999998245E-14  0.12500000000E+03  0.12500000000E+03 0.  0.
        -11    1    3    3    0    0 -0.52446164950E+02  0.54424686086E+01  0.88998935913E+01  0.53473627039E+02  0.51100000000E-03 0.  1.
         23    2    1    0    0    0 -0.21563808625E+02 -0.21158804325E+02  0.38399662876E+01  0.94546130230E+02  0.89507164839E+02 0.  0.
         11    1    3    3    0    0  0.30882356325E+02 -0.26601272933E+02 -0.50599273038E+01  0.41072503192E+02  0.51100000000E-03 0. -1.
         22    1    1    0    0    0  0.21563808625E+02  0.21158804325E+02 -0.38399662876E+01  0.30453869770E+02  0.00000000000E+00 0.  1.
</event>
<event>
 5    1  0.8863861E-005  0.9118800E+02  0.7818608E-02  0.1130116E+00
         25   -1    0    0    0    0  0.00000000000E+00  0.00000000000E+00  0.99999998245E-14  0.12500000000E+03  0.12500000000E+03 0.  0.
        -11    1    3    3    0    0  0.16797708741E+02  0.43309565620E+02  0.39439284661E+02  0.60937169838E+02  0.51100000000E-03 0. -1.
         23    2    1    0    0    0  0.90502175047E+01  0.35542060255E+02  0.20085619050E+02  0.83184015297E+02  0.71909692145E+02 0.  0.
         11    1    3    3    0    0 -0.77474912361E+01 -0.77675053649E+01 -0.19353665611E+02  0.22246845459E+02  0.51100000000E-03 0.  1.
         22    1    1    0    0    0 -0.90502175047E+01 -0.35542060255E+02 -0.20085619050E+02  0.41815984703E+02  0.00000000000E+00 0. -1.
</event>
<event>
 5    1  0.8863861E-005  0.9118800E+02  0.7818608E-02  0.1130116E+00
         25   -1    0    0    0    0  0.00000000000E+00  0.00000000000E+00  0.99999998245E-14  0.12500000000E+03  0.12500000000E+03 0.  0.
        -11    1    3    3    0    0 -0.40139990858E+02  0.51723598494E+01  0.45732396385E+02  0.61069012206E+02  0.51100000000E-03 0.  1.
         23    2    1    0    0    0 -0.22386487818E+02 -0.60743072431E+01  0.19393230912E+02  0.94765095493E+02  0.89812437186E+02 0.  0.
         11    1    3    3    0    0  0.17753503039E+02 -0.11246667092E+02 -0.26339165472E+02  0.33696083287E+02  0.51100000000E-03 0. -1.
         22    1    1    0    0    0  0.22386487818E+02  0.60743072431E+01 -0.19393230912E+02  0.30234904507E+02  0.00000000000E+00 0.  1.
</event>
<event>
 5    1  0.8863861E-005  0.9118800E+02  0.7818608E-02  0.1130116E+00
         25   -1    0    0    0    0  0.00000000000E+00  0.00000000000E+00  0.99999998245E-14  0.12500000000E+03  0.12500000000E+03 0.  0.
        -11    1    3    3    0    0 -0.11354943245E+02  0.45536743351E+02 -0.18585507920E+01  0.46967903321E+02  0.51100000000E-03 0.  1.
         23    2    1    0    0    0  0.25303856897E+01  0.16997645747E+02  0.29036014014E+02  0.91259624743E+02  0.84793314511E+02 0.  0.
         11    1    3    3    0    0  0.13885328934E+02 -0.28539097604E+02  0.30894564806E+02  0.44291721421E+02  0.51100000000E-03 0. -1.
         22    1    1    0    0    0 -0.25303856897E+01 -0.16997645747E+02 -0.29036014014E+02  0.33740375257E+02  0.00000000000E+00 0. -1.
</event>
<event>
 5    1  0.8863861E-005  0.9118800E+02  0.7818608E-02  0.1130116E+00
         25   -1    0    0    0    0  0.00000000000E+00  0.00000000000E+00  0.99999998245E-14  0.12500000000E+03  0.12500000000E+03 0.  0.
        -11    1    3    3    0    0 -0.41679406882E+02  0.21424054503E+02  0.23737010478E+02  0.52531978224E+02  0.51100000000E-03 0.  1.
         23    2    1    0    0    0 -0.19892225221E+02  0.21276179712E+02 -0.11272801771E+02  0.93767764935E+02  0.88413467491E+02 0.  0.
         11    1    3    3    0    0  0.21787181661E+02 -0.14787479126E+00 -0.35009812249E+02  0.41235786711E+02  0.51100000000E-03 0. -1.
         22    1    1    0    0    0  0.19892225221E+02 -0.21276179712E+02  0.11272801771E+02  0.31232235065E+02  0.00000000000E+00 0.  1.
</event>
<event>
 5    1  0.8863861E-005  0.9118800E+02  0.7818608E-02  0.1130116E+00
         25   -1    0    0    0    0  0.00000000000E+00  0.00000000000E+00  0.99999998245E-14  0.12500000000E+03  0.12500000000E+03 0.  0.
        -11    1    3    3    0    0  0.58801026345E+02  0.14121823713E+02 -0.41401090014E+00  0.60474440960E+02  0.51100000000E-03 0. -1.
         23    2    1    0    0    0  0.27138803420E+02  0.79665193056E+01 -0.11336752541E+02  0.94528668570E+02  0.89482775675E+02 0.  0.
         11    1    3    3    0    0 -0.31662222925E+02 -0.61553044074E+01 -0.10922741641E+02  0.34054227610E+02  0.51100000000E-03 0.  1.
         22    1    1    0    0    0 -0.27138803420E+02 -0.79665193056E+01  0.11336752541E+02  0.30471331430E+02  0.00000000000E+00 0. -1.
</event>
<event>
 5    1  0.8863861E-005  0.9118800E+02  0.7818608E-02  0.1130116E+00
         25   -1    0    0    0    0  0.00000000000E+00  0.00000000000E+00  0.99999998245E-14  0.12500000000E+03  0.12500000000E+03 0.  0.
        -11    1    3    3    0    0 -0.34841747695E+01  0.57049209790E+01 -0.41586736388E+02  0.42120567908E+02  0.51100000000E-03 0.  1.
         23    2    1    0    0    0  0.18488605348E+02  0.22620971286E+02  0.40335525069E+01  0.95507519340E+02  0.90839858185E+02 0.  0.
         11    1    3    3    0    0  0.21972780118E+02  0.16916050307E+02  0.45620288895E+02  0.53386951432E+02  0.51100000000E-03 0. -1.
         22    1    1    0    0    0 -0.18488605348E+02 -0.22620971286E+02 -0.40335525069E+01  0.29492480660E+02  0.00000000000E+00 0. -1.
</event>
<event>
 5    1  0.8863861E-005  0.9118800E+02  0.7818608E-02  0.1130116E+00
         25   -1    0    0    0    0  0.00000000000E+00  0.00000000000E+00  0.99999998245E-14  0.12500000000E+03  0.12500000000E+03 0.  0.
        -11    1    3    3    0    0  0.13776065019E+02 -0.26931996676E+02  0.17142221653E+02  0.34770219669E+02  0.51100000000E-03 0.  1.
         23    2    1    0    0    0  0.74503538920E+01  0.22314036869E+02 -0.17813492387E+02  0.95491619402E+02  0.90817976472E+02 0.  0.
         11    1    3    3    0    0 -0.63257111268E+01  0.49246033545E+02 -0.34955714040E+02  0.60721399733E+02  0.51100000000E-03 0. -1.
         22    1    1    0    0    0 -0.74503538920E+01 -0.22314036869E+02  0.17813492387E+02  0.29508380598E+02  0.00000000000E+00 0. -1.
</event>
<event>
 5    1  0.8863861E-005  0.9118800E+02  0.7818608E-02  0.1130116E+00
         25   -1    0    0    0    0  0.00000000000E+00  0.00000000000E+00  0.99999998245E-14  0.12500000000E+03  0.12500000000E+03 0.  0.
        -11    1    3    3    0    0  0.82432917757E+00  0.52245438935E+02 -0.19887317290E+02  0.55908593234E+02  0.51100000000E-03 0. -1.
         23    2    1    0    0    0 -0.16127168530E+02  0.15357662016E+02 -0.17680939835E+02  0.96564828454E+02  0.92283298129E+02 0.  0.
         11    1    3    3    0    0 -0.16951497708E+02 -0.36887776919E+02  0.22063774556E+01  0.40656235220E+02  0.51100000000E-03 0.  1.
         22    1    1    0    0    0  0.16127168530E+02 -0.15357662016E+02  0.17680939835E+02  0.28435171546E+02  0.00000000000E+00 0. -1.
</event>
<event>
 5    1  0.8863861E-005  0.9118800E+02  0.7818608E-02  0.1130116E+00
         25   -1    0    0    0    0  0.00000000000E+00  0.00000000000E+00  0.99999998245E-14  0.12500000000E+03  0.12500000000E+03 0.  0.
        -11    1    3    3    0    0  0.17811818374E+01 -0.34359144415E+02  0.13379359382E+02  0.36915182126E+02  0.51100000000E-03 0. -1.
         23    2    1    0    0    0  0.22324887829E+02  0.18526363711E+02 -0.26411695354E+01  0.95869216532E+02  0.91336214795E+02 0.  0.
         11    1    3    3    0    0  0.20543705992E+02  0.52885508127E+02 -0.16020528917E+02  0.58954034406E+02  0.51100000000E-03 0.  1.
         22    1    1    0    0    0 -0.22324887829E+02 -0.18526363711E+02  0.26411695354E+01  0.29130783468E+02  0.00000000000E+00 0.  1.
</event>
<event>
 5    1  0.8863861E-005  0.9118800E+02  0.7818608E-02  0.1130116E+00
         25   -1    0    0    0    0  0.00000000000E+00  0.00000000000E+00  0.99999998245E-14  0.12500000000E+03  0.12500000000E+03 0.  0.
        -11    1    3    3    0    0  0.19352755481E+02 -0.10121061621E+02  0.37956557757E+02  0.43791155615E+02  0.51100000000E-03 0.  1.
         23    2    1    0    0    0  0.11430983489E+02 -0.22482963225E+02 -0.12861702647E+02  0.96687910464E+02  0.92449865419E+02 0.  0.
         11    1    3    3    0    0 -0.79217719927E+01 -0.12361901604E+02 -0.50818260404E+02  0.52896754849E+02  0.51100000000E-03 0. -1.
         22    1    1    0    0    0 -0.11430983489E+02  0.22482963225E+02  0.12861702647E+02  0.28312089536E+02  0.00000000000E+00 0. -1.
</event>
<event>
 5    1  0.8863861E-005  0.9118800E+02  0.7818608E-02  0.1130116E+00
         25   -1    0    0    0    0  0.00000000000E+00  0.00000000000E+00  0.99999998245E-14  0.12500000000E+03  0.12500000000E+03 0.  0.
        -11    1    3    3    0    0 -0.20550411572E+02  0.25283016980E+02 -0.41253737004E+02  0.52568252591E+02  0.51100000000E-03 0.  1.
         23    2    1    0    0    0 -0.29128384458E+02  0.94866865040E+01 -0.37757863876E+01  0.94133892944E+02  0.88929597076E+02 0.  0.
         11    1    3    3    0    0 -0.85779728854E+01 -0.15796330476E+02  0.37477950616E+02  0.41565640353E+02  0.51100000000E-03 0. -1.
         22    1    1    0    0    0  0.29128384458E+02 -0.94866865040E+01  0.37757863876E+01  0.30866107056E+02  0.00000000000E+00 0.  1.
</event>
<event>
 5    1  0.8863861E-005  0.9118800E+02  0.7818608E-02  0.1130116E+00
         25   -1    0    0    0    0  0.00000000000E+00  0.00000000000E+00  0.99999998245E-14  0.12500000000E+03  0.12500000000E+03 0.  0.
        -11    1    3    3    0    0 -0.55917660589E+02  0.18240954002E+01  0.16661002398E+01  0.55972207210E+02  0.51100000000E-03 0. -1.
         23    2    1    0    0    0 -0.21131738579E+02 -0.16769161678E+02  0.98966401494E+01  0.96265027492E+02  0.91876312905E+02 0.  0.
         11    1    3    3    0    0  0.34785922009E+02 -0.18593257078E+02  0.82305399097E+01  0.40292820282E+02  0.51100000000E-03 0.  1.
         22    1    1    0    0    0  0.21131738579E+02  0.16769161678E+02 -0.98966401494E+01  0.28734972508E+02  0.00000000000E+00 0. -1.
</event>
<event>
 5    1  0.8863861E-005  0.9118800E+02  0.7818608E-02  0.1130116E+00
         25   -1    0    0    0    0  0.00000000000E+00  0.00000000000E+00  0.99999998245E-14  0.12500000000E+03  0.12500000000E+03 0.  0.
        -11    1    3    3    0    0  0.33461360083E+02 -0.82480124919E+01 -0.18076414637E+02  0.38915923413E+02  0.51100000000E-03 0. -1.
         23    2    1    0    0    0 -0.18282655540E+02 -0.17930553800E+02  0.86715886098E+01  0.97963789056E+02  0.94159159215E+02 0.  0.
         11    1    3    3    0    0 -0.51744015623E+02 -0.96825413085E+01  0.26748003247E+02  0.59047865643E+02  0.51100000000E-03 0.  1.
         22    1    1    0    0    0  0.18282655540E+02  0.17930553800E+02 -0.86715886098E+01  0.27036210944E+02  0.00000000000E+00 0.  1.
</event>
<event>
 5    1  0.8863861E-005  0.9118800E+02  0.7818608E-02  0.1130116E+00
         25   -1    0    0    0    0  0.00000000000E+00  0.00000000000E+00  0.99999998245E-14  0.12500000000E+03  0.12500000000E+03 0.  0.
        -11    1    3    3    0    0  0.18164529089E+02 -0.40703324419E+02  0.35276216334E+02  0.56842960645E+02  0.51100000000E-03 0. -1.
         23    2    1    0    0    0  0.30304226538E+01 -0.53489004858E+01  0.28439785727E+02  0.95903340225E+02  0.91382903523E+02 0.  0.
         11    1    3    3    0    0 -0.15134106435E+02  0.35354423934E+02 -0.68364306069E+01  0.39060379580E+02  0.51100000000E-03 0.  1.
         22    1    1    0    0    0 -0.30304226538E+01  0.53489004858E+01 -0.28439785727E+02  0.29096659775E+02  0.00000000000E+00 0.  1.
</event>
<event>
 5    1  0.8863861E-005  0.9118800E+02  0.7818608E-02  0.1130116E+00
         25   -1    0    0    0    0  0.00000000000E+00  0.00000000000E+00  0.99999998245E-14  0.12500000000E+03  0.12500000000E+03 0.  0.
        -11    1    3    3    0    0  0.38606065721E+01  0.98038587305E+01 -0.41236027304E+02  0.42560896104E+02  0.51100000000E-03 0.  1.
         23    2    1    0    0    0 -0.22716119202E+02 -0.18165005943E+02 -0.50074717827E+01  0.95486201766E+02  0.90810519444E+02 0.  0.
         11    1    3    3    0    0 -0.26576725774E+02 -0.27968864673E+02  0.36228555521E+02  0.52925305662E+02  0.51100000000E-03 0. -1.
         22    1    1    0    0    0  0.22716119202E+02  0.18165005943E+02  0.50074717827E+01  0.29513798234E+02  0.00000000000E+00 0.  1.
</event>
<event>
 5    1  0.8863861E-005  0.9118800E+02  0.7818608E-02  0.1130116E+00
         25   -1    0    0    0    0  0.00000000000E+00  0.00000000000E+00  0.99999998245E-14  0.12500000000E+03  0.12500000000E+03 0.  0.
        -11    1    3    3    0    0 -0.91833408492E+01 -0.58518949571E+02  0.14826026925E+02  0.61062363881E+02  0.51100000000E-03 0.  1.
         23    2    1    0    0    0  0.45626460799E+01 -0.23006941727E+02  0.11725180400E+01  0.10151570939E+03  0.98761973186E+02 0.  0.
         11    1    3    3    0    0  0.13745986929E+02  0.35512007844E+02 -0.13653508885E+02  0.40453345509E+02  0.51100000000E-03 0. -1.
         22    1    1    0    0    0 -0.45626460799E+01  0.23006941727E+02 -0.11725180400E+01  0.23484290610E+02  0.00000000000E+00 0.  1.
</event>
<event>
 5    1  0.8863861E-005  0.9118800E+02  0.7818608E-02  0.1130116E+00
         25   -1    0    0    0    0  0.00000000000E+00  0.00000000000E+00  0.99999998245E-14  0.12500000000E+03  0.12500000000E+03 0.  0.
        -11    1    3    3    0    0  0.25866260037E+02  0.38905209027E+02 -0.12388535336E+02  0.48333782241E+02  0.51100000000E-03 0.  1.
         23    2    1    0    0    0  0.26431744403E+02 -0.48301609467E+01  0.85182794274E+01  0.96812615387E+02  0.92618323493E+02 0.  0.
         11    1    3    3    0    0  0.56548436610E+00 -0.43735369974E+02  0.20906814764E+02  0.48478833145E+02  0.51100000000E-03 0. -1.
         22    1    1    0    0    0 -0.26431744403E+02  0.48301609467E+01 -0.85182794274E+01  0.28187384613E+02  0.00000000000E+00 0. -1.
</event>
<event>
 5    1  0.8863861E-005  0.9118800E+02  0.7818608E-02  0.1130116E+00
         25   -1    0    0    0    0  0.00000000000E+00  0.00000000000E+00  0.99999998245E-14  0.12500000000E+03  0.12500000000E+03 0.  0.
        -11    1    3    3    0    0  0.50088373564E+02  0.24674961098E+02 -0.24495079311E+01  0.55890061378E+02  0.51100000000E-03 0.  1.
         23    2    1    0    0    0  0.12428862725E+02  0.19543528505E+02 -0.16662550108E+02  0.96468145676E+02  0.92152245871E+02 0.  0.
         11    1    3    3    0    0 -0.37659510839E+02 -0.51314325926E+01 -0.14213042177E+02  0.40578084298E+02  0.51100000000E-03 0. -1.
         22    1    1    0    0    0 -0.12428862725E+02 -0.19543528505E+02  0.16662550108E+02  0.28531854324E+02  0.00000000000E+00 0.  1.
</event>
<event>
 5    1  0.8863861E-005  0.9118800E+02  0.7818608E-02  0.1130116E+00
         25   -1    0    0    0    0  0.00000000000E+00  0.00000000000E+00  0.99999998245E-14  0.12500000000E+03  0.12500000000E+03 0.  0.
        -11    1    3    3    0    0 -0.24236385576E+02 -0.56689489797E+02 -0.96628309000E+01  0.62405696379E+02  0.51100000000E-03 0.  1.
         23    2    1    0    0    0 -0.13655449719E+02 -0.25953737900E+02 -0.51730205024E+01  0.95220343200E+02  0.90443826766E+02 0.  0.
         11    1    3    3    0    0  0.10580935857E+02  0.30735751897E+02  0.44898103976E+01  0.32814646821E+02  0.51100000000E-03 0. -1.
         22    1    1    0    0    0  0.13655449719E+02  0.25953737900E+02  0.51730205024E+01  0.29779656800E+02  0.00000000000E+00 0.  1.
</event>
<event>
 5    1  0.8863861E-005  0.9118800E+02  0.7818608E-02  0.1130116E+00
         25   -1    0    0    0    0  0.00000000000E+00  0.00000000000E+00  0.99999998245E-14  0.12500000000E+03  0.12500000000E+03 0.  0.
        -11    1    3    3    0    0 -0.35738962497E+02  0.10614797444E+02  0.47598534443E+02  0.60461292134E+02  0.51100000000E-03 0.  1.
         23    2    1    0    0    0 -0.18322316875E+02 -0.61466502251E+01  0.23181534078E+02  0.94819341842E+02  0.89887904973E+02 0.  0.
         11    1    3    3    0    0  0.17416645622E+02 -0.16761447669E+02 -0.24417000365E+02  0.34358049708E+02  0.51100000000E-03 0. -1.
         22    1    1    0    0    0  0.18322316875E+02  0.61466502251E+01 -0.23181534078E+02  0.30180658158E+02  0.00000000000E+00 0.  1.
</event>
<event>
 5    1  0.8863861E-005  0.9118800E+02  0.7818608E-02  0.1130116E+00
         25   -1    0    0    0    0  0.00000000000E+00  0.00000000000E+00  0.99999998245E-14  0.12500000000E+03  0.12500000000E+03 0.  0.
        -11    1    3    3    0    0  0.40102097404E+02 -0.13162390843E+02  0.10368804983E+02  0.43461924324E+02  0.51100000000E-03 0.  1.
         23    2    1    0    0    0  0.21934140622E+01 -0.13534733428E+02 -0.25751995359E+02  0.95825261969E+02  0.91276040077E+02 0.  0.
         11    1    3    3    0    0 -0.37908683342E+02 -0.37234258524E+00 -0.36120800341E+02  0.52363337645E+02  0.51100000000E-03 0. -1.
         22    1    1    0    0    0 -0.21934140622E+01  0.13534733428E+02  0.25751995359E+02  0.29174738031E+02  0.00000000000E+00 0. -1.
</event>
<event>
 5    1  0.8863861E-005  0.9118800E+02  0.7818608E-02  0.1130116E+00
         25   -1    0    0    0    0  0.00000000000E+00  0.00000000000E+00  0.99999998245E-14  0.12500000000E+03  0.12500000000E+03 0.  0.
        -11    1    3    3    0    0  0.29048968262E+02 -0.32649118373E+02  0.15473317551E+02  0.46359799869E+02  0.51100000000E-03 0. -1.
         23    2    1    0    0    0 -0.63275469276E+01 -0.23774939375E+02  0.30506459534E+02  0.85809061434E+02  0.76336527026E+02 0.  0.
         11    1    3    3    0    0 -0.35376515189E+02  0.88741789984E+01  0.15033141984E+02  0.39449261564E+02  0.51100000000E-03 0.  1.
         22    1    1    0    0    0  0.63275469276E+01  0.23774939375E+02 -0.30506459534E+02  0.39190938566E+02  0.00000000000E+00 0.  1.
</event>
<event>
 5    1  0.8863861E-005  0.9118800E+02  0.7818608E-02  0.1130116E+00
         25   -1    0    0    0    0  0.00000000000E+00  0.00000000000E+00  0.99999998245E-14  0.12500000000E+03  0.12500000000E+03 0.  0.
        -11    1    3    3    0    0  0.14175851068E+02  0.39213882147E+02  0.93123989214E+01  0.42724747869E+02  0.51100000000E-03 0.  1.
         23    2    1    0    0    0 -0.27633115729E+02  0.58495527015E+01  0.25713405915E+01  0.96637733797E+02  0.92381997431E+02 0.  0.
         11    1    3    3    0    0 -0.41808966797E+02 -0.33364329446E+02 -0.67410583298E+01  0.53912985928E+02  0.51100000000E-03 0. -1.
         22    1    1    0    0    0  0.27633115729E+02 -0.58495527015E+01 -0.25713405915E+01  0.28362266203E+02  0.00000000000E+00 0. -1.
</event>
<event>
 5    1  0.8863861E-005  0.9118800E+02  0.7818608E-02  0.1130116E+00
         25   -1    0    0    0    0  0.00000000000E+00  0.00000000000E+00  0.99999998245E-14  0.12500000000E+03  0.12500000000E+03 0.  0.
        -11    1    3    3    0    0 -0.79742410449E+01  0.33781016150E+02  0.45648510860E+01  0.35008333838E+02  0.51100000000E-03 0.  1.
         23    2    1    0    0    0  0.30513585112E+02  0.22333893749E+01  0.21533278660E+02  0.87586780487E+02  0.79194034634E+02 0.  0.
         11    1    3    3    0    0  0.38487826157E+02 -0.31547626775E+02  0.16968427574E+02  0.52578446649E+02  0.51100000000E-03 0. -1.
         22    1    1    0    0    0 -0.30513585112E+02 -0.22333893749E+01 -0.21533278660E+02  0.37413219513E+02  0.00000000000E+00 0. -1.
</event>
<event>
 5    1  0.8863861E-005  0.9118800E+02  0.7818608E-02  0.1130116E+00
         25   -1    0    0    0    0  0.00000000000E+00  0.00000000000E+00  0.99999998245E-14  0.12500000000E+03  0.12500000000E+03 0.  0.
        -11    1    3    3    0    0 -0.28451612488E+02 -0.38797544633E+02  0.37564821548E+02  0.61039819306E+02  0.51100000000E-03 0.  1.
         23    2    1    0    0    0 -0.16342183532E+02 -0.93589325136E+01  0.20520711093E+02  0.97147600388E+02  0.93069329519E+02 0.  0.
         11    1    3    3    0    0  0.12109428957E+02  0.29438612120E+02 -0.17044110456E+02  0.36107781082E+02  0.51100000000E-03 0. -1.
         22    1    1    0    0    0  0.16342183532E+02  0.93589325136E+01 -0.20520711093E+02  0.27852399612E+02  0.00000000000E+00 0.  1.
</event>
<event>
 5    1  0.8863861E-005  0.9118800E+02  0.7818608E-02  0.1130116E+00
         25   -1    0    0    0    0  0.00000000000E+00  0.00000000000E+00  0.99999998245E-14  0.12500000000E+03  0.12500000000E+03 0.  0.
        -11    1    3    3    0    0  0.47017827240E+02 -0.11120897660E+02  0.33271350327E+01  0.48429539240E+02  0.51100000000E-03 0.  1.
         23    2    1    0    0    0  0.11014735809E+02  0.92698787952E+01  0.25755741339E+02  0.95493843528E+02  0.90821037662E+02 0.  0.
         11    1    3    3    0    0 -0.36003091431E+02  0.20390776455E+02  0.22428606307E+02  0.47064304288E+02  0.51100000000E-03 0. -1.
         22    1    1    0    0    0 -0.11014735809E+02 -0.92698787952E+01 -0.25755741339E+02  0.29506156472E+02  0.00000000000E+00 0. -1.
</event>
<event>
 5    1  0.8863861E-005  0.9118800E+02  0.7818608E-02  0.1130116E+00
         25   -1    0    0    0    0  0.00000000000E+00  0.00000000000E+00  0.99999998245E-14  0.12500000000E+03  0.12500000000E+03 0.  0.
        -11    1    3    3    0    0  0.18097038220E+02  0.34890156352E+02  0.38628705980E+02  0.55109007690E+02  0.51100000000E-03 0. -1.
         23    2    1    0    0    0  0.25584342445E+02  0.12721803043E+02  0.51301608707E+01  0.95970335834E+02  0.91474498952E+02 0.  0.
         11    1    3    3    0    0  0.74873042249E+01 -0.22168353310E+02 -0.33498545109E+02  0.40861328144E+02  0.51100000000E-03 0.  1.
         22    1    1    0    0    0 -0.25584342445E+02 -0.12721803043E+02 -0.51301608707E+01  0.29029664166E+02  0.00000000000E+00 0. -1.
</event>
<event>
 5    1  0.8863861E-005  0.9118800E+02  0.7818608E-02  0.1130116E+00
         25   -1    0    0    0    0  0.00000000000E+00  0.00000000000E+00  0.99999998245E-14  0.12500000000E+03  0.12500000000E+03 0.  0.
        -11    1    3    3    0    0 -0.10058610328E+02  0.28771926040E+02  0.33184155230E+02  0.45057602337E+02  0.51100000000E-03 0.  1.
         23    2    1    0    0    0 -0.23700314983E+02 -0.14056008549E+02  0.95751687396E+01  0.95828778514E+02  0.91280855761E+02 0.  0.
         11    1    3    3    0    0 -0.13641704654E+02 -0.42827934589E+02 -0.23608986490E+02  0.50771176177E+02  0.51100000000E-03 0. -1.
         22    1    1    0    0    0  0.23700314983E+02  0.14056008549E+02 -0.95751687396E+01  0.29171221486E+02  0.00000000000E+00 0. -1.
</event>
<event>
 5    1  0.8863861E-005  0.9118800E+02  0.7818608E-02  0.1130116E+00
         25   -1    0    0    0    0  0.00000000000E+00  0.00000000000E+00  0.99999998245E-14  0.12500000000E+03  0.12500000000E+03 0.  0.
        -11    1    3    3    0    0  0.32178891136E+02 -0.77557949434E+01 -0.29256888496E+02  0.44176904766E+02  0.51100000000E-03 0. -1.
         23    2    1    0    0    0  0.17577310144E+02 -0.64427758152E+01  0.21198136729E+02  0.96718695347E+02  0.92491479806E+02 0.  0.
         11    1    3    3    0    0 -0.14601580992E+02  0.13130191282E+01  0.50455025225E+02  0.52541790581E+02  0.51100000000E-03 0.  1.
         22    1    1    0    0    0 -0.17577310144E+02  0.64427758152E+01 -0.21198136729E+02  0.28281304653E+02  0.00000000000E+00 0.  1.
</event>
<event>
 5    1  0.8863861E-005  0.9118800E+02  0.7818608E-02  0.1130116E+00
         25   -1    0    0    0    0  0.00000000000E+00  0.00000000000E+00  0.99999998245E-14  0.12500000000E+03  0.12500000000E+03 0.  0.
        -11    1    3    3    0    0 -0.21567429868E+02 -0.25650820565E+02 -0.31371314443E+02  0.45905097723E+02  0.51100000000E-03 0. -1.
         23    2    1    0    0    0  0.16721323237E+02 -0.27404373761E+02 -0.48079050610E+01  0.92538972550E+02  0.86658774152E+02 0.  0.
         11    1    3    3    0    0  0.38288753105E+02 -0.17535531953E+01  0.26563409382E+02  0.46633874828E+02  0.51100000000E-03 0.  1.
         22    1    1    0    0    0 -0.16721323237E+02  0.27404373761E+02  0.48079050610E+01  0.32461027450E+02  0.00000000000E+00 0. -1.
</event>
<event>
 5    1  0.8863861E-005  0.9118800E+02  0.7818608E-02  0.1130116E+00
         25   -1    0    0    0    0  0.00000000000E+00  0.00000000000E+00  0.99999998245E-14  0.12500000000E+03  0.12500000000E+03 0.  0.
        -11    1    3    3    0    0  0.57654188986E+02 -0.48517707454E+01  0.12583969342E+02  0.59210653363E+02  0.51100000000E-03 0. -1.
         23    2    1    0    0    0  0.35476036321E+02  0.11093868086E+02  0.55448332262E+01  0.87418512035E+02  0.78927992556E+02 0.  0.
         11    1    3    3    0    0 -0.22178152665E+02  0.15945638831E+02 -0.70391361154E+01  0.28207858673E+02  0.51100000000E-03 0.  1.
         22    1    1    0    0    0 -0.35476036321E+02 -0.11093868086E+02 -0.55448332262E+01  0.37581487965E+02  0.00000000000E+00 0. -1.
</event>
<event>
 5    1  0.8863861E-005  0.9118800E+02  0.7818608E-02  0.1130116E+00
         25   -1    0    0    0    0  0.00000000000E+00  0.00000000000E+00  0.99999998245E-14  0.12500000000E+03  0.12500000000E+03 0.  0.
        -11    1    3    3    0    0  0.45111101323E+02  0.14121869615E+02  0.27097773950E+02  0.54486035067E+02  0.51100000000E-03 0.  1.
         23    2    1    0    0    0  0.16849349761E+02  0.24633770658E+02 -0.19122165679E+00  0.95154400493E+02  0.90352643145E+02 0.  0.
         11    1    3    3    0    0 -0.28261751562E+02  0.10511901043E+02 -0.27288995607E+02  0.40668365426E+02  0.51100000000E-03 0. -1.
         22    1    1    0    0    0 -0.16849349761E+02 -0.24633770658E+02  0.19122165679E+00  0.29845599507E+02  0.00000000000E+00 0.  1.
</event>
<event>
 5    1  0.8863861E-005  0.9118800E+02  0.7818608E-02  0.1130116E+00
         25   -1    0    0    0    0  0.00000000000E+00  0.00000000000E+00  0.99999998245E-14  0.12500000000E+03  0.12500000000E+03 0.  0.
        -11    1    3    3    0    0 -0.10503750995E+02 -0.36789764739E+02 -0.14488886881E+01  0.38287267508E+02  0.51100000000E-03 0.  1.
         23    2    1    0    0    0 -0.16401737703E+02  0.15952704856E+02  0.19097555901E+02  0.95196939196E+02  0.90411474930E+02 0.  0.
         11    1    3    3    0    0 -0.58979867078E+01  0.52742469595E+02  0.20546444589E+02  0.56909671688E+02  0.51100000000E-03 0. -1.
         22    1    1    0    0    0  0.16401737703E+02 -0.15952704856E+02 -0.19097555901E+02  0.29803060804E+02  0.00000000000E+00 0. -1.
</event>
<event>
 5    1  0.8863861E-005  0.9118800E+02  0.7818608E-02  0.1130116E+00
         25   -1    0    0    0    0  0.00000000000E+00  0.00000000000E+00  0.99999998245E-14  0.12500000000E+03  0.12500000000E+03 0.  0.
        -11    1    3    3    0    0 -0.14253988254E+02  0.16075951690E+02  0.51975701043E+02  0.56241318469E+02  0.51100000000E-03 0.  1.
         23    2    1    0    0    0 -0.22633302788E+02 -0.39730065788E+01  0.22708578556E+02  0.92693178485E+02  0.86880922079E+02 0.  0.
         11    1    3    3    0    0 -0.83793145335E+01 -0.20048958269E+02 -0.29267122487E+02  0.36451860016E+02  0.51100000000E-03 0. -1.
         22    1    1    0    0    0  0.22633302788E+02  0.39730065788E+01 -0.22708578556E+02  0.32306821515E+02  0.00000000000E+00 0.  1.
</event>
<event>
 5    1  0.8863861E-005  0.9118800E+02  0.7818608E-02  0.1130116E+00
         25   -1    0    0    0    0  0.00000000000E+00  0.00000000000E+00  0.99999998245E-14  0.12500000000E+03  0.12500000000E+03 0.  0.
        -11    1    3    3    0    0  0.44038253975E+02 -0.24982362175E+02 -0.34657448689E+02  0.61356539855E+02  0.51100000000E-03 0. -1.
         23    2    1    0    0    0  0.24032796600E+02 -0.10229754074E+02 -0.82821951836E+01  0.97598942759E+02  0.93673559182E+02 0.  0.
         11    1    3    3    0    0 -0.20005457375E+02  0.14752608101E+02  0.26375253506E+02  0.36242402905E+02  0.51100000000E-03 0.  1.
         22    1    1    0    0    0 -0.24032796600E+02  0.10229754074E+02  0.82821951836E+01  0.27401057241E+02  0.00000000000E+00 0. -1.
</event>
<event>
 5    1  0.8863861E-005  0.9118800E+02  0.7818608E-02  0.1130116E+00
         25   -1    0    0    0    0  0.00000000000E+00  0.00000000000E+00  0.99999998245E-14  0.12500000000E+03  0.12500000000E+03 0.  0.
        -11    1    3    3    0    0 -0.31543533382E+02  0.34625143323E+02 -0.39518797993E+02  0.61283198704E+02  0.51100000000E-03 0.  1.
         23    2    1    0    0    0 -0.76060126194E+01  0.21017023760E+02 -0.19664321008E+02  0.95230011145E+02  0.90457187588E+02 0.  0.
         11    1    3    3    0    0  0.23937520763E+02 -0.13608119563E+02  0.19854476985E+02  0.33946812441E+02  0.51100000000E-03 0. -1.
         22    1    1    0    0    0  0.76060126194E+01 -0.21017023760E+02  0.19664321008E+02  0.29769988855E+02  0.00000000000E+00 0.  1.
</event>
<event>
 5    1  0.8863861E-005  0.9118800E+02  0.7818608E-02  0.1130116E+00
         25   -1    0    0    0    0  0.00000000000E+00  0.00000000000E+00  0.99999998245E-14  0.12500000000E+03  0.12500000000E+03 0.  0.
        -11    1    3    3    0    0 -0.23948497980E+02  0.17988749902E+02 -0.10031487409E+02  0.31587282543E+02  0.51100000000E-03 0.  1.
         23    2    1    0    0    0  0.19038533054E+02 -0.25015585021E+02  0.17162621662E+01  0.93516817337E+02  0.88057960084E+02 0.  0.
         11    1    3    3    0    0  0.42987031035E+02 -0.43004334923E+02  0.11747749575E+02  0.61929534793E+02  0.51100000000E-03 0. -1.
         22    1    1    0    0    0 -0.19038533054E+02  0.25015585021E+02 -0.17162621662E+01  0.31483182663E+02  0.00000000000E+00 0. -1.
</event>
<event>
 5    1  0.8863861E-005  0.9118800E+02  0.7818608E-02  0.1130116E+00
         25   -1    0    0    0    0  0.00000000000E+00  0.00000000000E+00  0.99999998245E-14  0.12500000000E+03  0.12500000000E+03 0.  0.
        -11    1    3    3    0    0  0.10787630322E+02 -0.21859679792E+02  0.51482632589E+02  0.56962092896E+02  0.51100000000E-03 0.  1.
         23    2    1    0    0    0 -0.99913516971E+01 -0.45952464416E+00  0.29026660510E+02  0.94298448052E+02  0.89160596752E+02 0.  0.
         11    1    3    3    0    0 -0.20778982019E+02  0.21400155148E+02 -0.22455972079E+02  0.37336355156E+02  0.51100000000E-03 0. -1.
         22    1    1    0    0    0  0.99913516971E+01  0.45952464416E+00 -0.29026660510E+02  0.30701551948E+02  0.00000000000E+00 0.  1.
</event>
<event>
 5    1  0.8863861E-005  0.9118800E+02  0.7818608E-02  0.1130116E+00
         25   -1    0    0    0    0  0.00000000000E+00  0.00000000000E+00  0.99999998245E-14  0.12500000000E+03  0.12500000000E+03 0.  0.
        -11    1    3    3    0    0 -0.13593402395E+02  0.39950440385E+02  0.10874779519E+02  0.43578424771E+02  0.51100000000E-03 0.  1.
         23    2    1    0    0    0 -0.26787428145E+02 -0.59401488911E+01 -0.10140381036E+02  0.95748008563E+02  0.91170182301E+02 0.  0.
         11    1    3    3    0    0 -0.13194025750E+02 -0.45890589276E+02 -0.21015160555E+02  0.52169583792E+02  0.51100000000E-03 0. -1.
         22    1    1    0    0    0  0.26787428145E+02  0.59401488911E+01  0.10140381036E+02  0.29251991437E+02  0.00000000000E+00 0. -1.
</event>
<event>
 5    1  0.8863861E-005  0.9118800E+02  0.7818608E-02  0.1130116E+00
         25   -1    0    0    0    0  0.00000000000E+00  0.00000000000E+00  0.99999998245E-14  0.12500000000E+03  0.12500000000E+03 0.  0.
        -11    1    3    3    0    0  0.57727159929E+01  0.22913259021E+02 -0.32335804767E+02  0.40049294114E+02  0.51100000000E-03 0.  1.
         23    2    1    0    0    0 -0.20188019495E+02 -0.18751526172E+02 -0.28861239025E+01  0.97296109008E+02  0.93268575909E+02 0.  0.
         11    1    3    3    0    0 -0.25960735488E+02 -0.41664785193E+02  0.29449680864E+02  0.57246814894E+02  0.51100000000E-03 0. -1.
         22    1    1    0    0    0  0.20188019495E+02  0.18751526172E+02  0.28861239025E+01  0.27703890992E+02  0.00000000000E+00 0. -1.
</event>
<event>
 5    1  0.8863861E-005  0.9118800E+02  0.7818608E-02  0.1130116E+00
         25   -1    0    0    0    0  0.00000000000E+00  0.00000000000E+00  0.99999998245E-14  0.12500000000E+03  0.12500000000E+03 0.  0.
        -11    1    3    3    0    0 -0.21568266343E+02 -0.16390782904E+02  0.41022314483E+02  0.49159720941E+02  0.51100000000E-03 0.  1.
         23    2    1    0    0    0 -0.24138662354E+02  0.16148941159E+02  0.97474632796E+01  0.94365438453E+02  0.89254465509E+02 0.  0.
         11    1    3    3    0    0 -0.25703960110E+01  0.32539724063E+02 -0.31274851203E+02  0.45205717512E+02  0.51100000000E-03 0. -1.
         22    1    1    0    0    0  0.24138662354E+02 -0.16148941159E+02 -0.97474632796E+01  0.30634561547E+02  0.00000000000E+00 0.  1.
</event>
<event>
 5    1  0.8863861E-005  0.9118800E+02  0.7818608E-02  0.1130116E+00
         25   -1    0    0    0    0  0.00000000000E+00  0.00000000000E+00  0.99999998245E-14  0.12500000000E+03  0.12500000000E+03 0.  0.
        -11    1    3    3    0    0 -0.36186713260E+02 -0.43074554741E+01  0.74121896535E+01  0.37188344208E+02  0.51100000000E-03 0. -1.
         23    2    1    0    0    0  0.19817310984E+02 -0.19114015526E+02  0.11280548009E+02  0.95245636160E+02  0.90478776737E+02 0.  0.
         11    1    3    3    0    0  0.56004024244E+02 -0.14806560052E+02  0.38683583551E+01  0.58057291951E+02  0.51100000000E-03 0.  1.
         22    1    1    0    0    0 -0.19817310984E+02  0.19114015526E+02 -0.11280548009E+02  0.29754363840E+02  0.00000000000E+00 0.  1.
</event>
<event>
 5    1  0.8863861E-005  0.9118800E+02  0.7818608E-02  0.1130116E+00
         25   -1    0    0    0    0  0.00000000000E+00  0.00000000000E+00  0.99999998245E-14  0.12500000000E+03  0.12500000000E+03 0.  0.
        -11    1    3    3    0    0  0.11597845559E+02  0.45772528133E+02 -0.21419762014E+02  0.51850174140E+02  0.51100000000E-03 0.  1.
         23    2    1    0    0    0  0.26690295681E+02  0.62035238663E+01 -0.57807243536E+01  0.96995136744E+02  0.92864332152E+02 0.  0.
         11    1    3    3    0    0  0.15092450123E+02 -0.39569004267E+02  0.15639037660E+02  0.45144962605E+02  0.51100000000E-03 0. -1.
         22    1    1    0    0    0 -0.26690295681E+02 -0.62035238663E+01  0.57807243536E+01  0.28004863256E+02  0.00000000000E+00 0. -1.
</event>
<event>
 5    1  0.8863861E-005  0.9118800E+02  0.7818608E-02  0.1130116E+00
         25   -1    0    0    0    0  0.00000000000E+00  0.00000000000E+00  0.99999998245E-14  0.12500000000E+03  0.12500000000E+03 0.  0.
        -11    1    3    3    0    0  0.81736513279E+01  0.20801082374E+02 -0.37276554154E+02  0.43463031346E+02  0.51100000000E-03 0.  1.
         23    2    1    0    0    0  0.17574185741E+02  0.17610170757E+02  0.14514212213E+02  0.96196658619E+02  0.91783248225E+02 0.  0.
         11    1    3    3    0    0  0.94005344131E+01 -0.31909116178E+01  0.51790766367E+02  0.52733627273E+02  0.51100000000E-03 0. -1.
         22    1    1    0    0    0 -0.17574185741E+02 -0.17610170757E+02 -0.14514212213E+02  0.28803341381E+02  0.00000000000E+00 0. -1.
</event>
<event>
 5    1  0.8863861E-005  0.9118800E+02  0.7818608E-02  0.1130116E+00
         25   -1    0    0    0    0  0.00000000000E+00  0.00000000000E+00  0.99999998245E-14  0.12500000000E+03  0.12500000000E+03 0.  0.
        -11    1    3    3    0    0  0.54555181878E+02  0.15262956930E+02 -0.21940020293E+02  0.60750228104E+02  0.51100000000E-03 0. -1.
         23    2    1    0    0    0  0.22060317143E+02  0.16548418349E+02 -0.69420109272E+01  0.96562361948E+02  0.92279957124E+02 0.  0.
         11    1    3    3    0    0 -0.32494864735E+02  0.12854614185E+01  0.14998009366E+02  0.35812133843E+02  0.51100000000E-03 0.  1.
         22    1    1    0    0    0 -0.22060317143E+02 -0.16548418349E+02  0.69420109272E+01  0.28437638052E+02  0.00000000000E+00 0. -1.
</event>
<event>
 5    1  0.8863861E-005  0.9118800E+02  0.7818608E-02  0.1130116E+00
         25   -1    0    0    0    0  0.00000000000E+00  0.00000000000E+00  0.99999998245E-14  0.12500000000E+03  0.12500000000E+03 0.  0.
        -11    1    3    3    0    0 -0.17478621149E+02  0.38504323263E+02 -0.43185499004E+02  0.60440652145E+02  0.51100000000E-03 0.  1.
         23    2    1    0    0    0 -0.17345849951E+02  0.11822863573E+02 -0.22716408314E+02  0.94069532492E+02  0.88839085559E+02 0.  0.
         11    1    3    3    0    0  0.13277119790E+00 -0.26681459690E+02  0.20469090690E+02  0.33628880346E+02  0.51100000000E-03 0. -1.
         22    1    1    0    0    0  0.17345849951E+02 -0.11822863573E+02  0.22716408314E+02  0.30930467508E+02  0.00000000000E+00 0.  1.
</event>
<event>
 5    1  0.8863861E-005  0.9118800E+02  0.7818608E-02  0.1130116E+00
         25   -1    0    0    0    0  0.00000000000E+00  0.00000000000E+00  0.99999998245E-14  0.12500000000E+03  0.12500000000E+03 0.  0.
        -11    1    3    3    0    0 -0.45438751977E+02 -0.84325118624E+01 -0.26721968068E+02  0.53383995872E+02  0.51100000000E-03 0.  1.
         23    2    1    0    0    0 -0.38552770812E+02  0.14666736815E+02 -0.10506366536E+02  0.82434602740E+02  0.70594976344E+02 0.  0.
         11    1    3    3    0    0  0.68859811652E+01  0.23099248678E+02  0.16215601532E+02  0.29050606868E+02  0.51100000000E-03 0. -1.
         22    1    1    0    0    0  0.38552770812E+02 -0.14666736815E+02  0.10506366536E+02  0.42565397260E+02  0.00000000000E+00 0.  1.
</event>
<event>
 5    1  0.8863861E-005  0.9118800E+02  0.7818608E-02  0.1130116E+00
         25   -1    0    0    0    0  0.00000000000E+00  0.00000000000E+00  0.99999998245E-14  0.12500000000E+03  0.12500000000E+03 0.  0.
        -11    1    3    3    0    0 -0.13261310190E+02  0.22329971513E+02 -0.22386457172E+02  0.34287657265E+02  0.51100000000E-03 0. -1.
         23    2    1    0    0    0 -0.32319117773E+00 -0.29093031135E+02  0.72254859309E+01  0.95021398296E+02  0.90168451101E+02 0.  0.
         11    1    3    3    0    0  0.12938119012E+02 -0.51423002649E+02  0.29611943103E+02  0.60733741031E+02  0.51100000000E-03 0.  1.
         22    1    1    0    0    0  0.32319117773E+00  0.29093031135E+02 -0.72254859309E+01  0.29978601704E+02  0.00000000000E+00 0.  1.
</event>
<event>
 5    1  0.8863861E-005  0.9118800E+02  0.7818608E-02  0.1130116E+00
         25   -1    0    0    0    0  0.00000000000E+00  0.00000000000E+00  0.99999998245E-14  0.12500000000E+03  0.12500000000E+03 0.  0.
        -11    1    3    3    0    0  0.16201895335E+02 -0.48751456389E+02 -0.18180642330E+02  0.54495336206E+02  0.51100000000E-03 0.  1.
         23    2    1    0    0    0 -0.15311528538E+02 -0.19236970137E+02 -0.10091253482E+02  0.98422992586E+02  0.94766809309E+02 0.  0.
         11    1    3    3    0    0 -0.31513423872E+02  0.29514486252E+02  0.80893888474E+01  0.43927656380E+02  0.51100000000E-03 0. -1.
         22    1    1    0    0    0  0.15311528538E+02  0.19236970137E+02  0.10091253482E+02  0.26577007414E+02  0.00000000000E+00 0. -1.
</event>
<event>
 5    1  0.8863861E-005  0.9118800E+02  0.7818608E-02  0.1130116E+00
         25   -1    0    0    0    0  0.00000000000E+00  0.00000000000E+00  0.99999998245E-14  0.12500000000E+03  0.12500000000E+03 0.  0.
        -11    1    3    3    0    0 -0.80727601595E+01 -0.15486926272E+02  0.25199494669E+02  0.30659890309E+02  0.51100000000E-03 0.  1.
         23    2    1    0    0    0 -0.29894962973E+02  0.11701366544E+01 -0.23762751408E+02  0.86793372493E+02  0.77931656747E+02 0.  0.
         11    1    3    3    0    0 -0.21822202814E+02  0.16657062927E+02 -0.48962246077E+02  0.56133482184E+02  0.51100000000E-03 0. -1.
         22    1    1    0    0    0  0.29894962973E+02 -0.11701366544E+01  0.23762751408E+02  0.38206627507E+02  0.00000000000E+00 0. -1.
</event>
<event>
 5    1  0.8863861E-005  0.9118800E+02  0.7818608E-02  0.1130116E+00
         25   -1    0    0    0    0  0.00000000000E+00  0.00000000000E+00  0.99999998245E-14  0.12500000000E+03  0.12500000000E+03 0.  0.
        -11    1    3    3    0    0 -0.45643761542E+02 -0.10976427612E+02  0.37064358744E+01  0.47091109543E+02  0.51100000000E-03 0. -1.
         23    2    1    0    0    0 -0.11832317869E+02  0.25458478305E+02  0.13000982761E+00  0.96925905779E+02  0.92771097034E+02 0.  0.
         11    1    3    3    0    0  0.33811443673E+02  0.36434905917E+02 -0.35764260468E+01  0.49834796237E+02  0.51100000000E-03 0.  1.
         22    1    1    0    0    0  0.11832317869E+02 -0.25458478305E+02 -0.13000982761E+00  0.28074094221E+02  0.00000000000E+00 0.  1.
</event>
<event>
 5    1  0.8863861E-005  0.9118800E+02  0.7818608E-02  0.1130116E+00
         25   -1    0    0    0    0  0.00000000000E+00  0.00000000000E+00  0.99999998245E-14  0.12500000000E+03  0.12500000000E+03 0.  0.
        -11    1    3    3    0    0  0.33441391586E+02 -0.67733985671E-01 -0.36391403818E+01  0.33638885268E+02  0.51100000000E-03 0. -1.
         23    2    1    0    0    0 -0.28046417625E+02  0.72245694000E+01  0.28570285972E+01  0.95897447586E+02  0.91374842798E+02 0.  0.
         11    1    3    3    0    0 -0.61487809211E+02  0.72923033857E+01  0.64961689789E+01  0.62258562318E+02  0.51100000000E-03 0.  1.
         22    1    1    0    0    0  0.28046417625E+02 -0.72245694000E+01 -0.28570285972E+01  0.29102552414E+02  0.00000000000E+00 0.  1.
</event>
<event>
 5    1  0.8863861E-005  0.9118800E+02  0.7818608E-02  0.1130116E+00
         25   -1    0    0    0    0  0.00000000000E+00  0.00000000000E+00  0.99999998245E-14  0.12500000000E+03  0.12500000000E+03 0.  0.
        -11    1    3    3    0    0  0.80663115598E+01 -0.27212026769E+02  0.54399590565E+02  0.61358579163E+02  0.51100000000E-03 0.  1.
         23    2    1    0    0    0 -0.25273140411E+01 -0.79783634517E+01  0.28413025455E+02  0.95380047010E+02  0.90664280466E+02 0.  0.
         11    1    3    3    0    0 -0.10593625601E+02  0.19233663317E+02 -0.25986565110E+02  0.34021467847E+02  0.51100000000E-03 0. -1.
         22    1    1    0    0    0  0.25273140411E+01  0.79783634517E+01 -0.28413025455E+02  0.29619952990E+02  0.00000000000E+00 0.  1.
</event>
<event>
 5    1  0.8863861E-005  0.9118800E+02  0.7818608E-02  0.1130116E+00
         25   -1    0    0    0    0  0.00000000000E+00  0.00000000000E+00  0.99999998245E-14  0.12500000000E+03  0.12500000000E+03 0.  0.
        -11    1    3    3    0    0 -0.25494463868E+02  0.49971556039E+01 -0.22374039554E+02  0.34286103574E+02  0.51100000000E-03 0.  1.
         23    2    1    0    0    0  0.13742387778E+02  0.22558516748E+01  0.25317767201E+02  0.96104820045E+02  0.91658087538E+02 0.  0.
         11    1    3    3    0    0  0.39236851646E+02 -0.27413039291E+01  0.47691806755E+02  0.61818716471E+02  0.51100000000E-03 0. -1.
         22    1    1    0    0    0 -0.13742387778E+02 -0.22558516748E+01 -0.25317767201E+02  0.28895179955E+02  0.00000000000E+00 0. -1.
</event>
<event>
 5    1  0.8863861E-005  0.9118800E+02  0.7818608E-02  0.1130116E+00
         25   -1    0    0    0    0  0.00000000000E+00  0.00000000000E+00  0.99999998245E-14  0.12500000000E+03  0.12500000000E+03 0.  0.
        -11    1    3    3    0    0 -0.23763989424E+02 -0.61022382476E+01  0.25618313577E+02  0.35471995937E+02  0.51100000000E-03 0. -1.
         23    2    1    0    0    0  0.27503462025E+02  0.74012725496E+01 -0.40607526688E+01  0.96230068284E+02  0.91828737719E+02 0.  0.
         11    1    3    3    0    0  0.51267451448E+02  0.13503510797E+02 -0.29679066246E+02  0.60758072347E+02  0.51100000000E-03 0.  1.
         22    1    1    0    0    0 -0.27503462025E+02 -0.74012725496E+01  0.40607526688E+01  0.28769931716E+02  0.00000000000E+00 0.  1.
</event>
<event>
 5    1  0.8863861E-005  0.9118800E+02  0.7818608E-02  0.1130116E+00
         25   -1    0    0    0    0  0.00000000000E+00  0.00000000000E+00  0.99999998245E-14  0.12500000000E+03  0.12500000000E+03 0.  0.
        -11    1    3    3    0    0 -0.39601052609E+01 -0.20939466113E+02  0.26415552462E+02  0.33940021905E+02  0.51100000000E-03 0.  1.
         23    2    1    0    0    0  0.42162208800E+01  0.27025716005E+02 -0.11201618214E+02  0.95442562785E+02  0.90750430833E+02 0.  0.
         11    1    3    3    0    0  0.81763261409E+01  0.47965182118E+02 -0.37617170676E+02  0.61502540880E+02  0.51100000000E-03 0. -1.
         22    1    1    0    0    0 -0.42162208800E+01 -0.27025716005E+02  0.11201618214E+02  0.29557437215E+02  0.00000000000E+00 0. -1.
</event>
<event>
 5    1  0.8863861E-005  0.9118800E+02  0.7818608E-02  0.1130116E+00
         25   -1    0    0    0    0  0.00000000000E+00  0.00000000000E+00  0.99999998245E-14  0.12500000000E+03  0.12500000000E+03 0.  0.
        -11    1    3    3    0    0 -0.27123663382E+02 -0.31680286475E+02  0.22462063022E+02  0.47369588788E+02  0.51100000000E-03 0.  1.
         23    2    1    0    0    0 -0.21072568320E+02  0.15508388181E+02  0.12616828520E+02  0.95952666190E+02  0.91450350177E+02 0.  0.
         11    1    3    3    0    0  0.60510950624E+01  0.47188674656E+02 -0.98452345023E+01  0.48583077403E+02  0.51100000000E-03 0. -1.
         22    1    1    0    0    0  0.21072568320E+02 -0.15508388181E+02 -0.12616828520E+02  0.29047333810E+02  0.00000000000E+00 0. -1.
</event>
<event>
 5    1  0.8863861E-005  0.9118800E+02  0.7818608E-02  0.1130116E+00
         25   -1    0    0    0    0  0.00000000000E+00  0.00000000000E+00  0.99999998245E-14  0.12500000000E+03  0.12500000000E+03 0.  0.
        -11    1    3    3    0    0 -0.25829547018E+01 -0.30970471833E+02 -0.43490217767E+02  0.53453164754E+02  0.51100000000E-03 0.  1.
         23    2    1    0    0    0  0.22321062037E+02 -0.11009863781E+02 -0.18507662432E+02  0.93984189844E+02  0.88718923917E+02 0.  0.
         11    1    3    3    0    0  0.24904016739E+02  0.19960608052E+02  0.24982555335E+02  0.40531025090E+02  0.51100000000E-03 0. -1.
         22    1    1    0    0    0 -0.22321062037E+02  0.11009863781E+02  0.18507662432E+02  0.31015810156E+02  0.00000000000E+00 0. -1.
</event>
<event>
 5    1  0.8863861E-005  0.9118800E+02  0.7818608E-02  0.1130116E+00
         25   -1    0    0    0    0  0.00000000000E+00  0.00000000000E+00  0.99999998245E-14  0.12500000000E+03  0.12500000000E+03 0.  0.
        -11    1    3    3    0    0  0.31184087468E+02 -0.50529482459E+02 -0.18868075203E+02  0.62303131309E+02  0.51100000000E-03 0.  1.
         23    2    1    0    0    0  0.17133056195E+02 -0.25553026779E+02 -0.62956593948E+01  0.93597227521E+02  0.88172030034E+02 0.  0.
         11    1    3    3    0    0 -0.14051031273E+02  0.24976455680E+02  0.12572415809E+02  0.31294096212E+02  0.51100000000E-03 0. -1.
         22    1    1    0    0    0 -0.17133056195E+02  0.25553026779E+02  0.62956593948E+01  0.31402772479E+02  0.00000000000E+00 0.  1.
</event>
<event>
 5    1  0.8863861E-005  0.9118800E+02  0.7818608E-02  0.1130116E+00
         25   -1    0    0    0    0  0.00000000000E+00  0.00000000000E+00  0.99999998245E-14  0.12500000000E+03  0.12500000000E+03 0.  0.
        -11    1    3    3    0    0 -0.32242245656E+01  0.26437312032E+02  0.23321777365E+02  0.35401022461E+02  0.51100000000E-03 0. -1.
         23    2    1    0    0    0  0.27182267680E+02 -0.12844888574E+02 -0.76974739805E+01  0.93965858407E+02  0.88693092188E+02 0.  0.
         11    1    3    3    0    0  0.30406492246E+02 -0.39282200606E+02 -0.31019251346E+02  0.58564835947E+02  0.51100000000E-03 0.  1.
         22    1    1    0    0    0 -0.27182267680E+02  0.12844888574E+02  0.76974739805E+01  0.31034141593E+02  0.00000000000E+00 0.  1.
</event>
<event>
 5    1  0.8863861E-005  0.9118800E+02  0.7818608E-02  0.1130116E+00
         25   -1    0    0    0    0  0.00000000000E+00  0.00000000000E+00  0.99999998245E-14  0.12500000000E+03  0.12500000000E+03 0.  0.
        -11    1    3    3    0    0 -0.21984967856E+02 -0.44548813667E+02  0.30589373436E+02  0.58340769435E+02  0.51100000000E-03 0.  1.
         23    2    1    0    0    0  0.12617894579E+01 -0.13847057881E+02  0.23787637054E+02  0.97446691646E+02  0.93470171240E+02 0.  0.
         11    1    3    3    0    0  0.23246757314E+02  0.30701755786E+02 -0.68017363814E+01  0.39105922212E+02  0.51100000000E-03 0. -1.
         22    1    1    0    0    0 -0.12617894579E+01  0.13847057881E+02 -0.23787637054E+02  0.27553308354E+02  0.00000000000E+00 0.  1.
</event>
<event>
 5    1  0.8863861E-005  0.9118800E+02  0.7818608E-02  0.1130116E+00
         25   -1    0    0    0    0  0.00000000000E+00  0.00000000000E+00  0.99999998245E-14  0.12500000000E+03  0.12500000000E+03 0.  0.
        -11    1    3    3    0    0  0.10339164491E+02 -0.34243736943E+02 -0.82698945095E+01  0.36714070841E+02  0.51100000000E-03 0.  1.
         23    2    1    0    0    0  0.18413787336E+02  0.21937877973E+02  0.70488137418E+01  0.95503833652E+02  0.90834786360E+02 0.  0.
         11    1    3    3    0    0  0.80746228453E+01  0.56181614917E+02  0.15318708251E+02  0.58789762812E+02  0.51100000000E-03 0. -1.
         22    1    1    0    0    0 -0.18413787336E+02 -0.21937877973E+02 -0.70488137418E+01  0.29496166348E+02  0.00000000000E+00 0. -1.
</event>
<event>
 5    1  0.8863861E-005  0.9118800E+02  0.7818608E-02  0.1130116E+00
         25   -1    0    0    0    0  0.00000000000E+00  0.00000000000E+00  0.99999998245E-14  0.12500000000E+03  0.12500000000E+03 0.  0.
        -11    1    3    3    0    0 -0.32902893436E+02 -0.32958365293E+01 -0.15033469985E+02  0.36324484235E+02  0.51100000000E-03 0. -1.
         23    2    1    0    0    0  0.22375325415E+02  0.17145846929E+02 -0.81148107147E+01  0.95665968445E+02  0.91057630714E+02 0.  0.
         11    1    3    3    0    0  0.55278218851E+02  0.20441683458E+02  0.69186592701E+01  0.59341484210E+02  0.51100000000E-03 0.  1.
         22    1    1    0    0    0 -0.22375325415E+02 -0.17145846929E+02  0.81148107147E+01  0.29334031555E+02  0.00000000000E+00 0.  1.
</event>
<event>
 5    1  0.8863861E-005  0.9118800E+02  0.7818608E-02  0.1130116E+00
         25   -1    0    0    0    0  0.00000000000E+00  0.00000000000E+00  0.99999998245E-14  0.12500000000E+03  0.12500000000E+03 0.  0.
        -11    1    3    3    0    0 -0.33678997644E+02 -0.40903806036E+02  0.24575718677E+02  0.58406867570E+02  0.51100000000E-03 0.  1.
         23    2    1    0    0    0 -0.23722615437E+02 -0.49380159735E+01  0.62829496765E+01  0.99967582187E+02  0.96782723390E+02 0.  0.
         11    1    3    3    0    0  0.99563822074E+01  0.35965790063E+02 -0.18292769001E+02  0.41560714617E+02  0.51100000000E-03 0. -1.
         22    1    1    0    0    0  0.23722615437E+02  0.49380159735E+01 -0.62829496765E+01  0.25032417813E+02  0.00000000000E+00 0.  1.
</event>
<event>
 5    1  0.8863861E-005  0.9118800E+02  0.7818608E-02  0.1130116E+00
         25   -1    0    0    0    0  0.00000000000E+00  0.00000000000E+00  0.99999998245E-14  0.12500000000E+03  0.12500000000E+03 0.  0.
        -11    1    3    3    0    0  0.84083913716E+01  0.13019675057E+02  0.56108867995E+02  0.58210119842E+02  0.51100000000E-03 0.  1.
         23    2    1    0    0    0  0.18128127988E+01 -0.99062735647E+01  0.28897430370E+02  0.94398006141E+02  0.89300064587E+02 0.  0.
         11    1    3    3    0    0 -0.65955785728E+01 -0.22925948622E+02 -0.27211437625E+02  0.36187886299E+02  0.51100000000E-03 0. -1.
         22    1    1    0    0    0 -0.18128127988E+01  0.99062735647E+01 -0.28897430370E+02  0.30601993859E+02  0.00000000000E+00 0.  1.
</event>
<event>
 5    1  0.8863861E-005  0.9118800E+02  0.7818608E-02  0.1130116E+00
         25   -1    0    0    0    0  0.00000000000E+00  0.00000000000E+00  0.99999998245E-14  0.12500000000E+03  0.12500000000E+03 0.  0.
        -11    1    3    3    0    0 -0.19012441941E+02  0.34678820022E+02 -0.24573427955E+02  0.46561216354E+02  0.51100000000E-03 0.  1.
         23    2    1    0    0    0 -0.24377585537E+02 -0.64658370367E+01  0.71428183003E+01  0.98787530096E+02  0.95246430505E+02 0.  0.
         11    1    3    3    0    0 -0.53651435954E+01 -0.41144657059E+02  0.31716246255E+02  0.52226313742E+02  0.51100000000E-03 0. -1.
         22    1    1    0    0    0  0.24377585537E+02  0.64658370367E+01 -0.71428183003E+01  0.26212469904E+02  0.00000000000E+00 0. -1.
</event>
<event>
 5    1  0.8863861E-005  0.9118800E+02  0.7818608E-02  0.1130116E+00
         25   -1    0    0    0    0  0.00000000000E+00  0.00000000000E+00  0.99999998245E-14  0.12500000000E+03  0.12500000000E+03 0.  0.
        -11    1    3    3    0    0 -0.19512189307E+02  0.25264635688E+02 -0.52319994271E+02  0.61289551710E+02  0.51100000000E-03 0.  1.
         23    2    1    0    0    0 -0.99608210507E+01  0.36084900612E+01 -0.27228558294E+02  0.95782992225E+02  0.91218134471E+02 0.  0.
         11    1    3    3    0    0  0.95513682561E+01 -0.21656145627E+02  0.25091435977E+02  0.34493440516E+02  0.51100000000E-03 0. -1.
         22    1    1    0    0    0  0.99608210507E+01 -0.36084900612E+01  0.27228558294E+02  0.29217007775E+02  0.00000000000E+00 0.  1.
</event>
<event>
 5    1  0.8863861E-005  0.9118800E+02  0.7818608E-02  0.1130116E+00
         25   -1    0    0    0    0  0.00000000000E+00  0.00000000000E+00  0.99999998245E-14  0.12500000000E+03  0.12500000000E+03 0.  0.
        -11    1    3    3    0    0 -0.28905685524E+02  0.21614149316E+02  0.30940767927E+01  0.36225452623E+02  0.51100000000E-03 0.  1.
         23    2    1    0    0    0 -0.39247001852E+01 -0.29788003146E+02 -0.67182041474E+01  0.94212621581E+02  0.89040189775E+02 0.  0.
         11    1    3    3    0    0  0.24980985339E+02 -0.51402152462E+02 -0.98122809401E+01  0.57987168958E+02  0.51100000000E-03 0. -1.
         22    1    1    0    0    0  0.39247001852E+01  0.29788003146E+02  0.67182041474E+01  0.30787378419E+02  0.00000000000E+00 0. -1.
</event>
<event>
 5    1  0.8863861E-005  0.9118800E+02  0.7818608E-02  0.1130116E+00
         25   -1    0    0    0    0  0.00000000000E+00  0.00000000000E+00  0.99999998245E-14  0.12500000000E+03  0.12500000000E+03 0.  0.
        -11    1    3    3    0    0  0.11236845237E+02  0.39376093367E+02 -0.44308521413E+02  0.60332317126E+02  0.51100000000E-03 0. -1.
         23    2    1    0    0    0  0.15808442690E+02  0.18911188890E+02 -0.15799582407E+02  0.95722590112E+02  0.91135325357E+02 0.  0.
         11    1    3    3    0    0  0.45715974524E+01 -0.20464904476E+02  0.28508939006E+02  0.35390272986E+02  0.51100000000E-03 0.  1.
         22    1    1    0    0    0 -0.15808442690E+02 -0.18911188890E+02  0.15799582407E+02  0.29277409888E+02  0.00000000000E+00 0. -1.
</event>
<event>
 5    1  0.8863861E-005  0.9118800E+02  0.7818608E-02  0.1130116E+00
         25   -1    0    0    0    0  0.00000000000E+00  0.00000000000E+00  0.99999998245E-14  0.12500000000E+03  0.12500000000E+03 0.  0.
        -11    1    3    3    0    0 -0.22477035985E+01  0.49244937988E+02 -0.24691837575E+02  0.55134407878E+02  0.51100000000E-03 0.  1.
         23    2    1    0    0    0 -0.67714103808E+01  0.38577261290E+02  0.35613636645E+01  0.85671379400E+02  0.76110740701E+02 0.  0.
         11    1    3    3    0    0 -0.45237067822E+01 -0.10667676699E+02  0.28253201240E+02  0.30536971522E+02  0.51100000000E-03 0. -1.
         22    1    1    0    0    0  0.67714103808E+01 -0.38577261290E+02 -0.35613636645E+01  0.39328620600E+02  0.00000000000E+00 0.  1.
</event>
<event>
 5    1  0.8863861E-005  0.9118800E+02  0.7818608E-02  0.1130116E+00
         25   -1    0    0    0    0  0.00000000000E+00  0.00000000000E+00  0.99999998245E-14  0.12500000000E+03  0.12500000000E+03 0.  0.
        -11    1    3    3    0    0 -0.48335473063E+01 -0.44889615152E+02  0.27064812094E+02  0.52639764267E+02  0.51100000000E-03 0. -1.
         23    2    1    0    0    0  0.15263079921E+02 -0.73251610713E+01  0.24368963534E+02  0.95327353049E+02  0.90591601499E+02 0.  0.
         11    1    3    3    0    0  0.20096627227E+02  0.37564454081E+02 -0.26958485605E+01  0.42687588782E+02  0.51100000000E-03 0.  1.
         22    1    1    0    0    0 -0.15263079921E+02  0.73251610713E+01 -0.24368963534E+02  0.29672646951E+02  0.00000000000E+00 0. -1.
</event>
<event>
 5    1  0.8863861E-005  0.9118800E+02  0.7818608E-02  0.1130116E+00
         25   -1    0    0    0    0  0.00000000000E+00  0.00000000000E+00  0.99999998245E-14  0.12500000000E+03  0.12500000000E+03 0.  0.
        -11    1    3    3    0    0 -0.99135947730E+00  0.53634006848E+02 -0.71531640469E+01  0.54117993683E+02  0.51100000000E-03 0. -1.
         23    2    1    0    0    0  0.18556434281E+02  0.21010442143E+02  0.91725063527E+01  0.95505681817E+02  0.90837329630E+02 0.  0.
         11    1    3    3    0    0  0.19547793758E+02 -0.32623564704E+02  0.16325670400E+02  0.41387688134E+02  0.51100000000E-03 0.  1.
         22    1    1    0    0    0 -0.18556434281E+02 -0.21010442143E+02 -0.91725063527E+01  0.29494318183E+02  0.00000000000E+00 0. -1.
</event>
<event>
 5    1  0.8863861E-005  0.9118800E+02  0.7818608E-02  0.1130116E+00
         25   -1    0    0    0    0  0.00000000000E+00  0.00000000000E+00  0.99999998245E-14  0.12500000000E+03  0.12500000000E+03 0.  0.
        -11    1    3    3    0    0 -0.10474102475E+02  0.24826257015E+02  0.31808582273E+02  0.41687357394E+02  0.51100000000E-03 0. -1.
         23    2    1    0    0    0 -0.20771012402E+02  0.78375368400E+01 -0.18707011576E+02  0.95968737161E+02  0.91472314337E+02 0.  0.
         11    1    3    3    0    0 -0.10296909927E+02 -0.16988720175E+02 -0.50515593849E+02  0.54281379767E+02  0.51100000000E-03 0.  1.
         22    1    1    0    0    0  0.20771012402E+02 -0.78375368400E+01  0.18707011576E+02  0.29031262839E+02  0.00000000000E+00 0.  1.
</event>
<event>
 5    1  0.8863861E-005  0.9118800E+02  0.7818608E-02  0.1130116E+00
         25   -1    0    0    0    0  0.00000000000E+00  0.00000000000E+00  0.99999998245E-14  0.12500000000E+03  0.12500000000E+03 0.  0.
        -11    1    3    3    0    0 -0.96016526293E+01 -0.18673806006E+02  0.31085578994E+02  0.37512877597E+02  0.51100000000E-03 0.  1.
         23    2    1    0    0    0  0.12775824432E+02 -0.13739899009E+02 -0.22447558653E+02  0.95744241521E+02  0.91165017306E+02 0.  0.
         11    1    3    3    0    0  0.22377477062E+02  0.49339069968E+01 -0.53533137647E+02  0.58231363924E+02  0.51100000000E-03 0. -1.
         22    1    1    0    0    0 -0.12775824432E+02  0.13739899009E+02  0.22447558653E+02  0.29255758479E+02  0.00000000000E+00 0. -1.
</event>
<event>
 5    1  0.8863861E-005  0.9118800E+02  0.7818608E-02  0.1130116E+00
         25   -1    0    0    0    0  0.00000000000E+00  0.00000000000E+00  0.99999998245E-14  0.12500000000E+03  0.12500000000E+03 0.  0.
        -11    1    3    3    0    0 -0.12087660807E+02 -0.34712183062E+02  0.45125430898E+00  0.36759363806E+02  0.51100000000E-03 0.  1.
         23    2    1    0    0    0 -0.14868160100E+02  0.22961691396E+02  0.11108386740E+02  0.95475472696E+02  0.90795749758E+02 0.  0.
         11    1    3    3    0    0 -0.27804992933E+01  0.57673874458E+02  0.10657132431E+02  0.58716108890E+02  0.51100000000E-03 0. -1.
         22    1    1    0    0    0  0.14868160100E+02 -0.22961691396E+02 -0.11108386740E+02  0.29524527304E+02  0.00000000000E+00 0. -1.
</event>
<event>
 5    1  0.8863861E-005  0.9118800E+02  0.7818608E-02  0.1130116E+00
         25   -1    0    0    0    0  0.00000000000E+00  0.00000000000E+00  0.99999998245E-14  0.12500000000E+03  0.12500000000E+03 0.  0.
        -11    1    3    3    0    0 -0.89085568730E+01  0.28249842097E+01  0.33917749432E+02  0.35181765847E+02  0.51100000000E-03 0.  1.
         23    2    1    0    0    0 -0.10074440202E+02 -0.13408771743E+02 -0.24211701080E+02  0.95546715391E+02  0.90893777827E+02 0.  0.
         11    1    3    3    0    0 -0.11658833294E+01 -0.16233755953E+02 -0.58129450512E+02  0.60364949544E+02  0.51100000000E-03 0. -1.
         22    1    1    0    0    0  0.10074440202E+02  0.13408771743E+02  0.24211701080E+02  0.29453284609E+02  0.00000000000E+00 0. -1.
</event>
<event>
 5    1  0.8863861E-005  0.9118800E+02  0.7818608E-02  0.1130116E+00
         25   -1    0    0    0    0  0.00000000000E+00  0.00000000000E+00  0.99999998245E-14  0.12500000000E+03  0.12500000000E+03 0.  0.
        -11    1    3    3    0    0 -0.27747399759E+02 -0.24536664794E+01 -0.44355437212E+02  0.52376936557E+02  0.51100000000E-03 0.  1.
         23    2    1    0    0    0 -0.25454987523E+02  0.14475621395E+02 -0.49830406561E+01  0.95295948109E+02  0.90548258002E+02 0.  0.
         11    1    3    3    0    0  0.22924122355E+01  0.16929287874E+02  0.39372396556E+02  0.42919011552E+02  0.51100000000E-03 0. -1.
         22    1    1    0    0    0  0.25454987523E+02 -0.14475621395E+02  0.49830406561E+01  0.29704051891E+02  0.00000000000E+00 0. -1.
</event>
<event>
 5    1  0.8863861E-005  0.9118800E+02  0.7818608E-02  0.1130116E+00
         25   -1    0    0    0    0  0.00000000000E+00  0.00000000000E+00  0.99999998245E-14  0.12500000000E+03  0.12500000000E+03 0.  0.
        -11    1    3    3    0    0  0.19748799906E+02  0.48844712738E+02 -0.18667184808E+02  0.55895302568E+02  0.51100000000E-03 0. -1.
         23    2    1    0    0    0  0.24810483620E+02  0.10265229334E+02 -0.12833845044E+02  0.95240251860E+02  0.90471337810E+02 0.  0.
         11    1    3    3    0    0  0.50616837139E+01 -0.38579483404E+02  0.58333397641E+01  0.39344949293E+02  0.51100000000E-03 0.  1.
         22    1    1    0    0    0 -0.24810483620E+02 -0.10265229334E+02  0.12833845044E+02  0.29759748140E+02  0.00000000000E+00 0.  1.
</event>
<event>
 5    1  0.8863861E-005  0.9118800E+02  0.7818608E-02  0.1130116E+00
         25   -1    0    0    0    0  0.00000000000E+00  0.00000000000E+00  0.99999998245E-14  0.12500000000E+03  0.12500000000E+03 0.  0.
        -11    1    3    3    0    0  0.34438140605E+02  0.89358984980E+01  0.34933099732E+02  0.49861380521E+02  0.51100000000E-03 0.  1.
         23    2    1    0    0    0  0.27717020754E+02 -0.70699998334E+01 -0.72620461338E+01  0.95488045623E+02  0.90813057463E+02 0.  0.
         11    1    3    3    0    0 -0.67211198511E+01 -0.16005898331E+02 -0.42195145866E+02  0.45626665102E+02  0.51100000000E-03 0. -1.
         22    1    1    0    0    0 -0.27717020754E+02  0.70699998334E+01  0.72620461338E+01  0.29511954377E+02  0.00000000000E+00 0. -1.
</event>
<event>
 5    1  0.8863861E-005  0.9118800E+02  0.7818608E-02  0.1130116E+00
         25   -1    0    0    0    0  0.00000000000E+00  0.00000000000E+00  0.99999998245E-14  0.12500000000E+03  0.12500000000E+03 0.  0.
        -11    1    3    3    0    0  0.12295365713E+02 -0.19777053840E+02 -0.46191090966E+02  0.51729341398E+02  0.51100000000E-03 0.  1.
         23    2    1    0    0    0  0.17422387868E+01 -0.28625257761E+02 -0.40826368259E+01  0.96032626951E+02  0.91559580263E+02 0.  0.
         11    1    3    3    0    0 -0.10553126926E+02 -0.88482039211E+01  0.42108454140E+02  0.44303285554E+02  0.51100000000E-03 0. -1.
         22    1    1    0    0    0 -0.17422387868E+01  0.28625257761E+02  0.40826368259E+01  0.28967373049E+02  0.00000000000E+00 0.  1.
</event>
<event>
 5    1  0.8863861E-005  0.9118800E+02  0.7818608E-02  0.1130116E+00
         25   -1    0    0    0    0  0.00000000000E+00  0.00000000000E+00  0.99999998245E-14  0.12500000000E+03  0.12500000000E+03 0.  0.
        -11    1    3    3    0    0 -0.32609786330E+02 -0.21255106737E+02  0.26361655439E+02  0.47011856001E+02  0.51100000000E-03 0. -1.
         23    2    1    0    0    0  0.15347027072E+02 -0.15234535967E+02  0.19597950652E+02  0.95816066135E+02  0.91263445770E+02 0.  0.
         11    1    3    3    0    0  0.47956813402E+02  0.60205707707E+01 -0.67637047872E+01  0.48804210134E+02  0.51100000000E-03 0.  1.
         22    1    1    0    0    0 -0.15347027072E+02  0.15234535967E+02 -0.19597950652E+02  0.29183933865E+02  0.00000000000E+00 0. -1.
</event>
<event>
 5    1  0.8863861E-005  0.9118800E+02  0.7818608E-02  0.1130116E+00
         25   -1    0    0    0    0  0.00000000000E+00  0.00000000000E+00  0.99999998245E-14  0.12500000000E+03  0.12500000000E+03 0.  0.
        -11    1    3    3    0    0 -0.42219038023E+02 -0.35406917545E+02 -0.24932335491E+02  0.60479073529E+02  0.51100000000E-03 0. -1.
         23    2    1    0    0    0 -0.30596667258E+02 -0.17008952513E+02 -0.56777635503E+01  0.89535968760E+02  0.82213090137E+02 0.  0.
         11    1    3    3    0    0  0.11622370765E+02  0.18397965033E+02  0.19254571941E+02  0.29056895230E+02  0.51100000000E-03 0.  1.
         22    1    1    0    0    0  0.30596667258E+02  0.17008952513E+02  0.56777635503E+01  0.35464031240E+02  0.00000000000E+00 0. -1.
</event>
<event>
 5    1  0.8863861E-005  0.9118800E+02  0.7818608E-02  0.1130116E+00
         25   -1    0    0    0    0  0.00000000000E+00  0.00000000000E+00  0.99999998245E-14  0.12500000000E+03  0.12500000000E+03 0.  0.
        -11    1    3    3    0    0 -0.57822705792E+02  0.19919695888E+02 -0.68265284091E+01  0.61537477034E+02  0.51100000000E-03 0. -1.
         23    2    1    0    0    0 -0.21242717426E+02  0.15103149545E+02 -0.48653560669E+01  0.98485289753E+02  0.94848945372E+02 0.  0.
         11    1    3    3    0    0  0.36579988365E+02 -0.48165463422E+01  0.19611723422E+01  0.36947812719E+02  0.51100000000E-03 0.  1.
         22    1    1    0    0    0  0.21242717426E+02 -0.15103149545E+02  0.48653560669E+01  0.26514710247E+02  0.00000000000E+00 0. -1.
</event>
<event>
 5    1  0.8863861E-005  0.9118800E+02  0.7818608E-02  0.1130116E+00
         25   -1    0    0    0    0  0.00000000000E+00  0.00000000000E+00  0.99999998245E-14  0.12500000000E+03  0.12500000000E+03 0.  0.
        -11    1    3    3    0    0  0.31050861614E+02 -0.12834813538E+02  0.44084475715E+02  0.55428597717E+02  0.51100000000E-03 0.  1.
         23    2    1    0    0    0  0.23396251457E+02  0.29570656504E+01  0.16368892017E+01  0.10136087511E+03  0.98565809368E+02 0.  0.
         11    1    3    3    0    0 -0.76546101571E+01  0.15791879189E+02 -0.42447586514E+02  0.45932277388E+02  0.51100000000E-03 0. -1.
         22    1    1    0    0    0 -0.23396251457E+02 -0.29570656504E+01 -0.16368892017E+01  0.23639124894E+02  0.00000000000E+00 0.  1.
</event>
<event>
 5    1  0.8863861E-005  0.9118800E+02  0.7818608E-02  0.1130116E+00
         25   -1    0    0    0    0  0.00000000000E+00  0.00000000000E+00  0.99999998245E-14  0.12500000000E+03  0.12500000000E+03 0.  0.
        -11    1    3    3    0    0 -0.18457018438E+02 -0.12440531307E+02 -0.25490822707E+02  0.33840957305E+02  0.51100000000E-03 0. -1.
         23    2    1    0    0    0  0.20097930533E+02  0.12893046579E+02  0.16300444684E+02  0.96088722639E+02  0.91636131846E+02 0.  0.
         11    1    3    3    0    0  0.38554948971E+02  0.25333577886E+02  0.41791267390E+02  0.62247765333E+02  0.51100000000E-03 0.  1.
         22    1    1    0    0    0 -0.20097930533E+02 -0.12893046579E+02 -0.16300444684E+02  0.28911277361E+02  0.00000000000E+00 0.  1.
</event>
<event>
 5    1  0.8863861E-005  0.9118800E+02  0.7818608E-02  0.1130116E+00
         25   -1    0    0    0    0  0.00000000000E+00  0.00000000000E+00  0.99999998245E-14  0.12500000000E+03  0.12500000000E+03 0.  0.
        -11    1    3    3    0    0  0.49625533794E+01  0.27461902311E+02 -0.21505972290E+02  0.35231943730E+02  0.51100000000E-03 0. -1.
         23    2    1    0    0    0 -0.36115446902E+02 -0.24375061911E+01 -0.63671391432E+01  0.88246668148E+02  0.80228841679E+02 0.  0.
         11    1    3    3    0    0 -0.41078000281E+02 -0.29899408502E+02  0.15138833146E+02  0.53014724419E+02  0.51100000000E-03 0.  1.
         22    1    1    0    0    0  0.36115446902E+02  0.24375061911E+01  0.63671391432E+01  0.36753331852E+02  0.00000000000E+00 0.  1.
</event>
<event>
 5    1  0.8863861E-005  0.9118800E+02  0.7818608E-02  0.1130116E+00
         25   -1    0    0    0    0  0.00000000000E+00  0.00000000000E+00  0.99999998245E-14  0.12500000000E+03  0.12500000000E+03 0.  0.
        -11    1    3    3    0    0  0.41963419597E+02  0.19434566655E+02 -0.37334835238E+01  0.46395795767E+02  0.51100000000E-03 0. -1.
         23    2    1    0    0    0  0.60316499244E+01 -0.57714165926E+01  0.24857711854E+02  0.98777950330E+02  0.95233857332E+02 0.  0.
         11    1    3    3    0    0 -0.35931769672E+02 -0.25205983248E+02  0.28591195378E+02  0.52382154563E+02  0.51100000000E-03 0.  1.
         22    1    1    0    0    0 -0.60316499244E+01  0.57714165926E+01 -0.24857711854E+02  0.26222049670E+02  0.00000000000E+00 0. -1.
</event>
<event>
 5    1  0.8863861E-005  0.9118800E+02  0.7818608E-02  0.1130116E+00
         25   -1    0    0    0    0  0.00000000000E+00  0.00000000000E+00  0.99999998245E-14  0.12500000000E+03  0.12500000000E+03 0.  0.
        -11    1    3    3    0    0  0.15193423659E+02 -0.18336879185E+02 -0.27766373003E+02  0.36579403094E+02  0.51100000000E-03 0.  1.
         23    2    1    0    0    0 -0.10924855653E+02  0.26355157085E+02  0.21891312916E+01  0.96386383105E+02  0.92041272135E+02 0.  0.
         11    1    3    3    0    0 -0.26118279313E+02  0.44692036269E+02  0.29955504295E+02  0.59806980011E+02  0.51100000000E-03 0. -1.
         22    1    1    0    0    0  0.10924855653E+02 -0.26355157085E+02 -0.21891312916E+01  0.28613616895E+02  0.00000000000E+00 0. -1.
</event>
<event>
 5    1  0.8863861E-005  0.9118800E+02  0.7818608E-02  0.1130116E+00
         25   -1    0    0    0    0  0.00000000000E+00  0.00000000000E+00  0.99999998245E-14  0.12500000000E+03  0.12500000000E+03 0.  0.
        -11    1    3    3    0    0 -0.29288498842E+02  0.66476530330E+00 -0.51456195691E+02  0.59211469772E+02  0.51100000000E-03 0. -1.
         23    2    1    0    0    0 -0.19790434126E+02 -0.13485803752E+02 -0.30336987357E+02  0.86349502104E+02  0.77216420055E+02 0.  0.
         11    1    3    3    0    0  0.94980647162E+01 -0.14150569055E+02  0.21119208334E+02  0.27138032332E+02  0.51100000000E-03 0.  1.
         22    1    1    0    0    0  0.19790434126E+02  0.13485803752E+02  0.30336987357E+02  0.38650497896E+02  0.00000000000E+00 0. -1.
</event>
<event>
 5    1  0.8863861E-005  0.9118800E+02  0.7818608E-02  0.1130116E+00
         25   -1    0    0    0    0  0.00000000000E+00  0.00000000000E+00  0.99999998245E-14  0.12500000000E+03  0.12500000000E+03 0.  0.
        -11    1    3    3    0    0  0.12864818220E+02 -0.38942876189E+02  0.17186418123E+02  0.44468237224E+02  0.51100000000E-03 0. -1.
         23    2    1    0    0    0 -0.22598636170E+02 -0.14737945496E+02 -0.11036916203E+02  0.95850061519E+02  0.91309996056E+02 0.  0.
         11    1    3    3    0    0 -0.35463454390E+02  0.24204930693E+02 -0.28223334326E+02  0.51381824295E+02  0.51100000000E-03 0.  1.
         22    1    1    0    0    0  0.22598636170E+02  0.14737945496E+02  0.11036916203E+02  0.29149938481E+02  0.00000000000E+00 0.  1.
</event>
<event>
 5    1  0.8863861E-005  0.9118800E+02  0.7818608E-02  0.1130116E+00
         25   -1    0    0    0    0  0.00000000000E+00  0.00000000000E+00  0.99999998245E-14  0.12500000000E+03  0.12500000000E+03 0.  0.
        -11    1    3    3    0    0  0.52622924321E+01 -0.44875835256E+02 -0.63303189342E+00  0.45187753221E+02  0.51100000000E-03 0.  1.
         23    2    1    0    0    0  0.44898301283E+01 -0.39890078584E+01  0.28805013265E+02  0.95575528085E+02  0.90933393323E+02 0.  0.
         11    1    3    3    0    0 -0.77246230378E+00  0.40886827398E+02  0.29438045159E+02  0.50387774863E+02  0.51100000000E-03 0. -1.
         22    1    1    0    0    0 -0.44898301283E+01  0.39890078584E+01 -0.28805013265E+02  0.29424471915E+02  0.00000000000E+00 0. -1.
</event>
<event>
 5    1  0.8863861E-005  0.9118800E+02  0.7818608E-02  0.1130116E+00
         25   -1    0    0    0    0  0.00000000000E+00  0.00000000000E+00  0.99999998245E-14  0.12500000000E+03  0.12500000000E+03 0.  0.
        -11    1    3    3    0    0 -0.22967724050E+02 -0.33461967530E+02 -0.34978762330E+01  0.40736405799E+02  0.51100000000E-03 0. -1.
         23    2    1    0    0    0 -0.22879751394E+01  0.64686297519E+01 -0.30867840266E+02  0.93378779850E+02  0.87861794669E+02 0.  0.
         11    1    3    3    0    0  0.20679748911E+02  0.39930597282E+02 -0.27369964033E+02  0.52642374051E+02  0.51100000000E-03 0.  1.
         22    1    1    0    0    0  0.22879751394E+01 -0.64686297519E+01  0.30867840266E+02  0.31621220150E+02  0.00000000000E+00 0.  1.
</event>
<event>
 5    1  0.8863861E-005  0.9118800E+02  0.7818608E-02  0.1130116E+00
         25   -1    0    0    0    0  0.00000000000E+00  0.00000000000E+00  0.99999998245E-14  0.12500000000E+03  0.12500000000E+03 0.  0.
        -11    1    3    3    0    0 -0.41198384186E+01 -0.50094543004E+02 -0.27628495113E+02  0.57356517065E+02  0.51100000000E-03 0. -1.
         23    2    1    0    0    0 -0.16033564665E+02 -0.14217823929E+02 -0.19505826781E+02  0.96022439862E+02  0.91545671474E+02 0.  0.
         11    1    3    3    0    0 -0.11913726246E+02  0.35876719075E+02  0.81226683324E+01  0.38665922797E+02  0.51100000000E-03 0.  1.
         22    1    1    0    0    0  0.16033564665E+02  0.14217823929E+02  0.19505826781E+02  0.28977560138E+02  0.00000000000E+00 0.  1.
</event>
<event>
 5    1  0.8863861E-005  0.9118800E+02  0.7818608E-02  0.1130116E+00
         25   -1    0    0    0    0  0.00000000000E+00  0.00000000000E+00  0.99999998245E-14  0.12500000000E+03  0.12500000000E+03 0.  0.
        -11    1    3    3    0    0 -0.43889704077E+02 -0.30599257717E+02 -0.31595166123E+02  0.62135941446E+02  0.51100000000E-03 0. -1.
         23    2    1    0    0    0 -0.17670824346E+02 -0.13763529171E+02 -0.18558340284E+02  0.95912120008E+02  0.91394912342E+02 0.  0.
         11    1    3    3    0    0  0.26218879731E+02  0.16835728546E+02  0.13036825839E+02  0.33776178561E+02  0.51100000000E-03 0.  1.
         22    1    1    0    0    0  0.17670824346E+02  0.13763529171E+02  0.18558340284E+02  0.29087879992E+02  0.00000000000E+00 0. -1.
</event>
<event>
 4    1  0.8863861E-005  0.9118800E+02  0.7818608E-02  0.1130116E+00
         25   -1    0    0    0    0  0.00000000000E+00  0.00000000000E+00  0.99999998245E-14  0.12500000000E+03  0.12500000000E+03 0.  0.
        -11    1    1    0    0    0  0.18855239180E+02 -0.36409945155E+02 -0.42515163908E+02  0.59065584845E+02  0.51100000000E-03 0.  1.
         11    1    1    0    0    0 -0.24485642363E+01  0.12509860072E+02 -0.19078084565E+01  0.12889212513E+02  0.51100000000E-03 0. -1.
         22    1    1    0    0    0 -0.16406674943E+02  0.23900085082E+02  0.44422972364E+02  0.53045202642E+02  0.00000000000E+00 0.  1.
</event>
<event>
 5    1  0.8863861E-005  0.9118800E+02  0.7818608E-02  0.1130116E+00
         25   -1    0    0    0    0  0.00000000000E+00  0.00000000000E+00  0.99999998245E-14  0.12500000000E+03  0.12500000000E+03 0.  0.
        -11    1    3    3    0    0  0.48193834417E+02 -0.17327445689E+00 -0.28579550153E+02  0.56030941337E+02  0.51100000000E-03 0.  1.
         23    2    1    0    0    0  0.26799716628E+02  0.14138283094E+02  0.27589993591E+00  0.94698317193E+02  0.89719447714E+02 0.  0.
         11    1    3    3    0    0 -0.21394117789E+02  0.14311557551E+02  0.28855450089E+02  0.38667375856E+02  0.51100000000E-03 0. -1.
         22    1    1    0    0    0 -0.26799716628E+02 -0.14138283094E+02 -0.27589993591E+00  0.30301682807E+02  0.00000000000E+00 0.  1.
</event>
<event>
 5    1  0.8863861E-005  0.9118800E+02  0.7818608E-02  0.1130116E+00
         25   -1    0    0    0    0  0.00000000000E+00  0.00000000000E+00  0.99999998245E-14  0.12500000000E+03  0.12500000000E+03 0.  0.
        -11    1    3    3    0    0  0.32935181948E+02  0.28746462499E+01  0.56806504446E+01  0.33544889189E+02  0.51100000000E-03 0.  1.
         23    2    1    0    0    0 -0.18162892919E+02 -0.12057144875E+02 -0.22408908970E+02  0.93736209076E+02  0.88368842184E+02 0.  0.
         11    1    3    3    0    0 -0.51098074866E+02 -0.14931791125E+02 -0.28089559415E+02  0.60191319886E+02  0.51100000000E-03 0. -1.
         22    1    1    0    0    0  0.18162892919E+02  0.12057144875E+02  0.22408908970E+02  0.31263790924E+02  0.00000000000E+00 0. -1.
</event>
<event>
 5    1  0.8863861E-005  0.9118800E+02  0.7818608E-02  0.1130116E+00
         25   -1    0    0    0    0  0.00000000000E+00  0.00000000000E+00  0.99999998245E-14  0.12500000000E+03  0.12500000000E+03 0.  0.
        -11    1    3    3    0    0 -0.31378420221E+01  0.60018857027E+02  0.10031498897E+02  0.60932259287E+02  0.51100000000E-03 0. -1.
         23    2    1    0    0    0  0.34396219458E+01  0.30990446453E+02 -0.34912610860E+01  0.93624409576E+02  0.88210557158E+02 0.  0.
         11    1    3    3    0    0  0.65774639679E+01 -0.29028410575E+02 -0.13522759983E+02  0.32692150290E+02  0.51100000000E-03 0.  1.
         22    1    1    0    0    0 -0.34396219458E+01 -0.30990446453E+02  0.34912610860E+01  0.31375590424E+02  0.00000000000E+00 0. -1.
</event>
<event>
 5    1  0.8863861E-005  0.9118800E+02  0.7818608E-02  0.1130116E+00
         25   -1    0    0    0    0  0.00000000000E+00  0.00000000000E+00  0.99999998245E-14  0.12500000000E+03  0.12500000000E+03 0.  0.
        -11    1    3    3    0    0 -0.30737615962E+02  0.30924193409E+02  0.18936833878E+02  0.47536411840E+02  0.51100000000E-03 0. -1.
         23    2    1    0    0    0 -0.17698643250E+02 -0.16317335192E+02  0.14852106367E+02  0.96714271015E+02  0.92485500235E+02 0.  0.
         11    1    3    3    0    0  0.13038972712E+02 -0.47241528601E+02 -0.40847275108E+01  0.49177859175E+02  0.51100000000E-03 0.  1.
         22    1    1    0    0    0  0.17698643250E+02  0.16317335192E+02 -0.14852106367E+02  0.28285728985E+02  0.00000000000E+00 0.  1.
</event>
<event>
 5    1  0.8863861E-005  0.9118800E+02  0.7818608E-02  0.1130116E+00
         25   -1    0    0    0    0  0.00000000000E+00  0.00000000000E+00  0.99999998245E-14  0.12500000000E+03  0.12500000000E+03 0.  0.
        -11    1    3    3    0    0 -0.12805656106E+02  0.52169586629E+01 -0.34486903858E+02  0.37155726664E+02  0.51100000000E-03 0.  1.
         23    2    1    0    0    0 -0.16244109137E+02  0.89389554413E+01  0.23332995189E+02  0.95197237200E+02  0.90411886940E+02 0.  0.
         11    1    3    3    0    0 -0.34384530307E+01  0.37219967783E+01  0.57819899047E+02  0.58041510536E+02  0.51100000000E-03 0. -1.
         22    1    1    0    0    0  0.16244109137E+02 -0.89389554413E+01 -0.23332995189E+02  0.29802762800E+02  0.00000000000E+00 0. -1.
</event>
<event>
 5    1  0.8863861E-005  0.9118800E+02  0.7818608E-02  0.1130116E+00
         25   -1    0    0    0    0  0.00000000000E+00  0.00000000000E+00  0.99999998245E-14  0.12500000000E+03  0.12500000000E+03 0.  0.
        -11    1    3    3    0    0  0.99144499825E+01  0.45417871965E+02 -0.15015944902E+02  0.48852410522E+02  0.51100000000E-03 0. -1.
         23    2    1    0    0    0 -0.24478255435E+02  0.15155179178E+02 -0.44282877729E+01  0.95871419917E+02  0.91339230231E+02 0.  0.
         11    1    3    3    0    0 -0.34392705418E+02 -0.30262692787E+02  0.10587657129E+02  0.47019009394E+02  0.51100000000E-03 0.  1.
         22    1    1    0    0    0  0.24478255435E+02 -0.15155179178E+02  0.44282877729E+01  0.29128580083E+02  0.00000000000E+00 0. -1.
</event>
<event>
 5    1  0.8863861E-005  0.9118800E+02  0.7818608E-02  0.1130116E+00
         25   -1    0    0    0    0  0.00000000000E+00  0.00000000000E+00  0.99999998245E-14  0.12500000000E+03  0.12500000000E+03 0.  0.
        -11    1    3    3    0    0 -0.21016309878E+02  0.16250631562E+02 -0.23159894670E+02  0.35244134667E+02  0.51100000000E-03 0. -1.
         23    2    1    0    0    0  0.60044692966E+01 -0.28486583565E+02  0.62633118666E+01  0.95221347071E+02  0.90445214178E+02 0.  0.
         11    1    3    3    0    0  0.27020779174E+02 -0.44737215127E+02  0.29423206537E+02  0.59977212404E+02  0.51100000000E-03 0.  1.
         22    1    1    0    0    0 -0.60044692966E+01  0.28486583565E+02 -0.62633118666E+01  0.29778652929E+02  0.00000000000E+00 0.  1.
</event>
<event>
 5    1  0.8863861E-005  0.9118800E+02  0.7818608E-02  0.1130116E+00
         25   -1    0    0    0    0  0.00000000000E+00  0.00000000000E+00  0.99999998245E-14  0.12500000000E+03  0.12500000000E+03 0.  0.
        -11    1    3    3    0    0  0.23366068786E+02  0.30140539297E+02  0.36420684341E+02  0.52734159022E+02  0.51100000000E-03 0.  1.
         23    2    1    0    0    0 -0.12976644086E+02  0.16310533605E+02  0.23216517915E+02  0.93800104129E+02  0.88459177208E+02 0.  0.
         11    1    3    3    0    0 -0.36342712871E+02 -0.13830005692E+02 -0.13204166426E+02  0.41065945107E+02  0.51100000000E-03 0. -1.
         22    1    1    0    0    0  0.12976644086E+02 -0.16310533605E+02 -0.23216517915E+02  0.31199895871E+02  0.00000000000E+00 0. -1.
</event>
<event>
 5    1  0.8863861E-005  0.9118800E+02  0.7818608E-02  0.1130116E+00
         25   -1    0    0    0    0  0.00000000000E+00  0.00000000000E+00  0.99999998245E-14  0.12500000000E+03  0.12500000000E+03 0.  0.
        -11    1    3    3    0    0  0.23909859183E+02  0.86925660231E+01 -0.34192347621E+02  0.42618760028E+02  0.51100000000E-03 0. -1.
         23    2    1    0    0    0 -0.93980564197E+01 -0.25362863618E+02 -0.90813598368E+01  0.96468098349E+02  0.92152181674E+02 0.  0.
         11    1    3    3    0    0 -0.33307915602E+02 -0.34055429641E+02  0.25110987785E+02  0.53849338321E+02  0.51100000000E-03 0.  1.
         22    1    1    0    0    0  0.93980564197E+01  0.25362863618E+02  0.90813598368E+01  0.28531901651E+02  0.00000000000E+00 0.  1.
</event>
<event>
 5    1  0.8863861E-005  0.9118800E+02  0.7818608E-02  0.1130116E+00
         25   -1    0    0    0    0  0.00000000000E+00  0.00000000000E+00  0.99999998245E-14  0.12500000000E+03  0.12500000000E+03 0.  0.
        -11    1    3    3    0    0  0.55428411590E+02 -0.14062038688E+02  0.21069472744E+02  0.60942369707E+02  0.51100000000E-03 0.  1.
         23    2    1    0    0    0  0.21240439731E+02 -0.57415593931E+01  0.18554802743E+02  0.96218017979E+02  0.91812333020E+02 0.  0.
         11    1    3    3    0    0 -0.34187971859E+02  0.83204792954E+01 -0.25146700003E+01  0.35275648272E+02  0.51100000000E-03 0. -1.
         22    1    1    0    0    0 -0.21240439731E+02  0.57415593931E+01 -0.18554802743E+02  0.28781982021E+02  0.00000000000E+00 0.  1.
</event>
<event>
 5    1  0.8863861E-005  0.9118800E+02  0.7818608E-02  0.1130116E+00
         25   -1    0    0    0    0  0.00000000000E+00  0.00000000000E+00  0.99999998245E-14  0.12500000000E+03  0.12500000000E+03 0.  0.
        -11    1    3    3    0    0 -0.21736487429E+02 -0.28173773291E+02  0.32103852342E+01  0.35728741383E+02  0.51100000000E-03 0. -1.
         23    2    1    0    0    0  0.29236822037E+02  0.26876347118E+01 -0.21753557241E+01  0.95559427388E+02  0.90911258087E+02 0.  0.
         11    1    3    3    0    0  0.50973309466E+02  0.30861408003E+02 -0.53857409584E+01  0.59830686005E+02  0.51100000000E-03 0.  1.
         22    1    1    0    0    0 -0.29236822037E+02 -0.26876347118E+01  0.21753557241E+01  0.29440572612E+02  0.00000000000E+00 0.  1.
</event>
<event>
 5    1  0.8863861E-005  0.9118800E+02  0.7818608E-02  0.1130116E+00
         25   -1    0    0    0    0  0.00000000000E+00  0.00000000000E+00  0.99999998245E-14  0.12500000000E+03  0.12500000000E+03 0.  0.
        -11    1    3    3    0    0 -0.58855448308E+01  0.16339273040E+02 -0.29269899755E+02  0.34034372528E+02  0.51100000000E-03 0.  1.
         23    2    1    0    0    0  0.27559731743E+02 -0.36036482741E+01 -0.41678884086E+02  0.74903548296E+02  0.55685609219E+02 0.  0.
         11    1    3    3    0    0  0.33445276574E+02 -0.19942921314E+02 -0.12408984331E+02  0.40869175769E+02  0.51100000000E-03 0. -1.
         22    1    1    0    0    0 -0.27559731743E+02  0.36036482741E+01  0.41678884086E+02  0.50096451704E+02  0.00000000000E+00 0.  1.
</event>
<event>
 5    1  0.8863861E-005  0.9118800E+02  0.7818608E-02  0.1130116E+00
         25   -1    0    0    0    0  0.00000000000E+00  0.00000000000E+00  0.99999998245E-14  0.12500000000E+03  0.12500000000E+03 0.  0.
        -11    1    3    3    0    0 -0.16269959543E+02 -0.33316869982E+02  0.44450300566E+01  0.37342786471E+02  0.51100000000E-03 0.  1.
         23    2    1    0    0    0  0.26430516913E+02 -0.76877169654E+00 -0.15183352767E+02  0.94509059780E+02  0.89455379632E+02 0.  0.
         11    1    3    3    0    0  0.42700476456E+02  0.32548098286E+02 -0.19628382824E+02  0.57166273310E+02  0.51100000000E-03 0. -1.
         22    1    1    0    0    0 -0.26430516913E+02  0.76877169654E+00  0.15183352767E+02  0.30490940220E+02  0.00000000000E+00 0. -1.
</event>
<event>
 5    1  0.8863861E-005  0.9118800E+02  0.7818608E-02  0.1130116E+00
         25   -1    0    0    0    0  0.00000000000E+00  0.00000000000E+00  0.99999998245E-14  0.12500000000E+03  0.12500000000E+03 0.  0.
        -11    1    3    3    0    0 -0.57360392372E+01  0.48553110812E+02  0.20918482968E+02  0.53177905615E+02  0.51100000000E-03 0. -1.
         23    2    1    0    0    0 -0.19780419979E+02  0.17804120075E+02 -0.75105399913E+01  0.97347515172E+02  0.93337445824E+02 0.  0.
         11    1    3    3    0    0 -0.14044380742E+02 -0.30748990737E+02 -0.28429022959E+02  0.44169609557E+02  0.51100000000E-03 0.  1.
         22    1    1    0    0    0  0.19780419979E+02 -0.17804120075E+02  0.75105399913E+01  0.27652484828E+02  0.00000000000E+00 0. -1.
</event>
<event>
 5    1  0.8863861E-005  0.9118800E+02  0.7818608E-02  0.1130116E+00
         25   -1    0    0    0    0  0.00000000000E+00  0.00000000000E+00  0.99999998245E-14  0.12500000000E+03  0.12500000000E+03 0.  0.
        -11    1    3    3    0    0  0.32645656175E+02 -0.46167587952E+02 -0.57739012660E+01  0.56837689788E+02  0.51100000000E-03 0. -1.
         23    2    1    0    0    0  0.27313597939E+02 -0.76111227655E+01 -0.70516521953E+01  0.95782066794E+02  0.91216866305E+02 0.  0.
         11    1    3    3    0    0 -0.53320582362E+01  0.38556465186E+02 -0.12777509294E+01  0.38944377006E+02  0.51100000000E-03 0.  1.
         22    1    1    0    0    0 -0.27313597939E+02  0.76111227655E+01  0.70516521953E+01  0.29217933206E+02  0.00000000000E+00 0. -1.
</event>
<event>
 5    1  0.8863861E-005  0.9118800E+02  0.7818608E-02  0.1130116E+00
         25   -1    0    0    0    0  0.00000000000E+00  0.00000000000E+00  0.99999998245E-14  0.12500000000E+03  0.12500000000E+03 0.  0.
        -11    1    3    3    0    0  0.13560239510E+02 -0.50462307837E+02  0.20387556308E+02  0.56089010156E+02  0.51100000000E-03 0. -1.
         23    2    1    0    0    0 -0.64766205633E+01 -0.16921664305E+02  0.23549882460E+02  0.95286597289E+02  0.90535348469E+02 0.  0.
         11    1    3    3    0    0 -0.20036860073E+02  0.33540643532E+02  0.31623261519E+01  0.39197587133E+02  0.51100000000E-03 0.  1.
         22    1    1    0    0    0  0.64766205633E+01  0.16921664305E+02 -0.23549882460E+02  0.29713402711E+02  0.00000000000E+00 0. -1.
</event>
<event>
 5    1  0.8863861E-005  0.9118800E+02  0.7818608E-02  0.1130116E+00
         25   -1    0    0    0    0  0.00000000000E+00  0.00000000000E+00  0.99999998245E-14  0.12500000000E+03  0.12500000000E+03 0.  0.
        -11    1    3    3    0    0  0.31142642901E+02 -0.96279792075E+01 -0.30381557432E+01  0.32738243402E+02  0.51100000000E-03 0.  1.
         23    2    1    0    0    0 -0.29160886157E+02 -0.91827963802E+01  0.63644058287E+01  0.93772020681E+02  0.88419484109E+02 0.  0.
         11    1    3    3    0    0 -0.60303529058E+02  0.44518282729E+00  0.94025615719E+01  0.61033777279E+02  0.51100000000E-03 0. -1.
         22    1    1    0    0    0  0.29160886157E+02  0.91827963802E+01 -0.63644058287E+01  0.31227979319E+02  0.00000000000E+00 0. -1.
</event>
<event>
 5    1  0.8863861E-005  0.9118800E+02  0.7818608E-02  0.1130116E+00
         25   -1    0    0    0    0  0.00000000000E+00  0.00000000000E+00  0.99999998245E-14  0.12500000000E+03  0.12500000000E+03 0.  0.
        -11    1    3    3    0    0 -0.43889557844E+01  0.42288941860E+02  0.57105230275E+00  0.42519920479E+02  0.51100000000E-03 0. -1.
         23    2    1    0    0    0  0.22045222593E+02  0.14448590263E+01  0.20278504438E+02  0.95011715637E+02  0.90155027088E+02 0.  0.
         11    1    3    3    0    0  0.26434178377E+02 -0.40844082834E+02  0.19707452136E+02  0.52491795158E+02  0.51100000000E-03 0.  1.
         22    1    1    0    0    0 -0.22045222593E+02 -0.14448590263E+01 -0.20278504438E+02  0.29988284363E+02  0.00000000000E+00 0. -1.
</event>
<event>
 5    1  0.8863861E-005  0.9118800E+02  0.7818608E-02  0.1130116E+00
         25   -1    0    0    0    0  0.00000000000E+00  0.00000000000E+00  0.99999998245E-14  0.12500000000E+03  0.12500000000E+03 0.  0.
        -11    1    3    3    0    0  0.34284444618E+02  0.21519763521E+02 -0.39846133235E+02  0.56799979743E+02  0.51100000000E-03 0.  1.
         23    2    1    0    0    0  0.12427088521E+02 -0.70750438222E+01 -0.25929786254E+02  0.95388472019E+02  0.90675895389E+02 0.  0.
         11    1    3    3    0    0 -0.21857356097E+02 -0.28594807343E+02  0.13916346981E+02  0.38588492275E+02  0.51100000000E-03 0. -1.
         22    1    1    0    0    0 -0.12427088521E+02  0.70750438222E+01  0.25929786254E+02  0.29611527981E+02  0.00000000000E+00 0.  1.
</event>
<event>
 5    1  0.8863861E-005  0.9118800E+02  0.7818608E-02  0.1130116E+00
         25   -1    0    0    0    0  0.00000000000E+00  0.00000000000E+00  0.99999998245E-14  0.12500000000E+03  0.12500000000E+03 0.  0.
        -11    1    3    3    0    0 -0.25689285370E+02 -0.25449626398E+02 -0.31341013014E+02  0.47852711142E+02  0.51100000000E-03 0. -1.
         23    2    1    0    0    0 -0.26716244176E+02 -0.43529746329E+01  0.11478530962E+02  0.95598252364E+02  0.90964625492E+02 0.  0.
         11    1    3    3    0    0 -0.10269588060E+01  0.21096651765E+02  0.42819543976E+02  0.47745541222E+02  0.51100000000E-03 0.  1.
         22    1    1    0    0    0  0.26716244176E+02  0.43529746329E+01 -0.11478530962E+02  0.29401747636E+02  0.00000000000E+00 0. -1.
</event>
<event>
 5    1  0.8863861E-005  0.9118800E+02  0.7818608E-02  0.1130116E+00
         25   -1    0    0    0    0  0.00000000000E+00  0.00000000000E+00  0.99999998245E-14  0.12500000000E+03  0.12500000000E+03 0.  0.
        -11    1    3    3    0    0  0.27128950212E+02 -0.37983357715E+02  0.19723444396E+02  0.50672770419E+02  0.51100000000E-03 0. -1.
         23    2    1    0    0    0  0.16048132419E+02 -0.17171907796E+02 -0.18162793840E+02  0.95296396657E+02  0.90548877211E+02 0.  0.
         11    1    3    3    0    0 -0.11080817793E+02  0.20811449918E+02 -0.37886238236E+02  0.44623626237E+02  0.51100000000E-03 0.  1.
         22    1    1    0    0    0 -0.16048132419E+02  0.17171907796E+02  0.18162793840E+02  0.29703603343E+02  0.00000000000E+00 0. -1.
</event>
<event>
 5    1  0.8863861E-005  0.9118800E+02  0.7818608E-02  0.1130116E+00
         25   -1    0    0    0    0  0.00000000000E+00  0.00000000000E+00  0.99999998245E-14  0.12500000000E+03  0.12500000000E+03 0.  0.
        -11    1    3    3    0    0  0.38729819438E+02 -0.17736575863E+02 -0.90225632060E+01  0.43542986624E+02  0.51100000000E-03 0.  1.
         23    2    1    0    0    0 -0.80477608320E+01 -0.22920916118E+01  0.21797806665E+02  0.10165124171E+03  0.98933363569E+02 0.  0.
         11    1    3    3    0    0 -0.46777580270E+02  0.15444484251E+02  0.30820369871E+02  0.58108255084E+02  0.51100000000E-03 0. -1.
         22    1    1    0    0    0  0.80477608320E+01  0.22920916118E+01 -0.21797806665E+02  0.23348758292E+02  0.00000000000E+00 0. -1.
</event>
<event>
 5    1  0.8863861E-005  0.9118800E+02  0.7818608E-02  0.1130116E+00
         25   -1    0    0    0    0  0.00000000000E+00  0.00000000000E+00  0.99999998245E-14  0.12500000000E+03  0.12500000000E+03 0.  0.
        -11    1    3    3    0    0 -0.33931873079E+02 -0.11523607129E+02 -0.33851722609E+01  0.35994790226E+02  0.51100000000E-03 0.  1.
         23    2    1    0    0    0  0.11626001239E+02  0.19460433757E+02 -0.21264243953E+02  0.93918808618E+02  0.88626757554E+02 0.  0.
         11    1    3    3    0    0  0.45557874318E+02  0.30984040885E+02 -0.17879071692E+02  0.57924018393E+02  0.51100000000E-03 0. -1.
         22    1    1    0    0    0 -0.11626001239E+02 -0.19460433757E+02  0.21264243953E+02  0.31081191382E+02  0.00000000000E+00 0. -1.
</event>
<event>
 5    1  0.8863861E-005  0.9118800E+02  0.7818608E-02  0.1130116E+00
         25   -1    0    0    0    0  0.00000000000E+00  0.00000000000E+00  0.99999998245E-14  0.12500000000E+03  0.12500000000E+03 0.  0.
        -11    1    3    3    0    0 -0.94761840505E+01  0.48040735527E+02 -0.21143475883E+02  0.53336262588E+02  0.51100000000E-03 0. -1.
         23    2    1    0    0    0 -0.35712095441E+00  0.24686185332E+02  0.14085344032E+02  0.96575851849E+02  0.92298228380E+02 0.  0.
         11    1    3    3    0    0  0.91190630961E+01 -0.23354550195E+02  0.35228819915E+02  0.43239589261E+02  0.51100000000E-03 0.  1.
         22    1    1    0    0    0  0.35712095441E+00 -0.24686185332E+02 -0.14085344032E+02  0.28424148151E+02  0.00000000000E+00 0. -1.
</event>
<event>
 5    1  0.8863861E-005  0.9118800E+02  0.7818608E-02  0.1130116E+00
         25   -1    0    0    0    0  0.00000000000E+00  0.00000000000E+00  0.99999998245E-14  0.12500000000E+03  0.12500000000E+03 0.  0.
        -11    1    3    3    0    0  0.52422372602E+01  0.66915547820E+01  0.34813201501E+02  0.35835972931E+02  0.51100000000E-03 0. -1.
         23    2    1    0    0    0 -0.22617573353E+02  0.11031923193E+02 -0.16865674714E+02  0.94706288816E+02  0.89730553348E+02 0.  0.
         11    1    3    3    0    0 -0.27859810613E+02  0.43403684115E+01 -0.51678876215E+02  0.58870315885E+02  0.51100000000E-03 0.  1.
         22    1    1    0    0    0  0.22617573353E+02 -0.11031923193E+02  0.16865674714E+02  0.30293711184E+02  0.00000000000E+00 0.  1.
</event>
<event>
 5    1  0.8863861E-005  0.9118800E+02  0.7818608E-02  0.1130116E+00
         25   -1    0    0    0    0  0.00000000000E+00  0.00000000000E+00  0.99999998245E-14  0.12500000000E+03  0.12500000000E+03 0.  0.
        -11    1    3    3    0    0 -0.59878503380E+01 -0.21509906159E+02 -0.28452208018E+02  0.36167092170E+02  0.51100000000E-03 0. -1.
         23    2    1    0    0    0 -0.18828873327E+02  0.26065060158E+02 -0.45572411551E+00  0.92842240186E+02  0.87095120681E+02 0.  0.
         11    1    3    3    0    0 -0.12841022989E+02  0.47574966317E+02  0.27996483903E+02  0.56675148016E+02  0.51100000000E-03 0.  1.
         22    1    1    0    0    0  0.18828873327E+02 -0.26065060158E+02  0.45572411551E+00  0.32157759814E+02  0.00000000000E+00 0.  1.
</event>
<event>
 5    1  0.8863861E-005  0.9118800E+02  0.7818608E-02  0.1130116E+00
         25   -1    0    0    0    0  0.00000000000E+00  0.00000000000E+00  0.99999998245E-14  0.12500000000E+03  0.12500000000E+03 0.  0.
        -11    1    3    3    0    0 -0.20952307913E+02  0.16176935783E+02  0.40519437067E+02  0.48399558249E+02  0.51100000000E-03 0.  1.
         23    2    1    0    0    0 -0.12624721387E+02 -0.21560350030E+02  0.84279504014E+01  0.98632166728E+02  0.95042315218E+02 0.  0.
         11    1    3    3    0    0  0.83275865264E+01 -0.37737285813E+02 -0.32091486666E+02  0.50232608479E+02  0.51100000000E-03 0. -1.
         22    1    1    0    0    0  0.12624721387E+02  0.21560350030E+02 -0.84279504014E+01  0.26367833272E+02  0.00000000000E+00 0. -1.
</event>
<event>
 5    1  0.8863861E-005  0.9118800E+02  0.7818608E-02  0.1130116E+00
         25   -1    0    0    0    0  0.00000000000E+00  0.00000000000E+00  0.99999998245E-14  0.12500000000E+03  0.12500000000E+03 0.  0.
        -11    1    3    3    0    0 -0.32973106826E+02 -0.15855557169E+02  0.14566787645E+02  0.39380398289E+02  0.51100000000E-03 0. -1.
         23    2    1    0    0    0  0.18032343846E+02  0.89615047745E+01  0.20318518492E+02  0.96393773648E+02  0.92051308583E+02 0.  0.
         11    1    3    3    0    0  0.51005450672E+02  0.24817061943E+02  0.57517308473E+01  0.57013375358E+02  0.51100000000E-03 0.  1.
         22    1    1    0    0    0 -0.18032343846E+02 -0.89615047745E+01 -0.20318518492E+02  0.28606226352E+02  0.00000000000E+00 0.  1.
</event>
<event>
 5    1  0.8863861E-005  0.9118800E+02  0.7818608E-02  0.1130116E+00
         25   -1    0    0    0    0  0.00000000000E+00  0.00000000000E+00  0.99999998245E-14  0.12500000000E+03  0.12500000000E+03 0.  0.
        -11    1    3    3    0    0  0.34598952856E+00  0.12479070046E+02  0.38880475903E+02  0.40835502993E+02  0.51100000000E-03 0.  1.
         23    2    1    0    0    0 -0.29594776842E+02  0.75522210495E+01 -0.48622243873E+01  0.94072211765E+02  0.88842855319E+02 0.  0.
         11    1    3    3    0    0 -0.29940766371E+02 -0.49268489969E+01 -0.43742700290E+02  0.53236708772E+02  0.51100000000E-03 0. -1.
         22    1    1    0    0    0  0.29594776842E+02 -0.75522210495E+01  0.48622243873E+01  0.30927788235E+02  0.00000000000E+00 0.  1.
</event>
<event>
 5    1  0.8863861E-005  0.9118800E+02  0.7818608E-02  0.1130116E+00
         25   -1    0    0    0    0  0.00000000000E+00  0.00000000000E+00  0.99999998245E-14  0.12500000000E+03  0.12500000000E+03 0.  0.
        -11    1    3    3    0    0 -0.38812922952E+02  0.12466991126E+01  0.26883383448E+02  0.47230430367E+02  0.51100000000E-03 0. -1.
         23    2    1    0    0    0  0.95353528426E+01  0.15562886472E+01  0.27779854342E+02  0.95588007625E+02  0.90950546487E+02 0.  0.
         11    1    3    3    0    0  0.48348275795E+02  0.30958953461E+00  0.89647089443E+00  0.48357577259E+02  0.51100000000E-03 0.  1.
         22    1    1    0    0    0 -0.95353528426E+01 -0.15562886472E+01 -0.27779854342E+02  0.29411992375E+02  0.00000000000E+00 0.  1.
</event>
<event>
 5    1  0.8863861E-005  0.9118800E+02  0.7818608E-02  0.1130116E+00
         25   -1    0    0    0    0  0.00000000000E+00  0.00000000000E+00  0.99999998245E-14  0.12500000000E+03  0.12500000000E+03 0.  0.
        -11    1    3    3    0    0  0.30477177231E+02  0.28665468200E+00 -0.22919157792E+02  0.38134345373E+02  0.51100000000E-03 0. -1.
         23    2    1    0    0    0  0.25000099047E+01  0.10108653558E+02  0.26925172242E+02  0.96131334867E+02  0.91694240369E+02 0.  0.
         11    1    3    3    0    0 -0.27977167327E+02  0.98219988757E+01  0.49844330034E+02  0.57996989494E+02  0.51100000000E-03 0.  1.
         22    1    1    0    0    0 -0.25000099047E+01 -0.10108653558E+02 -0.26925172242E+02  0.28868665133E+02  0.00000000000E+00 0.  1.
</event>
<event>
 4    1  0.8863861E-005  0.9118800E+02  0.7818608E-02  0.1130116E+00
         25   -1    0    0    0    0  0.00000000000E+00  0.00000000000E+00  0.99999998245E-14  0.12500000000E+03  0.12500000000E+03 0.  0.
        -11    1    1    0    0    0 -0.13968065609E+02 -0.47873528597E+02 -0.31698926711E+02  0.59091484598E+02  0.51100000000E-03 0.  1.
         11    1    1    0    0    0  0.92391804285E+01  0.52957660780E+01 -0.26784821180E+01  0.10980977191E+02  0.51100000000E-03 0. -1.
         22    1    1    0    0    0  0.47288851807E+01  0.42577762519E+02  0.34377408829E+02  0.54927538211E+02  0.00000000000E+00 0.  1.
</event>
<event>
 5    1  0.8863861E-005  0.9118800E+02  0.7818608E-02  0.1130116E+00
         25   -1    0    0    0    0  0.00000000000E+00  0.00000000000E+00  0.99999998245E-14  0.12500000000E+03  0.12500000000E+03 0.  0.
        -11    1    3    3    0    0 -0.13096675102E+02  0.33700900090E+02  0.50976358769E+02  0.62496901677E+02  0.51100000000E-03 0. -1.
         23    2    1    0    0    0 -0.56121694857E+01  0.15574068860E+02  0.23601456078E+02  0.96171597404E+02  0.91749110901E+02 0.  0.
         11    1    3    3    0    0  0.74845056167E+01 -0.18126831230E+02 -0.27374902690E+02  0.33674695727E+02  0.51100000000E-03 0.  1.
         22    1    1    0    0    0  0.56121694857E+01 -0.15574068860E+02 -0.23601456078E+02  0.28828402596E+02  0.00000000000E+00 0. -1.
</event>
<event>
 5    1  0.8863861E-005  0.9118800E+02  0.7818608E-02  0.1130116E+00
         25   -1    0    0    0    0  0.00000000000E+00  0.00000000000E+00  0.99999998245E-14  0.12500000000E+03  0.12500000000E+03 0.  0.
        -11    1    3    3    0    0  0.70868640176E+01  0.16620206463E+01  0.37775550936E+02  0.38470484829E+02  0.51100000000E-03 0.  1.
         23    2    1    0    0    0  0.23012020199E+02 -0.84372384153E+01 -0.16183092278E+02  0.95629393241E+02  0.91007407996E+02 0.  0.
         11    1    3    3    0    0  0.15925156182E+02 -0.10099259062E+02 -0.53958643214E+02  0.57158908411E+02  0.51100000000E-03 0. -1.
         22    1    1    0    0    0 -0.23012020199E+02  0.84372384153E+01  0.16183092278E+02  0.29370606759E+02  0.00000000000E+00 0. -1.
</event>
<event>
 5    1  0.8863861E-005  0.9118800E+02  0.7818608E-02  0.1130116E+00
         25   -1    0    0    0    0  0.00000000000E+00  0.00000000000E+00  0.99999998245E-14  0.12500000000E+03  0.12500000000E+03 0.  0.
        -11    1    3    3    0    0 -0.58942199734E+01  0.43935841977E+01 -0.46055540236E+02  0.46638591294E+02  0.51100000000E-03 0.  1.
         23    2    1    0    0    0  0.14092852696E+02  0.26872340086E+02 -0.34981697888E+02  0.78691789649E+02  0.63623481611E+02 0.  0.
         11    1    3    3    0    0  0.19987072669E+02  0.22478755888E+02  0.11073842349E+02  0.32053198355E+02  0.51100000000E-03 0. -1.
         22    1    1    0    0    0 -0.14092852696E+02 -0.26872340086E+02  0.34981697888E+02  0.46308210351E+02  0.00000000000E+00 0.  1.
</event>
<event>
 5    1  0.8863861E-005  0.9118800E+02  0.7818608E-02  0.1130116E+00
         25   -1    0    0    0    0  0.00000000000E+00  0.00000000000E+00  0.99999998245E-14  0.12500000000E+03  0.12500000000E+03 0.  0.
        -11    1    3    3    0    0 -0.20846713626E+02 -0.42852191489E+02  0.31001899557E+02  0.56850800881E+02  0.51100000000E-03 0.  1.
         23    2    1    0    0    0 -0.39487152853E+01 -0.74389513696E+01  0.27493372730E+02  0.96245593486E+02  0.91849868653E+02 0.  0.
         11    1    3    3    0    0  0.16897998341E+02  0.35413240119E+02 -0.35085268274E+01  0.39394792605E+02  0.51100000000E-03 0. -1.
         22    1    1    0    0    0  0.39487152853E+01  0.74389513696E+01 -0.27493372730E+02  0.28754406514E+02  0.00000000000E+00 0.  1.
</event>
<event>
 5    1  0.8863861E-005  0.9118800E+02  0.7818608E-02  0.1130116E+00
         25   -1    0    0    0    0  0.00000000000E+00  0.00000000000E+00  0.99999998245E-14  0.12500000000E+03  0.12500000000E+03 0.  0.
        -11    1    3    3    0    0  0.12720668424E+02  0.30908353023E+02  0.24798289972E+01  0.33515537350E+02  0.51100000000E-03 0.  1.
         23    2    1    0    0    0 -0.12284349425E+02 -0.22808057462E+02 -0.14708988861E+02  0.95209614315E+02  0.90428997444E+02 0.  0.
         11    1    3    3    0    0 -0.25005017849E+02 -0.53716410484E+02 -0.17188817858E+02  0.61694076965E+02  0.51100000000E-03 0. -1.
         22    1    1    0    0    0  0.12284349425E+02  0.22808057462E+02  0.14708988861E+02  0.29790385685E+02  0.00000000000E+00 0. -1.
</event>
<event>
 5    1  0.8863861E-005  0.9118800E+02  0.7818608E-02  0.1130116E+00
         25   -1    0    0    0    0  0.00000000000E+00  0.00000000000E+00  0.99999998245E-14  0.12500000000E+03  0.12500000000E+03 0.  0.
        -11    1    3    3    0    0  0.25493849878E+02  0.13627619782E+02  0.19475543426E+02  0.34856063957E+02  0.51100000000E-03 0.  1.
         23    2    1    0    0    0  0.78259494449E+00 -0.21432197045E+02 -0.21825358395E+02  0.94401016453E+02  0.89304278248E+02 0.  0.
         11    1    3    3    0    0 -0.24711254934E+02 -0.35059816827E+02 -0.41300901821E+02  0.59544952497E+02  0.51100000000E-03 0. -1.
         22    1    1    0    0    0 -0.78259494449E+00  0.21432197045E+02  0.21825358395E+02  0.30598983547E+02  0.00000000000E+00 0. -1.
</event>
<event>
 5    1  0.8863861E-005  0.9118800E+02  0.7818608E-02  0.1130116E+00
         25   -1    0    0    0    0  0.00000000000E+00  0.00000000000E+00  0.99999998245E-14  0.12500000000E+03  0.12500000000E+03 0.  0.
        -11    1    3    3    0    0 -0.59007964896E+02  0.61783221235E+01 -0.45998764373E+01  0.59508574584E+02  0.51100000000E-03 0. -1.
         23    2    1    0    0    0 -0.23997652994E+02  0.16148091389E+02 -0.23292257384E+01  0.95981497329E+02  0.91489749875E+02 0.  0.
         11    1    3    3    0    0  0.35010311902E+02  0.99697692657E+01  0.22706506989E+01  0.36472922745E+02  0.51100000000E-03 0.  1.
         22    1    1    0    0    0  0.23997652994E+02 -0.16148091389E+02  0.23292257384E+01  0.29018502671E+02  0.00000000000E+00 0. -1.
</event>
<event>
 5    1  0.8863861E-005  0.9118800E+02  0.7818608E-02  0.1130116E+00
         25   -1    0    0    0    0  0.00000000000E+00  0.00000000000E+00  0.99999998245E-14  0.12500000000E+03  0.12500000000E+03 0.  0.
        -11    1    3    3    0    0 -0.23180298125E+02  0.84053212775E+01 -0.53648374868E+02  0.59043405840E+02  0.51100000000E-03 0. -1.
         23    2    1    0    0    0 -0.17920765477E+02  0.15562773270E+02 -0.19639189613E+02  0.94193320274E+02  0.89013089309E+02 0.  0.
         11    1    3    3    0    0  0.52595326484E+01  0.71574519924E+01  0.34009185255E+02  0.35149914434E+02  0.51100000000E-03 0.  1.
         22    1    1    0    0    0  0.17920765477E+02 -0.15562773270E+02  0.19639189613E+02  0.30806679726E+02  0.00000000000E+00 0. -1.
</event>
<event>
 5    1  0.8863861E-005  0.9118800E+02  0.7818608E-02  0.1130116E+00
         25   -1    0    0    0    0  0.00000000000E+00  0.00000000000E+00  0.99999998245E-14  0.12500000000E+03  0.12500000000E+03 0.  0.
        -11    1    3    3    0    0 -0.31287656980E+02 -0.30747250322E+01 -0.16890731507E+02  0.35688488682E+02  0.51100000000E-03 0.  1.
         23    2    1    0    0    0  0.26032635986E+02  0.11324331434E+02 -0.83845908598E+01  0.95398648972E+02  0.90689923602E+02 0.  0.
         11    1    3    3    0    0  0.57320292966E+02  0.14399056466E+02  0.85061406469E+01  0.59710160290E+02  0.51100000000E-03 0. -1.
         22    1    1    0    0    0 -0.26032635986E+02 -0.11324331434E+02  0.83845908598E+01  0.29601351028E+02  0.00000000000E+00 0. -1.
</event>
<event>
 5    1  0.8863861E-005  0.9118800E+02  0.7818608E-02  0.1130116E+00
         25   -1    0    0    0    0  0.00000000000E+00  0.00000000000E+00  0.99999998245E-14  0.12500000000E+03  0.12500000000E+03 0.  0.
        -11    1    3    3    0    0  0.38113981275E+02 -0.38316546699E+01 -0.41368708468E+02  0.56380202082E+02  0.51100000000E-03 0.  1.
         23    2    1    0    0    0  0.57653179559E+01 -0.18256585537E+02 -0.11878376850E+02  0.10246918459E+03  0.99961473311E+02 0.  0.
         11    1    3    3    0    0 -0.32348663320E+02 -0.14424930867E+02  0.29490331618E+02  0.46088982504E+02  0.51100000000E-03 0. -1.
         22    1    1    0    0    0 -0.57653179559E+01  0.18256585537E+02  0.11878376850E+02  0.22530815414E+02  0.00000000000E+00 0.  1.
</event>
<event>
 5    1  0.8863861E-005  0.9118800E+02  0.7818608E-02  0.1130116E+00
         25   -1    0    0    0    0  0.00000000000E+00  0.00000000000E+00  0.99999998245E-14  0.12500000000E+03  0.12500000000E+03 0.  0.
        -11    1    3    3    0    0 -0.10725675872E+02  0.36627453770E+02  0.33022271864E+02  0.50468613334E+02  0.51100000000E-03 0.  1.
         23    2    1    0    0    0 -0.27754797733E+02  0.15205273189E+01  0.13525862356E+02  0.94087385212E+02  0.88864201471E+02 0.  0.
         11    1    3    3    0    0 -0.17029121861E+02 -0.35106926451E+02 -0.19496409508E+02  0.43618771878E+02  0.51100000000E-03 0. -1.
         22    1    1    0    0    0  0.27754797733E+02 -0.15205273189E+01 -0.13525862356E+02  0.30912614788E+02  0.00000000000E+00 0. -1.
</event>
<event>
 5    1  0.8863861E-005  0.9118800E+02  0.7818608E-02  0.1130116E+00
         25   -1    0    0    0    0  0.00000000000E+00  0.00000000000E+00  0.99999998245E-14  0.12500000000E+03  0.12500000000E+03 0.  0.
        -11    1    3    3    0    0  0.38039585660E+02  0.23869059407E+02 -0.32361599625E+02  0.55353547355E+02  0.51100000000E-03 0. -1.
         23    2    1    0    0    0 -0.22499930923E+01  0.75810752882E+01 -0.24160773043E+02  0.99577999185E+02  0.96278241551E+02 0.  0.
         11    1    3    3    0    0 -0.40289578753E+02 -0.16287984119E+02  0.82008265825E+01  0.44224451830E+02  0.51100000000E-03 0.  1.
         22    1    1    0    0    0  0.22499930923E+01 -0.75810752882E+01  0.24160773043E+02  0.25422000815E+02  0.00000000000E+00 0. -1.
</event>
<event>
 5    1  0.8863861E-005  0.9118800E+02  0.7818608E-02  0.1130116E+00
         25   -1    0    0    0    0  0.00000000000E+00  0.00000000000E+00  0.99999998245E-14  0.12500000000E+03  0.12500000000E+03 0.  0.
        -11    1    3    3    0    0 -0.15591203339E+01  0.27134438029E+02 -0.32582881003E+02  0.42430563490E+02  0.51100000000E-03 0. -1.
         23    2    1    0    0    0  0.20759927607E+02  0.14859753975E+02  0.14264662980E+02  0.95755043300E+02  0.91179826854E+02 0.  0.
         11    1    3    3    0    0  0.22319047941E+02 -0.12274684054E+02  0.46847543983E+02  0.53324479811E+02  0.51100000000E-03 0.  1.
         22    1    1    0    0    0 -0.20759927607E+02 -0.14859753975E+02 -0.14264662980E+02  0.29244956700E+02  0.00000000000E+00 0.  1.
</event>
<event>
 5    1  0.8863861E-005  0.9118800E+02  0.7818608E-02  0.1130116E+00
         25   -1    0    0    0    0  0.00000000000E+00  0.00000000000E+00  0.99999998245E-14  0.12500000000E+03  0.12500000000E+03 0.  0.
        -11    1    3    3    0    0 -0.32263611467E+02 -0.48441768575E+02  0.21420425529E+02  0.62019192172E+02  0.51100000000E-03 0. -1.
         23    2    1    0    0    0 -0.11682884834E+02 -0.21307818012E+02  0.14275193041E+02  0.96816777281E+02  0.92623940319E+02 0.  0.
         11    1    3    3    0    0  0.20580726632E+02  0.27133950563E+02 -0.71452324884E+01  0.34797585109E+02  0.51100000000E-03 0.  1.
         22    1    1    0    0    0  0.11682884834E+02  0.21307818012E+02 -0.14275193041E+02  0.28183222719E+02  0.00000000000E+00 0. -1.
</event>
<event>
 5    1  0.8863861E-005  0.9118800E+02  0.7818608E-02  0.1130116E+00
         25   -1    0    0    0    0  0.00000000000E+00  0.00000000000E+00  0.99999998245E-14  0.12500000000E+03  0.12500000000E+03 0.  0.
        -11    1    3    3    0    0 -0.11871694983E+02 -0.33478150151E+02  0.89966630822E+00  0.35532141492E+02  0.51100000000E-03 0.  1.
         23    2    1    0    0    0  0.21979685997E+02  0.11999542896E+02 -0.16706982617E+02  0.94896530193E+02  0.89995180695E+02 0.  0.
         11    1    3    3    0    0  0.33851380980E+02  0.45477693047E+02 -0.17606648925E+02  0.59364388701E+02  0.51100000000E-03 0. -1.
         22    1    1    0    0    0 -0.21979685997E+02 -0.11999542896E+02  0.16706982617E+02  0.30103469807E+02  0.00000000000E+00 0. -1.
</event>
<event>
 5    1  0.8863861E-005  0.9118800E+02  0.7818608E-02  0.1130116E+00
         25   -1    0    0    0    0  0.00000000000E+00  0.00000000000E+00  0.99999998245E-14  0.12500000000E+03  0.12500000000E+03 0.  0.
        -11    1    3    3    0    0  0.47535582874E+02  0.44766022223E+00  0.29110294076E+02  0.55742634135E+02  0.51100000000E-03 0.  1.
         23    2    1    0    0    0  0.15298868554E+02 -0.19612501732E+02  0.11484122142E+02  0.97603090236E+02  0.93679093500E+02 0.  0.
         11    1    3    3    0    0 -0.32236714320E+02 -0.20060161954E+02 -0.17626171933E+02  0.41860456102E+02  0.51100000000E-03 0. -1.
         22    1    1    0    0    0 -0.15298868554E+02  0.19612501732E+02 -0.11484122142E+02  0.27396909764E+02  0.00000000000E+00 0. -1.
</event>
<event>
 5    1  0.8863861E-005  0.9118800E+02  0.7818608E-02  0.1130116E+00
         25   -1    0    0    0    0  0.00000000000E+00  0.00000000000E+00  0.99999998245E-14  0.12500000000E+03  0.12500000000E+03 0.  0.
        -11    1    3    3    0    0 -0.14536359459E+02  0.39252997140E+02 -0.15881887423E+02  0.44769832244E+02  0.51100000000E-03 0.  1.
         23    2    1    0    0    0 -0.19723067697E+02  0.42380009489E+01  0.20993550753E+02  0.95884896967E+02  0.91357672046E+02 0.  0.
         11    1    3    3    0    0 -0.51867082372E+01 -0.35014996191E+02  0.36875438177E+02  0.51115064722E+02  0.51100000000E-03 0. -1.
         22    1    1    0    0    0  0.19723067697E+02 -0.42380009489E+01 -0.20993550753E+02  0.29115103033E+02  0.00000000000E+00 0.  1.
</event>
<event>
 5    1  0.8863861E-005  0.9118800E+02  0.7818608E-02  0.1130116E+00
         25   -1    0    0    0    0  0.00000000000E+00  0.00000000000E+00  0.99999998245E-14  0.12500000000E+03  0.12500000000E+03 0.  0.
        -11    1    3    3    0    0 -0.24122526170E+02 -0.13445127180E+01  0.28909679789E+02  0.37675901702E+02  0.51100000000E-03 0.  1.
         23    2    1    0    0    0  0.99853827084E+01  0.27907275772E+02 -0.62230866721E+01  0.94713852729E+02  0.89741089709E+02 0.  0.
         11    1    3    3    0    0  0.34107908878E+02  0.29251788490E+02 -0.35132766461E+02  0.57037951027E+02  0.51100000000E-03 0. -1.
         22    1    1    0    0    0 -0.99853827084E+01 -0.27907275772E+02  0.62230866721E+01  0.30286147271E+02  0.00000000000E+00 0. -1.
</event>
<event>
 5    1  0.8863861E-005  0.9118800E+02  0.7818608E-02  0.1130116E+00
         25   -1    0    0    0    0  0.00000000000E+00  0.00000000000E+00  0.99999998245E-14  0.12500000000E+03  0.12500000000E+03 0.  0.
        -11    1    3    3    0    0  0.38587959310E+02 -0.23862459736E+02  0.97591377550E+01  0.46407848025E+02  0.51100000000E-03 0.  1.
         23    2    1    0    0    0  0.76476763173E+01  0.96276320444E+01  0.27141248505E+02  0.95203597159E+02  0.90420679547E+02 0.  0.
         11    1    3    3    0    0 -0.30940282992E+02  0.33490091781E+02  0.17382110750E+02  0.48795749134E+02  0.51100000000E-03 0. -1.
         22    1    1    0    0    0 -0.76476763173E+01 -0.96276320444E+01 -0.27141248505E+02  0.29796402841E+02  0.00000000000E+00 0.  1.
</event>
<event>
 5    1  0.8863861E-005  0.9118800E+02  0.7818608E-02  0.1130116E+00
         25   -1    0    0    0    0  0.00000000000E+00  0.00000000000E+00  0.99999998245E-14  0.12500000000E+03  0.12500000000E+03 0.  0.
        -11    1    3    3    0    0 -0.55076785342E+01 -0.56261862763E+02  0.16883106583E+02  0.58998059396E+02  0.51100000000E-03 0. -1.
         23    2    1    0    0    0 -0.15161038310E+02 -0.26908601152E+02  0.20080206961E+00  0.94113591662E+02  0.88901056886E+02 0.  0.
         11    1    3    3    0    0 -0.96533597754E+01  0.29353261611E+02 -0.16682304513E+02  0.35115532265E+02  0.51100000000E-03 0.  1.
         22    1    1    0    0    0  0.15161038310E+02  0.26908601152E+02 -0.20080206961E+00  0.30886408338E+02  0.00000000000E+00 0. -1.
</event>
<event>
 5    1  0.8863861E-005  0.9118800E+02  0.7818608E-02  0.1130116E+00
         25   -1    0    0    0    0  0.00000000000E+00  0.00000000000E+00  0.99999998245E-14  0.12500000000E+03  0.12500000000E+03 0.  0.
        -11    1    3    3    0    0  0.33089714094E+02 -0.36348768097E+02 -0.13153635427E+02  0.50883988113E+02  0.51100000000E-03 0.  1.
         23    2    1    0    0    0  0.69126150131E+01 -0.37959955879E+01 -0.28532806445E+02  0.95397384027E+02  0.90688180083E+02 0.  0.
         11    1    3    3    0    0 -0.26177099081E+02  0.32552772510E+02 -0.15379171017E+02  0.44513395914E+02  0.51100000000E-03 0. -1.
         22    1    1    0    0    0 -0.69126150131E+01  0.37959955879E+01  0.28532806445E+02  0.29602615973E+02  0.00000000000E+00 0. -1.
</event>
<event>
 5    1  0.8863861E-005  0.9118800E+02  0.7818608E-02  0.1130116E+00
         25   -1    0    0    0    0  0.00000000000E+00  0.00000000000E+00  0.99999998245E-14  0.12500000000E+03  0.12500000000E+03 0.  0.
        -11    1    3    3    0    0  0.25752281218E+02 -0.16920722450E+02  0.15454963699E+02  0.34472405477E+02  0.51100000000E-03 0.  1.
         23    2    1    0    0    0 -0.18377152487E+02  0.10420157593E+02 -0.18842759441E+02  0.96691891601E+02  0.92455248094E+02 0.  0.
         11    1    3    3    0    0 -0.44129433705E+02  0.27340880042E+02 -0.34297723140E+02  0.62219486124E+02  0.51100000000E-03 0. -1.
         22    1    1    0    0    0  0.18377152487E+02 -0.10420157593E+02  0.18842759441E+02  0.28308108399E+02  0.00000000000E+00 0. -1.
</event>
<event>
 5    1  0.8863861E-005  0.9118800E+02  0.7818608E-02  0.1130116E+00
         25   -1    0    0    0    0  0.00000000000E+00  0.00000000000E+00  0.99999998245E-14  0.12500000000E+03  0.12500000000E+03 0.  0.
        -11    1    3    3    0    0  0.13847201910E+02 -0.25928645234E+02  0.39709230967E+02  0.49405087477E+02  0.51100000000E-03 0.  1.
         23    2    1    0    0    0 -0.16161716670E+02 -0.25520957487E+02  0.66238649753E+01  0.94074348124E+02  0.88845861079E+02 0.  0.
         11    1    3    3    0    0 -0.30008918580E+02  0.40768774661E+00 -0.33085365992E+02  0.44669260646E+02  0.51100000000E-03 0. -1.
         22    1    1    0    0    0  0.16161716670E+02  0.25520957487E+02 -0.66238649753E+01  0.30925651876E+02  0.00000000000E+00 0. -1.
</event>
<event>
 5    1  0.8863861E-005  0.9118800E+02  0.7818608E-02  0.1130116E+00
         25   -1    0    0    0    0  0.00000000000E+00  0.00000000000E+00  0.99999998245E-14  0.12500000000E+03  0.12500000000E+03 0.  0.
        -11    1    3    3    0    0  0.24017997818E+02 -0.43343239003E+02 -0.25485001235E+02  0.55722400116E+02  0.51100000000E-03 0.  1.
         23    2    1    0    0    0  0.31190991712E+02 -0.34940010323E+02 -0.64640448826E+01  0.77719283407E+02  0.61683229906E+02 0.  0.
         11    1    3    3    0    0  0.71729938940E+01  0.84032286805E+01  0.19020956353E+02  0.21996883291E+02  0.51100000000E-03 0. -1.
         22    1    1    0    0    0 -0.31190991712E+02  0.34940010323E+02  0.64640448826E+01  0.47280716593E+02  0.00000000000E+00 0.  1.
</event>
<event>
 5    1  0.8863861E-005  0.9118800E+02  0.7818608E-02  0.1130116E+00
         25   -1    0    0    0    0  0.00000000000E+00  0.00000000000E+00  0.99999998245E-14  0.12500000000E+03  0.12500000000E+03 0.  0.
        -11    1    3    3    0    0  0.24113270570E+02  0.33323932651E+02  0.99804739478E+01  0.42326636594E+02  0.51100000000E-03 0. -1.
         23    2    1    0    0    0 -0.18536971720E+02  0.42705690112E+01  0.22607047598E+02  0.95454515043E+02  0.90766892427E+02 0.  0.
         11    1    3    3    0    0 -0.42650242289E+02 -0.29053363639E+02  0.12626573650E+02  0.53127878449E+02  0.51100000000E-03 0.  1.
         22    1    1    0    0    0  0.18536971720E+02 -0.42705690112E+01 -0.22607047598E+02  0.29545484957E+02  0.00000000000E+00 0.  1.
</event>
<event>
 5    1  0.8863861E-005  0.9118800E+02  0.7818608E-02  0.1130116E+00
         25   -1    0    0    0    0  0.00000000000E+00  0.00000000000E+00  0.99999998245E-14  0.12500000000E+03  0.12500000000E+03 0.  0.
        -11    1    3    3    0    0  0.16871609856E+02 -0.23646242810E+02  0.28807954836E+02  0.40910808844E+02  0.51100000000E-03 0.  1.
         23    2    1    0    0    0 -0.27571701083E+02 -0.64776069165E+01 -0.17318534292E+00  0.96677074920E+02  0.92435213690E+02 0.  0.
         11    1    3    3    0    0 -0.44443310939E+02  0.17168635894E+02 -0.28981140179E+02  0.55766266075E+02  0.51100000000E-03 0. -1.
         22    1    1    0    0    0  0.27571701083E+02  0.64776069165E+01  0.17318534292E+00  0.28322925080E+02  0.00000000000E+00 0.  1.
</event>
<event>
 5    1  0.8863861E-005  0.9118800E+02  0.7818608E-02  0.1130116E+00
         25   -1    0    0    0    0  0.00000000000E+00  0.00000000000E+00  0.99999998245E-14  0.12500000000E+03  0.12500000000E+03 0.  0.
        -11    1    3    3    0    0  0.12626982123E+02  0.10113876174E+02 -0.42699078606E+02  0.45661170406E+02  0.51100000000E-03 0. -1.
         23    2    1    0    0    0  0.32814558652E+01  0.84639425398E+01  0.16795695616E+02  0.10590807325E+03  0.10417302104E+03 0.  0.
         11    1    3    3    0    0 -0.93455262580E+01 -0.16499336341E+01  0.59494774222E+02  0.60246902841E+02  0.51100000000E-03 0.  1.
         22    1    1    0    0    0 -0.32814558652E+01 -0.84639425398E+01 -0.16795695616E+02  0.19091926753E+02  0.00000000000E+00 0.  1.
</event>
<event>
 5    1  0.8863861E-005  0.9118800E+02  0.7818608E-02  0.1130116E+00
         25   -1    0    0    0    0  0.00000000000E+00  0.00000000000E+00  0.99999998245E-14  0.12500000000E+03  0.12500000000E+03 0.  0.
        -11    1    3    3    0    0  0.17633512562E+02  0.46182005929E+02  0.12605292405E+01  0.49450049253E+02  0.51100000000E-03 0.  1.
         23    2    1    0    0    0 -0.15862010982E+02  0.27980846193E+02  0.14382695778E+02  0.89766591367E+02  0.82562993173E+02 0.  0.
         11    1    3    3    0    0 -0.33495523543E+02 -0.18201159735E+02  0.13122166537E+02  0.40316542114E+02  0.51100000000E-03 0. -1.
         22    1    1    0    0    0  0.15862010982E+02 -0.27980846193E+02 -0.14382695778E+02  0.35233408633E+02  0.00000000000E+00 0.  1.
</event>
<event>
 5    1  0.8863861E-005  0.9118800E+02  0.7818608E-02  0.1130116E+00
         25   -1    0    0    0    0  0.00000000000E+00  0.00000000000E+00  0.99999998245E-14  0.12500000000E+03  0.12500000000E+03 0.  0.
        -11    1    3    3    0    0 -0.48182136119E+02 -0.27359723408E+02  0.25670122307E+02  0.61065766887E+02  0.51100000000E-03 0.  1.
         23    2    1    0    0    0 -0.22226241973E+02 -0.15262760895E+02  0.22510948593E+02  0.89875926931E+02  0.82728361115E+02 0.  0.
         11    1    3    3    0    0  0.25955894146E+02  0.12096962512E+02 -0.31591737133E+01  0.28810160044E+02  0.51100000000E-03 0. -1.
         22    1    1    0    0    0  0.22226241973E+02  0.15262760895E+02 -0.22510948593E+02  0.35124073069E+02  0.00000000000E+00 0.  1.
</event>
<event>
 5    1  0.8863861E-005  0.9118800E+02  0.7818608E-02  0.1130116E+00
         25   -1    0    0    0    0  0.00000000000E+00  0.00000000000E+00  0.99999998245E-14  0.12500000000E+03  0.12500000000E+03 0.  0.
        -11    1    3    3    0    0 -0.49848046920E+02 -0.12876114346E+02 -0.24512129987E+02  0.57021632905E+02  0.51100000000E-03 0. -1.
         23    2    1    0    0    0 -0.11105605207E+02 -0.32016819989E+01 -0.25539530579E+02  0.96966932796E+02  0.92826360475E+02 0.  0.
         11    1    3    3    0    0  0.38742441713E+02  0.96744323468E+01 -0.10274005930E+01  0.39945299891E+02  0.51100000000E-03 0.  1.
         22    1    1    0    0    0  0.11105605207E+02  0.32016819989E+01  0.25539530579E+02  0.28033067204E+02  0.00000000000E+00 0. -1.
</event>
<event>
 5    1  0.8863861E-005  0.9118800E+02  0.7818608E-02  0.1130116E+00
         25   -1    0    0    0    0  0.00000000000E+00  0.00000000000E+00  0.99999998245E-14  0.12500000000E+03  0.12500000000E+03 0.  0.
        -11    1    3    3    0    0  0.23865367036E+02  0.12249516064E+02 -0.25363856197E+02  0.36917903367E+02  0.51100000000E-03 0.  1.
         23    2    1    0    0    0 -0.24918637917E+02  0.96633202138E+01  0.91699548705E+01  0.96743914894E+02  0.92525557137E+02 0.  0.
         11    1    3    3    0    0 -0.48784004953E+02 -0.25861958500E+01  0.34533811067E+02  0.59826011528E+02  0.51100000000E-03 0. -1.
         22    1    1    0    0    0  0.24918637917E+02 -0.96633202138E+01 -0.91699548705E+01  0.28256085106E+02  0.00000000000E+00 0. -1.
</event>
<event>
 5    1  0.8863861E-005  0.9118800E+02  0.7818608E-02  0.1130116E+00
         25   -1    0    0    0    0  0.00000000000E+00  0.00000000000E+00  0.99999998245E-14  0.12500000000E+03  0.12500000000E+03 0.  0.
        -11    1    3    3    0    0 -0.32014405274E+02 -0.99801255346E+01  0.18259964429E+02  0.38183129153E+02  0.51100000000E-03 0. -1.
         23    2    1    0    0    0  0.14534233646E+02 -0.23288054565E+02 -0.11745913814E+02  0.95141267200E+02  0.90334471826E+02 0.  0.
         11    1    3    3    0    0  0.46548638920E+02 -0.13307929030E+02 -0.30005878243E+02  0.56958138047E+02  0.51100000000E-03 0.  1.
         22    1    1    0    0    0 -0.14534233646E+02  0.23288054565E+02  0.11745913814E+02  0.29858732800E+02  0.00000000000E+00 0.  1.
</event>
<event>
 5    1  0.8863861E-005  0.9118800E+02  0.7818608E-02  0.1130116E+00
         25   -1    0    0    0    0  0.00000000000E+00  0.00000000000E+00  0.99999998245E-14  0.12500000000E+03  0.12500000000E+03 0.  0.
        -11    1    3    3    0    0 -0.26771476262E+02 -0.10438009313E+02  0.10773567750E+02  0.30687680622E+02  0.51100000000E-03 0. -1.
         23    2    1    0    0    0  0.23035656936E+02 -0.11995974390E+02 -0.22525150786E+02  0.90620830289E+02  0.83846333088E+02 0.  0.
         11    1    3    3    0    0  0.49807133198E+02 -0.15579650769E+01 -0.33298718536E+02  0.59933149667E+02  0.51100000000E-03 0.  1.
         22    1    1    0    0    0 -0.23035656936E+02  0.11995974390E+02  0.22525150786E+02  0.34379169711E+02  0.00000000000E+00 0.  1.
</event>
<event>
 5    1  0.8863861E-005  0.9118800E+02  0.7818608E-02  0.1130116E+00
         25   -1    0    0    0    0  0.00000000000E+00  0.00000000000E+00  0.99999998245E-14  0.12500000000E+03  0.12500000000E+03 0.  0.
        -11    1    3    3    0    0 -0.17027351271E+02 -0.39600313615E+02  0.15162447093E+02  0.45694806399E+02  0.51100000000E-03 0.  1.
         23    2    1    0    0    0  0.17770814681E+02 -0.88238412806E+01  0.24902031264E+02  0.93160194874E+02  0.87550263955E+02 0.  0.
         11    1    3    3    0    0  0.34798165953E+02  0.30776472335E+02  0.97395841707E+01  0.47465388475E+02  0.51100000000E-03 0. -1.
         22    1    1    0    0    0 -0.17770814681E+02  0.88238412806E+01 -0.24902031264E+02  0.31839805126E+02  0.00000000000E+00 0. -1.
</event>
<event>
 5    1  0.8863861E-005  0.9118800E+02  0.7818608E-02  0.1130116E+00
         25   -1    0    0    0    0  0.00000000000E+00  0.00000000000E+00  0.99999998245E-14  0.12500000000E+03  0.12500000000E+03 0.  0.
        -11    1    3    3    0    0 -0.16392106553E+01 -0.52206415601E+02  0.11750629333E+02  0.53537595496E+02  0.51100000000E-03 0.  1.
         23    2    1    0    0    0 -0.11487650184E+02 -0.13201051420E+02  0.23732329856E+02  0.95513437879E+02  0.90848002012E+02 0.  0.
         11    1    3    3    0    0 -0.98484395287E+01  0.39005364181E+02  0.11981700524E+02  0.41975842383E+02  0.51100000000E-03 0. -1.
         22    1    1    0    0    0  0.11487650184E+02  0.13201051420E+02 -0.23732329856E+02  0.29486562121E+02  0.00000000000E+00 0.  1.
</event>
<event>
 5    1  0.8863861E-005  0.9118800E+02  0.7818608E-02  0.1130116E+00
         25   -1    0    0    0    0  0.00000000000E+00  0.00000000000E+00  0.99999998245E-14  0.12500000000E+03  0.12500000000E+03 0.  0.
        -11    1    3    3    0    0 -0.40290912303E+02  0.53235441843E+01  0.43252472420E+02  0.59350434772E+02  0.51100000000E-03 0.  1.
         23    2    1    0    0    0 -0.19309482242E+02  0.15475728695E+02  0.14667479778E+02  0.96233887191E+02  0.91833935981E+02 0.  0.
         11    1    3    3    0    0  0.20981430061E+02  0.10152184511E+02 -0.28584992642E+02  0.36883452419E+02  0.51100000000E-03 0. -1.
         22    1    1    0    0    0  0.19309482242E+02 -0.15475728695E+02 -0.14667479778E+02  0.28766112809E+02  0.00000000000E+00 0.  1.
</event>
<event>
 5    1  0.8863861E-005  0.9118800E+02  0.7818608E-02  0.1130116E+00
         25   -1    0    0    0    0  0.00000000000E+00  0.00000000000E+00  0.99999998245E-14  0.12500000000E+03  0.12500000000E+03 0.  0.
        -11    1    3    3    0    0  0.36296502611E+02 -0.15725406652E+02 -0.99076350210E+01  0.40778496148E+02  0.51100000000E-03 0.  1.
         23    2    1    0    0    0 -0.16561469378E+02 -0.17568255459E+02  0.12014712598E+02  0.98031885741E+02  0.94249516897E+02 0.  0.
         11    1    3    3    0    0 -0.52857971989E+02 -0.18428488075E+01  0.21922347619E+02  0.57253389593E+02  0.51100000000E-03 0. -1.
         22    1    1    0    0    0  0.16561469378E+02  0.17568255459E+02 -0.12014712598E+02  0.26968114259E+02  0.00000000000E+00 0. -1.
</event>
<event>
 5    1  0.8863861E-005  0.9118800E+02  0.7818608E-02  0.1130116E+00
         25   -1    0    0    0    0  0.00000000000E+00  0.00000000000E+00  0.99999998245E-14  0.12500000000E+03  0.12500000000E+03 0.  0.
        -11    1    3    3    0    0 -0.26214729554E+02 -0.18591300176E+02 -0.13246915928E+02  0.34761030906E+02  0.51100000000E-03 0.  1.
         23    2    1    0    0    0  0.66815656133E+01  0.28872765166E+02  0.41524252933E+01  0.95074717659E+02  0.90242337152E+02 0.  0.
         11    1    3    3    0    0  0.32896295167E+02  0.47464065342E+02  0.17399341221E+02  0.60313686753E+02  0.51100000000E-03 0. -1.
         22    1    1    0    0    0 -0.66815656133E+01 -0.28872765166E+02 -0.41524252933E+01  0.29925282341E+02  0.00000000000E+00 0. -1.
</event>
<event>
 5    1  0.8863861E-005  0.9118800E+02  0.7818608E-02  0.1130116E+00
         25   -1    0    0    0    0  0.00000000000E+00  0.00000000000E+00  0.99999998245E-14  0.12500000000E+03  0.12500000000E+03 0.  0.
        -11    1    3    3    0    0 -0.17741858498E+02  0.48928318845E+02  0.19454766958E+02  0.55562954256E+02  0.51100000000E-03 0.  1.
         23    2    1    0    0    0 -0.20540286497E+02  0.78260012397E+01  0.17667385012E+02  0.96799181609E+02  0.92600191156E+02 0.  0.
         11    1    3    3    0    0 -0.27984279996E+01 -0.41102317606E+02 -0.17873819466E+01  0.41236227353E+02  0.51100000000E-03 0. -1.
         22    1    1    0    0    0  0.20540286497E+02 -0.78260012397E+01 -0.17667385012E+02  0.28200818391E+02  0.00000000000E+00 0. -1.
</event>
<event>
 5    1  0.8863861E-005  0.9118800E+02  0.7818608E-02  0.1130116E+00
         25   -1    0    0    0    0  0.00000000000E+00  0.00000000000E+00  0.99999998245E-14  0.12500000000E+03  0.12500000000E+03 0.  0.
        -11    1    3    3    0    0 -0.14569634432E+02 -0.40333802381E+02  0.44191826782E+02  0.61579277493E+02  0.51100000000E-03 0. -1.
         23    2    1    0    0    0 -0.10656486239E+02 -0.12864711470E+02  0.23388148661E+02  0.96258618718E+02  0.91867593196E+02 0.  0.
         11    1    3    3    0    0  0.39131481926E+01  0.27469090911E+02 -0.20803678120E+02  0.34679341226E+02  0.51100000000E-03 0.  1.
         22    1    1    0    0    0  0.10656486239E+02  0.12864711470E+02 -0.23388148661E+02  0.28741381282E+02  0.00000000000E+00 0. -1.
</event>
<event>
 5    1  0.8863861E-005  0.9118800E+02  0.7818608E-02  0.1130116E+00
         25   -1    0    0    0    0  0.00000000000E+00  0.00000000000E+00  0.99999998245E-14  0.12500000000E+03  0.12500000000E+03 0.  0.
        -11    1    3    3    0    0 -0.79963443616E+01  0.27539201226E+02  0.31284726164E+02  0.42439170807E+02  0.51100000000E-03 0. -1.
         23    2    1    0    0    0 -0.12888414757E+02 -0.20801933503E+02 -0.54182679171E+00  0.10052296487E+03  0.97497390826E+02 0.  0.
         11    1    3    3    0    0 -0.48920703955E+01 -0.48341134729E+02 -0.31826552956E+02  0.58083794065E+02  0.51100000000E-03 0.  1.
         22    1    1    0    0    0  0.12888414757E+02  0.20801933503E+02  0.54182679171E+00  0.24477035128E+02  0.00000000000E+00 0.  1.
</event>
<event>
 5    1  0.8863861E-005  0.9118800E+02  0.7818608E-02  0.1130116E+00
         25   -1    0    0    0    0  0.00000000000E+00  0.00000000000E+00  0.99999998245E-14  0.12500000000E+03  0.12500000000E+03 0.  0.
        -11    1    3    3    0    0  0.38343194950E+02  0.30073542392E+02 -0.57760102082E+01  0.49071181412E+02  0.51100000000E-03 0. -1.
         23    2    1    0    0    0 -0.65647768912E+01  0.26695482802E+02  0.83492319670E+01  0.96269271292E+02  0.91882086518E+02 0.  0.
         11    1    3    3    0    0 -0.44907971841E+02 -0.33780595899E+01  0.14125242175E+02  0.47198089879E+02  0.51100000000E-03 0.  1.
         22    1    1    0    0    0  0.65647768912E+01 -0.26695482802E+02 -0.83492319670E+01  0.28730728708E+02  0.00000000000E+00 0. -1.
</event>
<event>
 5    1  0.8863861E-005  0.9118800E+02  0.7818608E-02  0.1130116E+00
         25   -1    0    0    0    0  0.00000000000E+00  0.00000000000E+00  0.99999998245E-14  0.12500000000E+03  0.12500000000E+03 0.  0.
        -11    1    3    3    0    0  0.26532025005E+02  0.90863984647E+01 -0.26049088374E+02  0.38276180495E+02  0.51100000000E-03 0. -1.
         23    2    1    0    0    0  0.64835155777E+01 -0.19553020676E+02  0.20131345091E+02  0.96196742425E+02  0.91783362360E+02 0.  0.
         11    1    3    3    0    0 -0.20048509427E+02 -0.28639419140E+02  0.46180433465E+02  0.57920561929E+02  0.51100000000E-03 0.  1.
         22    1    1    0    0    0 -0.64835155777E+01  0.19553020676E+02 -0.20131345091E+02  0.28803257575E+02  0.00000000000E+00 0.  1.
</event>
<event>
 5    1  0.8863861E-005  0.9118800E+02  0.7818608E-02  0.1130116E+00
         25   -1    0    0    0    0  0.00000000000E+00  0.00000000000E+00  0.99999998245E-14  0.12500000000E+03  0.12500000000E+03 0.  0.
        -11    1    3    3    0    0 -0.37362379086E+02  0.33994851909E+02 -0.18619732301E+02  0.53835785111E+02  0.51100000000E-03 0.  1.
         23    2    1    0    0    0  0.29104403393E+01  0.20730543739E+02 -0.19705311641E+02  0.96250644989E+02  0.91856743069E+02 0.  0.
         11    1    3    3    0    0  0.40272819426E+02 -0.13264308170E+02 -0.10855793399E+01  0.42414859878E+02  0.51100000000E-03 0. -1.
         22    1    1    0    0    0 -0.29104403393E+01 -0.20730543739E+02  0.19705311641E+02  0.28749355011E+02  0.00000000000E+00 0.  1.
</event>
<event>
 5    1  0.8863861E-005  0.9118800E+02  0.7818608E-02  0.1130116E+00
         25   -1    0    0    0    0  0.00000000000E+00  0.00000000000E+00  0.99999998245E-14  0.12500000000E+03  0.12500000000E+03 0.  0.
        -11    1    3    3    0    0  0.43426732485E+02 -0.20635815777E+02 -0.26344493701E+02  0.54824723763E+02  0.51100000000E-03 0.  1.
         23    2    1    0    0    0  0.24158175139E+02 -0.20017060445E+02  0.65478941440E+01  0.92950428199E+02  0.87250255299E+02 0.  0.
         11    1    3    3    0    0 -0.19268557346E+02  0.61875533256E+00  0.32892387845E+02  0.38125704436E+02  0.51100000000E-03 0. -1.
         22    1    1    0    0    0 -0.24158175139E+02  0.20017060445E+02 -0.65478941440E+01  0.32049571801E+02  0.00000000000E+00 0.  1.
</event>
<event>
 5    1  0.8863861E-005  0.9118800E+02  0.7818608E-02  0.1130116E+00
         25   -1    0    0    0    0  0.00000000000E+00  0.00000000000E+00  0.99999998245E-14  0.12500000000E+03  0.12500000000E+03 0.  0.
        -11    1    3    3    0    0 -0.96650292035E+01  0.41670472878E+02  0.10030579534E+02  0.43936927810E+02  0.51100000000E-03 0.  1.
         23    2    1    0    0    0 -0.29007637063E+02 -0.46551928987E+01 -0.19774683913E+01  0.95554725164E+02  0.90904792454E+02 0.  0.
         11    1    3    3    0    0 -0.19342607860E+02 -0.46325665776E+02 -0.12008047926E+02  0.51617797354E+02  0.51100000000E-03 0. -1.
         22    1    1    0    0    0  0.29007637063E+02  0.46551928987E+01  0.19774683913E+01  0.29445274836E+02  0.00000000000E+00 0. -1.
</event>
<event>
 5    1  0.8863861E-005  0.9118800E+02  0.7818608E-02  0.1130116E+00
         25   -1    0    0    0    0  0.00000000000E+00  0.00000000000E+00  0.99999998245E-14  0.12500000000E+03  0.12500000000E+03 0.  0.
        -11    1    3    3    0    0  0.21768172261E+02 -0.15785785310E+02 -0.25902602095E+02  0.37336163930E+02  0.51100000000E-03 0. -1.
         23    2    1    0    0    0 -0.14767357189E+02  0.23988428119E+02 -0.98914956079E+00  0.96813160184E+02  0.92619058763E+02 0.  0.
         11    1    3    3    0    0 -0.36535529450E+02  0.39774213429E+02  0.24913452534E+02  0.59476996255E+02  0.51100000000E-03 0.  1.
         22    1    1    0    0    0  0.14767357189E+02 -0.23988428119E+02  0.98914956079E+00  0.28186839816E+02  0.00000000000E+00 0.  1.
</event>
<event>
 5    1  0.8863861E-005  0.9118800E+02  0.7818608E-02  0.1130116E+00
         25   -1    0    0    0    0  0.00000000000E+00  0.00000000000E+00  0.99999998245E-14  0.12500000000E+03  0.12500000000E+03 0.  0.
        -11    1    3    3    0    0 -0.18947344122E+02 -0.15805840052E+02 -0.45768407467E+02  0.51995899370E+02  0.51100000000E-03 0. -1.
         23    2    1    0    0    0 -0.26370547681E+02  0.45153762046E+01 -0.55321993156E+01  0.97679684545E+02  0.93781240855E+02 0.  0.
         11    1    3    3    0    0 -0.74232035595E+01  0.20321216257E+02  0.40236208151E+02  0.45683785175E+02  0.51100000000E-03 0.  1.
         22    1    1    0    0    0  0.26370547681E+02 -0.45153762046E+01  0.55321993156E+01  0.27320315455E+02  0.00000000000E+00 0. -1.
</event>
<event>
 5    1  0.8863861E-005  0.9118800E+02  0.7818608E-02  0.1130116E+00
         25   -1    0    0    0    0  0.00000000000E+00  0.00000000000E+00  0.99999998245E-14  0.12500000000E+03  0.12500000000E+03 0.  0.
        -11    1    3    3    0    0 -0.42588686140E+02 -0.63799447661E+01  0.26497332793E+02  0.50562916527E+02  0.51100000000E-03 0. -1.
         23    2    1    0    0    0 -0.20386648661E+02 -0.14081848324E+02 -0.13373491236E+02  0.96843932027E+02  0.92660579572E+02 0.  0.
         11    1    3    3    0    0  0.22202037478E+02 -0.77019035582E+01 -0.39870824030E+02  0.46281015499E+02  0.51100000000E-03 0.  1.
         22    1    1    0    0    0  0.20386648661E+02  0.14081848324E+02  0.13373491236E+02  0.28156067973E+02  0.00000000000E+00 0.  1.
</event>
<event>
 5    1  0.8863861E-005  0.9118800E+02  0.7818608E-02  0.1130116E+00
         25   -1    0    0    0    0  0.00000000000E+00  0.00000000000E+00  0.99999998245E-14  0.12500000000E+03  0.12500000000E+03 0.  0.
        -11    1    3    3    0    0 -0.26040432398E+01 -0.27047623513E+02 -0.25683837113E+02  0.37390031667E+02  0.51100000000E-03 0. -1.
         23    2    1    0    0    0 -0.85811920217E+01 -0.35003924668E+01  0.27564882120E+02  0.95918866421E+02  0.91404138885E+02 0.  0.
         11    1    3    3    0    0 -0.59771487819E+01  0.23547231046E+02  0.53248719233E+02  0.58528834755E+02  0.51100000000E-03 0.  1.
         22    1    1    0    0    0  0.85811920217E+01  0.35003924668E+01 -0.27564882120E+02  0.29081133579E+02  0.00000000000E+00 0.  1.
</event>
<event>
 5    1  0.8863861E-005  0.9118800E+02  0.7818608E-02  0.1130116E+00
         25   -1    0    0    0    0  0.00000000000E+00  0.00000000000E+00  0.99999998245E-14  0.12500000000E+03  0.12500000000E+03 0.  0.
        -11    1    3    3    0    0 -0.45781571391E+02  0.52196155471E+01  0.15808570910E+02  0.48714552034E+02  0.51100000000E-03 0. -1.
         23    2    1    0    0    0 -0.79279155804E+01  0.26208331276E+02  0.18295385275E+02  0.92069017688E+02  0.85978220625E+02 0.  0.
         11    1    3    3    0    0  0.37853655810E+02  0.20988715729E+02  0.24868143649E+01  0.43354465653E+02  0.51100000000E-03 0.  1.
         22    1    1    0    0    0  0.79279155804E+01 -0.26208331276E+02 -0.18295385275E+02  0.32930982312E+02  0.00000000000E+00 0. -1.
</event>
<event>
 5    1  0.8863861E-005  0.9118800E+02  0.7818608E-02  0.1130116E+00
         25   -1    0    0    0    0  0.00000000000E+00  0.00000000000E+00  0.99999998245E-14  0.12500000000E+03  0.12500000000E+03 0.  0.
        -11    1    3    3    0    0 -0.21477591032E+02  0.13407867197E+02 -0.24420118441E+02  0.35176696893E+02  0.51100000000E-03 0.  1.
         23    2    1    0    0    0  0.22919647440E+02 -0.15578077096E+02  0.64724876624E+01  0.96541612461E+02  0.92251846134E+02 0.  0.
         11    1    3    3    0    0  0.44397238473E+02 -0.28985944292E+02  0.30892606104E+02  0.61364915568E+02  0.51100000000E-03 0. -1.
         22    1    1    0    0    0 -0.22919647440E+02  0.15578077096E+02 -0.64724876624E+01  0.28458387539E+02  0.00000000000E+00 0. -1.
</event>
<event>
 5    1  0.8863861E-005  0.9118800E+02  0.7818608E-02  0.1130116E+00
         25   -1    0    0    0    0  0.00000000000E+00  0.00000000000E+00  0.99999998245E-14  0.12500000000E+03  0.12500000000E+03 0.  0.
        -11    1    3    3    0    0 -0.19650372465E+02  0.62792602775E+01 -0.45170808883E+02  0.49658516118E+02  0.51100000000E-03 0.  1.
         23    2    1    0    0    0  0.12284087006E+02 -0.15687212916E+02 -0.23944096049E+02  0.93850245936E+02  0.88530003299E+02 0.  0.
         11    1    3    3    0    0  0.31934459471E+02 -0.21966473193E+02  0.21226712835E+02  0.44191729818E+02  0.51100000000E-03 0. -1.
         22    1    1    0    0    0 -0.12284087006E+02  0.15687212916E+02  0.23944096049E+02  0.31149754064E+02  0.00000000000E+00 0. -1.
</event>
<event>
 5    1  0.8863861E-005  0.9118800E+02  0.7818608E-02  0.1130116E+00
         25   -1    0    0    0    0  0.00000000000E+00  0.00000000000E+00  0.99999998245E-14  0.12500000000E+03  0.12500000000E+03 0.  0.
        -11    1    3    3    0    0  0.29766912312E+02  0.39871785318E+02  0.35621766571E+02  0.61194269233E+02  0.51100000000E-03 0. -1.
         23    2    1    0    0    0  0.21413853445E+02  0.13782090761E+02  0.15449821635E+02  0.95214162197E+02  0.90435283762E+02 0.  0.
         11    1    3    3    0    0 -0.83530588669E+01 -0.26089694557E+02 -0.20171944936E+02  0.34019892964E+02  0.51100000000E-03 0.  1.
         22    1    1    0    0    0 -0.21413853445E+02 -0.13782090761E+02 -0.15449821635E+02  0.29785837803E+02  0.00000000000E+00 0. -1.
</event>
<event>
 5    1  0.8863861E-005  0.9118800E+02  0.7818608E-02  0.1130116E+00
         25   -1    0    0    0    0  0.00000000000E+00  0.00000000000E+00  0.99999998245E-14  0.12500000000E+03  0.12500000000E+03 0.  0.
        -11    1    3    3    0    0  0.13136342718E+02 -0.21960474456E+02  0.20338750069E+02  0.32687775895E+02  0.51100000000E-03 0.  1.
         23    2    1    0    0    0 -0.19789544843E+02  0.25091519726E+02  0.19668260058E+01  0.92983147378E+02  0.87297118191E+02 0.  0.
         11    1    3    3    0    0 -0.32925887561E+02  0.47051994182E+02 -0.18371924063E+02  0.60295371483E+02  0.51100000000E-03 0. -1.
         22    1    1    0    0    0  0.19789544843E+02 -0.25091519726E+02 -0.19668260058E+01  0.32016852622E+02  0.00000000000E+00 0. -1.
</event>
<event>
 5    1  0.8863861E-005  0.9118800E+02  0.7818608E-02  0.1130116E+00
         25   -1    0    0    0    0  0.00000000000E+00  0.00000000000E+00  0.99999998245E-14  0.12500000000E+03  0.12500000000E+03 0.  0.
        -11    1    3    3    0    0 -0.26021850542E+02 -0.40117126577E+02  0.38747746278E+01  0.47974310095E+02  0.51100000000E-03 0. -1.
         23    2    1    0    0    0  0.98468975493E+01 -0.25236900380E+02 -0.17933639087E+02  0.92511879970E+02  0.86619685941E+02 0.  0.
         11    1    3    3    0    0  0.35868748092E+02  0.14880226197E+02 -0.21808413715E+02  0.44537569875E+02  0.51100000000E-03 0.  1.
         22    1    1    0    0    0 -0.98468975493E+01  0.25236900380E+02  0.17933639087E+02  0.32488120030E+02  0.00000000000E+00 0. -1.
</event>
<event>
 5    1  0.8863861E-005  0.9118800E+02  0.7818608E-02  0.1130116E+00
         25   -1    0    0    0    0  0.00000000000E+00  0.00000000000E+00  0.99999998245E-14  0.12500000000E+03  0.12500000000E+03 0.  0.
        -11    1    3    3    0    0  0.24014060586E+02  0.43404981098E+02 -0.12801648842E+02  0.51230359196E+02  0.51100000000E-03 0. -1.
         23    2    1    0    0    0  0.29174188291E+02  0.38571899239E+01  0.54169859414E+01  0.95077518264E+02  0.90246216352E+02 0.  0.
         11    1    3    3    0    0  0.51601277055E+01 -0.39547791175E+02  0.18218634783E+02  0.43847159068E+02  0.51100000000E-03 0.  1.
         22    1    1    0    0    0 -0.29174188291E+02 -0.38571899239E+01 -0.54169859414E+01  0.29922481736E+02  0.00000000000E+00 0. -1.
</event>
<event>
 5    1  0.8863861E-005  0.9118800E+02  0.7818608E-02  0.1130116E+00
         25   -1    0    0    0    0  0.00000000000E+00  0.00000000000E+00  0.99999998245E-14  0.12500000000E+03  0.12500000000E+03 0.  0.
        -11    1    3    3    0    0  0.10394231990E+02  0.28815967642E+01  0.34829132995E+02  0.36461104811E+02  0.51100000000E-03 0.  1.
         23    2    1    0    0    0 -0.10226955368E+02 -0.24442263026E+02 -0.13166206001E+02  0.95413452071E+02  0.90710324758E+02 0.  0.
         11    1    3    3    0    0 -0.20621187358E+02 -0.27323859790E+02 -0.47995338996E+02  0.58952347260E+02  0.51100000000E-03 0. -1.
         22    1    1    0    0    0  0.10226955368E+02  0.24442263026E+02  0.13166206001E+02  0.29586547929E+02  0.00000000000E+00 0. -1.
</event>
<event>
 5    1  0.8863861E-005  0.9118800E+02  0.7818608E-02  0.1130116E+00
         25   -1    0    0    0    0  0.00000000000E+00  0.00000000000E+00  0.99999998245E-14  0.12500000000E+03  0.12500000000E+03 0.  0.
        -11    1    3    3    0    0  0.34765784841E+02  0.29587896009E+02 -0.39276464111E+02  0.60222454443E+02  0.51100000000E-03 0.  1.
         23    2    1    0    0    0  0.23692487539E+02  0.15624832190E+02 -0.92305202062E+01  0.95155874112E+02  0.90354681827E+02 0.  0.
         11    1    3    3    0    0 -0.11073297303E+02 -0.13963063819E+02  0.30045943905E+02  0.34933419669E+02  0.51100000000E-03 0. -1.
         22    1    1    0    0    0 -0.23692487539E+02 -0.15624832190E+02  0.92305202062E+01  0.29844125888E+02  0.00000000000E+00 0.  1.
</event>
<event>
 5    1  0.8863861E-005  0.9118800E+02  0.7818608E-02  0.1130116E+00
         25   -1    0    0    0    0  0.00000000000E+00  0.00000000000E+00  0.99999998245E-14  0.12500000000E+03  0.12500000000E+03 0.  0.
        -11    1    3    3    0    0  0.59800810436E+01 -0.21702907115E+02 -0.28458004757E+02  0.36285473424E+02  0.51100000000E-03 0.  1.
         23    2    1    0    0    0  0.91521306664E+01  0.26596469846E+00  0.27250086037E+02  0.96252836279E+02  0.91859724960E+02 0.  0.
         11    1    3    3    0    0  0.31720496227E+01  0.21968871814E+02  0.55708090795E+02  0.59967362855E+02  0.51100000000E-03 0. -1.
         22    1    1    0    0    0 -0.91521306664E+01 -0.26596469846E+00 -0.27250086037E+02  0.28747163721E+02  0.00000000000E+00 0. -1.
</event>
<event>
 5    1  0.8863861E-005  0.9118800E+02  0.7818608E-02  0.1130116E+00
         25   -1    0    0    0    0  0.00000000000E+00  0.00000000000E+00  0.99999998245E-14  0.12500000000E+03  0.12500000000E+03 0.  0.
        -11    1    3    3    0    0  0.43244600906E+01 -0.39964070090E+02 -0.25286784158E+02  0.47489465217E+02  0.51100000000E-03 0. -1.
         23    2    1    0    0    0  0.33728071237E+01  0.91971930159E+01 -0.26575151049E+02  0.96676814435E+02  0.92434861436E+02 0.  0.
         11    1    3    3    0    0 -0.95165296692E+00  0.49161263106E+02 -0.12883668909E+01  0.49187349218E+02  0.51100000000E-03 0.  1.
         22    1    1    0    0    0 -0.33728071237E+01 -0.91971930159E+01  0.26575151049E+02  0.28323185565E+02  0.00000000000E+00 0. -1.
</event>
<event>
 5    1  0.8863861E-005  0.9118800E+02  0.7818608E-02  0.1130116E+00
         25   -1    0    0    0    0  0.00000000000E+00  0.00000000000E+00  0.99999998245E-14  0.12500000000E+03  0.12500000000E+03 0.  0.
        -11    1    3    3    0    0 -0.38055717705E+02  0.30768935212E+02 -0.27840003884E+02  0.56303026922E+02  0.51100000000E-03 0. -1.
         23    2    1    0    0    0 -0.10230356087E+02  0.32868382847E+02 -0.11161218648E+02  0.88812107296E+02  0.81105035751E+02 0.  0.
         11    1    3    3    0    0  0.27825361618E+02  0.20994476351E+01  0.16678785237E+02  0.32509080374E+02  0.51100000000E-03 0.  1.
         22    1    1    0    0    0  0.10230356087E+02 -0.32868382847E+02  0.11161218648E+02  0.36187892704E+02  0.00000000000E+00 0. -1.
</event>
<event>
 5    1  0.8863861E-005  0.9118800E+02  0.7818608E-02  0.1130116E+00
         25   -1    0    0    0    0  0.00000000000E+00  0.00000000000E+00  0.99999998245E-14  0.12500000000E+03  0.12500000000E+03 0.  0.
        -11    1    3    3    0    0 -0.16641201529E+02 -0.14631763540E+02  0.42258250777E+02  0.47715593380E+02  0.51100000000E-03 0.  1.
         23    2    1    0    0    0 -0.22206155789E+02  0.17258830685E+02  0.61494999855E+01  0.96211166373E+02  0.91803004272E+02 0.  0.
         11    1    3    3    0    0 -0.55649542599E+01  0.31890594225E+02 -0.36108750792E+02  0.48495572993E+02  0.51100000000E-03 0. -1.
         22    1    1    0    0    0  0.22206155789E+02 -0.17258830685E+02 -0.61494999855E+01  0.28788833627E+02  0.00000000000E+00 0.  1.
</event>
<event>
 5    1  0.8863861E-005  0.9118800E+02  0.7818608E-02  0.1130116E+00
         25   -1    0    0    0    0  0.00000000000E+00  0.00000000000E+00  0.99999998245E-14  0.12500000000E+03  0.12500000000E+03 0.  0.
        -11    1    3    3    0    0 -0.65539358920E+01 -0.35287921060E+02  0.75772630597E+01  0.36682507605E+02  0.51100000000E-03 0.  1.
         23    2    1    0    0    0  0.19758345241E+02  0.18894380679E+02  0.63762179500E+01  0.96927843274E+02  0.92773707582E+02 0.  0.
         11    1    3    3    0    0  0.26312281133E+02  0.54182301740E+02 -0.12010451097E+01  0.60245335669E+02  0.51100000000E-03 0. -1.
         22    1    1    0    0    0 -0.19758345241E+02 -0.18894380679E+02 -0.63762179500E+01  0.28072156726E+02  0.00000000000E+00 0. -1.
</event>
<event>
 5    1  0.8863861E-005  0.9118800E+02  0.7818608E-02  0.1130116E+00
         25   -1    0    0    0    0  0.00000000000E+00  0.00000000000E+00  0.99999998245E-14  0.12500000000E+03  0.12500000000E+03 0.  0.
        -11    1    3    3    0    0  0.26361465382E+02  0.24483987496E+02 -0.45262234979E+02  0.57819221859E+02  0.51100000000E-03 0.  1.
         23    2    1    0    0    0 -0.13583721515E+01  0.49686911052E+01 -0.29230235436E+02  0.95319371135E+02  0.90580587234E+02 0.  0.
         11    1    3    3    0    0 -0.27719837534E+02 -0.19515296391E+02  0.16031999543E+02  0.37500149276E+02  0.51100000000E-03 0. -1.
         22    1    1    0    0    0  0.13583721515E+01 -0.49686911052E+01  0.29230235436E+02  0.29680628865E+02  0.00000000000E+00 0.  1.
</event>
<event>
 5    1  0.8863861E-005  0.9118800E+02  0.7818608E-02  0.1130116E+00
         25   -1    0    0    0    0  0.00000000000E+00  0.00000000000E+00  0.99999998245E-14  0.12500000000E+03  0.12500000000E+03 0.  0.
        -11    1    3    3    0    0  0.21772511478E+01 -0.45645637594E+02 -0.28484590689E+02  0.53848273518E+02  0.51100000000E-03 0.  1.
         23    2    1    0    0    0 -0.19664789191E+02 -0.28239719542E+02 -0.52268926980E+01  0.90193303790E+02  0.83206525872E+02 0.  0.
         11    1    3    3    0    0 -0.21842040338E+02  0.17405918052E+02  0.23257697991E+02  0.36345030272E+02  0.51100000000E-03 0. -1.
         22    1    1    0    0    0  0.19664789191E+02  0.28239719542E+02  0.52268926980E+01  0.34806696210E+02  0.00000000000E+00 0.  1.
</event>
<event>
 5    1  0.8863861E-005  0.9118800E+02  0.7818608E-02  0.1130116E+00
         25   -1    0    0    0    0  0.00000000000E+00  0.00000000000E+00  0.99999998245E-14  0.12500000000E+03  0.12500000000E+03 0.  0.
        -11    1    3    3    0    0 -0.11091298092E+02 -0.17707950173E+02 -0.37243374013E+02  0.42704300730E+02  0.51100000000E-03 0.  1.
         23    2    1    0    0    0 -0.16693408868E+02  0.24950138413E+02 -0.11431785135E+02  0.92877344166E+02  0.87145487786E+02 0.  0.
         11    1    3    3    0    0 -0.56021107760E+01  0.42658088586E+02  0.25811588878E+02  0.50173043436E+02  0.51100000000E-03 0. -1.
         22    1    1    0    0    0  0.16693408868E+02 -0.24950138413E+02  0.11431785135E+02  0.32122655834E+02  0.00000000000E+00 0. -1.
</event>
<event>
 5    1  0.8863861E-005  0.9118800E+02  0.7818608E-02  0.1130116E+00
         25   -1    0    0    0    0  0.00000000000E+00  0.00000000000E+00  0.99999998245E-14  0.12500000000E+03  0.12500000000E+03 0.  0.
        -11    1    3    3    0    0  0.28084052093E+02 -0.27262862242E+02 -0.43913357277E+02  0.58824829683E+02  0.51100000000E-03 0. -1.
         23    2    1    0    0    0  0.14840160486E+02 -0.25920994965E+02 -0.13110948410E+02  0.92380599155E+02  0.86430028282E+02 0.  0.
         11    1    3    3    0    0 -0.13243891607E+02  0.13418672773E+01  0.30802408866E+02  0.33555769473E+02  0.51100000000E-03 0.  1.
         22    1    1    0    0    0 -0.14840160486E+02  0.25920994965E+02  0.13110948410E+02  0.32619400845E+02  0.00000000000E+00 0. -1.
</event>
<event>
 5    1  0.8863861E-005  0.9118800E+02  0.7818608E-02  0.1130116E+00
         25   -1    0    0    0    0  0.00000000000E+00  0.00000000000E+00  0.99999998245E-14  0.12500000000E+03  0.12500000000E+03 0.  0.
        -11    1    3    3    0    0  0.53037479948E+02  0.11201337551E+02 -0.20600722437E+01  0.54246549568E+02  0.51100000000E-03 0. -1.
         23    2    1    0    0    0  0.10339617074E+02  0.16231342031E+02 -0.16551872154E+02  0.99616371080E+02  0.96328047680E+02 0.  0.
         11    1    3    3    0    0 -0.42697862874E+02  0.50300044807E+01 -0.14491799910E+02  0.45369821511E+02  0.51100000000E-03 0.  1.
         22    1    1    0    0    0 -0.10339617074E+02 -0.16231342031E+02  0.16551872154E+02  0.25383628920E+02  0.00000000000E+00 0. -1.
</event>
<event>
 5    1  0.8863861E-005  0.9118800E+02  0.7818608E-02  0.1130116E+00
         25   -1    0    0    0    0  0.00000000000E+00  0.00000000000E+00  0.99999998245E-14  0.12500000000E+03  0.12500000000E+03 0.  0.
        -11    1    3    3    0    0  0.27071147259E+02  0.20696722417E+01  0.28744281577E+02  0.39539401624E+02  0.51100000000E-03 0.  1.
         23    2    1    0    0    0 -0.10281435706E+02 -0.23481063179E+02 -0.83354066241E+01  0.98045459533E+02  0.94267517647E+02 0.  0.
         11    1    3    3    0    0 -0.37352582965E+02 -0.25550735421E+02 -0.37079688201E+02  0.58506057909E+02  0.51100000000E-03 0. -1.
         22    1    1    0    0    0  0.10281435706E+02  0.23481063179E+02  0.83354066241E+01  0.26954540467E+02  0.00000000000E+00 0. -1.
</event>
<event>
 5    1  0.8863861E-005  0.9118800E+02  0.7818608E-02  0.1130116E+00
         25   -1    0    0    0    0  0.00000000000E+00  0.00000000000E+00  0.99999998245E-14  0.12500000000E+03  0.12500000000E+03 0.  0.
        -11    1    3    3    0    0  0.42376812799E+02 -0.16973834954E+02  0.38797110462E+02  0.59909274045E+02  0.51100000000E-03 0. -1.
         23    2    1    0    0    0  0.25404176375E+02 -0.13068074440E+02  0.79288358902E+01  0.95351843473E+02  0.90625387549E+02 0.  0.
         11    1    3    3    0    0 -0.16972636424E+02  0.39057605139E+01 -0.30868274572E+02  0.35442569429E+02  0.51100000000E-03 0.  1.
         22    1    1    0    0    0 -0.25404176375E+02  0.13068074440E+02 -0.79288358902E+01  0.29648156527E+02  0.00000000000E+00 0. -1.
</event>
<event>
 5    1  0.8863861E-005  0.9118800E+02  0.7818608E-02  0.1130116E+00
         25   -1    0    0    0    0  0.00000000000E+00  0.00000000000E+00  0.99999998245E-14  0.12500000000E+03  0.12500000000E+03 0.  0.
        -11    1    3    3    0    0  0.22304896933E+02 -0.43133820801E+02  0.91052955127E+01  0.49405883564E+02  0.51100000000E-03 0.  1.
         23    2    1    0    0    0  0.99608257917E+01  0.33781799779E+01  0.23181003559E+02  0.99544370438E+02  0.96234570760E+02 0.  0.
         11    1    3    3    0    0 -0.12344071142E+02  0.46512000778E+02  0.14075708046E+02  0.50138486874E+02  0.51100000000E-03 0. -1.
         22    1    1    0    0    0 -0.99608257917E+01 -0.33781799779E+01 -0.23181003559E+02  0.25455629562E+02  0.00000000000E+00 0. -1.
</event>
<event>
 5    1  0.8863861E-005  0.9118800E+02  0.7818608E-02  0.1130116E+00
         25   -1    0    0    0    0  0.00000000000E+00  0.00000000000E+00  0.99999998245E-14  0.12500000000E+03  0.12500000000E+03 0.  0.
        -11    1    3    3    0    0 -0.15232150531E+02  0.27086319335E+02 -0.22310320861E+02  0.38254901936E+02  0.51100000000E-03 0. -1.
         23    2    1    0    0    0  0.32628042873E+01 -0.26639059274E+02 -0.97450716520E+01  0.96447385543E+02  0.92124081465E+02 0.  0.
         11    1    3    3    0    0  0.18494954818E+02 -0.53725378609E+02  0.12565249209E+02  0.58192483607E+02  0.51100000000E-03 0.  1.
         22    1    1    0    0    0 -0.32628042873E+01  0.26639059274E+02  0.97450716520E+01  0.28552614457E+02  0.00000000000E+00 0.  1.
</event>
<event>
 5    1  0.8863861E-005  0.9118800E+02  0.7818608E-02  0.1130116E+00
         25   -1    0    0    0    0  0.00000000000E+00  0.00000000000E+00  0.99999998245E-14  0.12500000000E+03  0.12500000000E+03 0.  0.
        -11    1    3    3    0    0 -0.27535029103E+02 -0.30182465105E+02 -0.23953714229E+02  0.47359681726E+02  0.51100000000E-03 0. -1.
         23    2    1    0    0    0  0.19725973385E+02 -0.54303346175E+01 -0.54657376752E+01  0.10382272802E+03  0.10163996264E+03 0.  0.
         11    1    3    3    0    0  0.47261002488E+02  0.24752130487E+02  0.18487976554E+02  0.56463046298E+02  0.51100000000E-03 0.  1.
         22    1    1    0    0    0 -0.19725973385E+02  0.54303346175E+01  0.54657376752E+01  0.21177271977E+02  0.00000000000E+00 0. -1.
</event>
<event>
 5    1  0.8863861E-005  0.9118800E+02  0.7818608E-02  0.1130116E+00
         25   -1    0    0    0    0  0.00000000000E+00  0.00000000000E+00  0.99999998245E-14  0.12500000000E+03  0.12500000000E+03 0.  0.
        -11    1    3    3    0    0  0.35525236014E+02  0.76669895588E+01 -0.15057231028E+02  0.39338852668E+02  0.51100000000E-03 0.  1.
         23    2    1    0    0    0 -0.21694524453E+01  0.10662248617E+02  0.26996637414E+02  0.95893153707E+02  0.91368968620E+02 0.  0.
         11    1    3    3    0    0 -0.37694688459E+02  0.29952590580E+01  0.42053868442E+02  0.56554301039E+02  0.51100000000E-03 0. -1.
         22    1    1    0    0    0  0.21694524453E+01 -0.10662248617E+02 -0.26996637414E+02  0.29106846293E+02  0.00000000000E+00 0. -1.
</event>
<event>
 5    1  0.8863861E-005  0.9118800E+02  0.7818608E-02  0.1130116E+00
         25   -1    0    0    0    0  0.00000000000E+00  0.00000000000E+00  0.99999998245E-14  0.12500000000E+03  0.12500000000E+03 0.  0.
        -11    1    3    3    0    0  0.39136401169E+02 -0.13293337047E+02 -0.83460911906E+01  0.42166668646E+02  0.51100000000E-03 0.  1.
         23    2    1    0    0    0 -0.83816447797E+01 -0.20378013440E+02  0.17628096161E+02  0.96781828988E+02  0.92576764078E+02 0.  0.
         11    1    3    3    0    0 -0.47518045949E+02 -0.70846763933E+01  0.25974187352E+02  0.54615160342E+02  0.51100000000E-03 0. -1.
         22    1    1    0    0    0  0.83816447797E+01  0.20378013440E+02 -0.17628096161E+02  0.28218171012E+02  0.00000000000E+00 0.  1.
</event>
<event>
 5    1  0.8863861E-005  0.9118800E+02  0.7818608E-02  0.1130116E+00
         25   -1    0    0    0    0  0.00000000000E+00  0.00000000000E+00  0.99999998245E-14  0.12500000000E+03  0.12500000000E+03 0.  0.
        -11    1    3    3    0    0 -0.12613298517E+02  0.23989817122E+02  0.26985564016E+02  0.38246925243E+02  0.51100000000E-03 0. -1.
         23    2    1    0    0    0 -0.17567829375E+02 -0.23977772276E+02 -0.31455974562E+01  0.95109249330E+02  0.90290156343E+02 0.  0.
         11    1    3    3    0    0 -0.49545308581E+01 -0.47967589398E+02 -0.30131161472E+02  0.56862324087E+02  0.51100000000E-03 0.  1.
         22    1    1    0    0    0  0.17567829375E+02  0.23977772276E+02  0.31455974562E+01  0.29890750670E+02  0.00000000000E+00 0.  1.
</event>
<event>
 5    1  0.8863861E-005  0.9118800E+02  0.7818608E-02  0.1130116E+00
         25   -1    0    0    0    0  0.00000000000E+00  0.00000000000E+00  0.99999998245E-14  0.12500000000E+03  0.12500000000E+03 0.  0.
        -11    1    3    3    0    0  0.35710213147E+02 -0.10332033385E+02  0.12924092525E+01  0.37197319242E+02  0.51100000000E-03 0.  1.
         23    2    1    0    0    0 -0.14234906522E+02  0.75163422701E+00  0.27011120909E+02  0.94458255281E+02  0.89384360043E+02 0.  0.
         11    1    3    3    0    0 -0.49945119669E+02  0.11083667612E+02  0.25718711657E+02  0.57260936039E+02  0.51100000000E-03 0. -1.
         22    1    1    0    0    0  0.14234906522E+02 -0.75163422701E+00 -0.27011120909E+02  0.30541744719E+02  0.00000000000E+00 0. -1.
</event>
<event>
 4    1  0.8863861E-005  0.9118800E+02  0.7818608E-02  0.1130116E+00
         25   -1    0    0    0    0  0.00000000000E+00  0.00000000000E+00  0.99999998245E-14  0.12500000000E+03  0.12500000000E+03 0.  0.
        -11    1    1    0    0    0 -0.62860151610E+01  0.14270568086E+02  0.40986719820E+01  0.16123343709E+02  0.51100000000E-03 0.  1.
         11    1    1    0    0    0 -0.64378972551E+00 -0.45305760420E+02  0.35878001007E+02  0.57794959546E+02  0.51100000000E-03 0. -1.
         22    1    1    0    0    0  0.69298048865E+01  0.31035192335E+02 -0.39976672989E+02  0.51081696744E+02  0.00000000000E+00 0. -1.
</event>
<event>
 5    1  0.8863861E-005  0.9118800E+02  0.7818608E-02  0.1130116E+00
         25   -1    0    0    0    0  0.00000000000E+00  0.00000000000E+00  0.99999998245E-14  0.12500000000E+03  0.12500000000E+03 0.  0.
        -11    1    3    3    0    0 -0.19183351050E+02 -0.12646386782E+02  0.43796517696E+02  0.49457729615E+02  0.51100000000E-03 0. -1.
         23    2    1    0    0    0  0.19302271250E+02 -0.12429978924E+02  0.14236296825E+02  0.97986036967E+02  0.94188689564E+02 0.  0.
         11    1    3    3    0    0  0.38485622300E+02  0.21640785833E+00 -0.29560220871E+02  0.48528307352E+02  0.51100000000E-03 0.  1.
         22    1    1    0    0    0 -0.19302271250E+02  0.12429978924E+02 -0.14236296825E+02  0.27013963033E+02  0.00000000000E+00 0. -1.
</event>
<event>
 5    1  0.8863861E-005  0.9118800E+02  0.7818608E-02  0.1130116E+00
         25   -1    0    0    0    0  0.00000000000E+00  0.00000000000E+00  0.99999998245E-14  0.12500000000E+03  0.12500000000E+03 0.  0.
        -11    1    3    3    0    0 -0.31918648183E+02 -0.27578096974E+02  0.57315975627E+01  0.42569974693E+02  0.51100000000E-03 0.  1.
         23    2    1    0    0    0 -0.24057562456E+02  0.21374273629E+02 -0.20369804616E+01  0.92754454976E+02  0.86969038997E+02 0.  0.
         11    1    3    3    0    0  0.78610857269E+01  0.48952370603E+02 -0.77685780243E+01  0.50184480283E+02  0.51100000000E-03 0. -1.
         22    1    1    0    0    0  0.24057562456E+02 -0.21374273629E+02  0.20369804616E+01  0.32245545024E+02  0.00000000000E+00 0. -1.
</event>
<event>
 5    1  0.8863861E-005  0.9118800E+02  0.7818608E-02  0.1130116E+00
         25   -1    0    0    0    0  0.00000000000E+00  0.00000000000E+00  0.99999998245E-14  0.12500000000E+03  0.12500000000E+03 0.  0.
        -11    1    3    3    0    0  0.12235552647E+02  0.48625651545E+02  0.41778005882E+01  0.50315174200E+02  0.51100000000E-03 0. -1.
         23    2    1    0    0    0 -0.72645056129E+01  0.33436745877E+02 -0.20392696588E+02  0.85167210859E+02  0.75278168911E+02 0.  0.
         11    1    3    3    0    0 -0.19500058260E+02 -0.15188905668E+02 -0.24570497176E+02  0.34852036659E+02  0.51100000000E-03 0.  1.
         22    1    1    0    0    0  0.72645056129E+01 -0.33436745877E+02  0.20392696588E+02  0.39832789141E+02  0.00000000000E+00 0. -1.
</event>
<event>
 5    1  0.8863861E-005  0.9118800E+02  0.7818608E-02  0.1130116E+00
         25   -1    0    0    0    0  0.00000000000E+00  0.00000000000E+00  0.99999998245E-14  0.12500000000E+03  0.12500000000E+03 0.  0.
        -11    1    3    3    0    0  0.49567098662E+02 -0.81360743479E+01  0.12974435182E+02  0.51878983646E+02  0.51100000000E-03 0.  1.
         23    2    1    0    0    0  0.17994111059E+02  0.11706801176E+02 -0.15267661987E+02  0.98657283186E+02  0.95075342737E+02 0.  0.
         11    1    3    3    0    0 -0.31572987603E+02  0.19842875524E+02 -0.28242097168E+02  0.46778299541E+02  0.51100000000E-03 0. -1.
         22    1    1    0    0    0 -0.17994111059E+02 -0.11706801176E+02  0.15267661987E+02  0.26342716814E+02  0.00000000000E+00 0.  1.
</event>
<event>
 5    1  0.8863861E-005  0.9118800E+02  0.7818608E-02  0.1130116E+00
         25   -1    0    0    0    0  0.00000000000E+00  0.00000000000E+00  0.99999998245E-14  0.12500000000E+03  0.12500000000E+03 0.  0.
        -11    1    3    3    0    0 -0.19751676781E+02  0.26152185506E+02 -0.42997438703E+02  0.54063345048E+02  0.51100000000E-03 0.  1.
         23    2    1    0    0    0  0.16553412409E+01 -0.21445819517E+01 -0.34296677378E+02  0.90596490506E+02  0.83810038936E+02 0.  0.
         11    1    3    3    0    0  0.21407018022E+02 -0.28296767458E+02  0.87007613256E+01  0.36533145458E+02  0.51100000000E-03 0. -1.
         22    1    1    0    0    0 -0.16553412409E+01  0.21445819517E+01  0.34296677378E+02  0.34403509494E+02  0.00000000000E+00 0.  1.
</event>
<event>
 5    1  0.8863861E-005  0.9118800E+02  0.7818608E-02  0.1130116E+00
         25   -1    0    0    0    0  0.00000000000E+00  0.00000000000E+00  0.99999998245E-14  0.12500000000E+03  0.12500000000E+03 0.  0.
        -11    1    3    3    0    0  0.46364244540E+02  0.13868239531E+02 -0.35187512897E+02  0.59834206802E+02  0.51100000000E-03 0.  1.
         23    2    1    0    0    0  0.27707981130E+02  0.14984369752E+01 -0.60117102489E+01  0.96607779379E+02  0.92341457887E+02 0.  0.
         11    1    3    3    0    0 -0.18656263410E+02 -0.12369802555E+02  0.29175802648E+02  0.36773572577E+02  0.51100000000E-03 0. -1.
         22    1    1    0    0    0 -0.27707981130E+02 -0.14984369752E+01  0.60117102489E+01  0.28392220621E+02  0.00000000000E+00 0.  1.
</event>
<event>
 5    1  0.8863861E-005  0.9118800E+02  0.7818608E-02  0.1130116E+00
         25   -1    0    0    0    0  0.00000000000E+00  0.00000000000E+00  0.99999998245E-14  0.12500000000E+03  0.12500000000E+03 0.  0.
        -11    1    3    3    0    0  0.37547415968E+02 -0.12624264264E+02  0.30558310712E+02  0.50029899539E+02  0.51100000000E-03 0. -1.
         23    2    1    0    0    0  0.24327521948E+02  0.16259320096E+02 -0.21953538412E+01  0.95656970289E+02  0.91045277595E+02 0.  0.
         11    1    3    3    0    0 -0.13219894020E+02  0.28883584360E+02 -0.32753664553E+02  0.45627070750E+02  0.51100000000E-03 0.  1.
         22    1    1    0    0    0 -0.24327521948E+02 -0.16259320096E+02  0.21953538412E+01  0.29343029711E+02  0.00000000000E+00 0. -1.
</event>
<event>
 5    1  0.8863861E-005  0.9118800E+02  0.7818608E-02  0.1130116E+00
         25   -1    0    0    0    0  0.00000000000E+00  0.00000000000E+00  0.99999998245E-14  0.12500000000E+03  0.12500000000E+03 0.  0.
        -11    1    3    3    0    0 -0.19797339313E+02  0.52345340180E+02 -0.12391503087E+02  0.57319443746E+02  0.51100000000E-03 0.  1.
         23    2    1    0    0    0  0.42920254358E+01  0.25110887667E+02 -0.17580837766E+02  0.94047390767E+02  0.88807925838E+02 0.  0.
         11    1    3    3    0    0  0.24089364749E+02 -0.27234452512E+02 -0.51893346798E+01  0.36727947020E+02  0.51100000000E-03 0. -1.
         22    1    1    0    0    0 -0.42920254358E+01 -0.25110887667E+02  0.17580837766E+02  0.30952609233E+02  0.00000000000E+00 0.  1.
</event>
<event>
 5    1  0.8863861E-005  0.9118800E+02  0.7818608E-02  0.1130116E+00
         25   -1    0    0    0    0  0.00000000000E+00  0.00000000000E+00  0.99999998245E-14  0.12500000000E+03  0.12500000000E+03 0.  0.
        -11    1    3    3    0    0 -0.17842267392E+01  0.43023458582E+02  0.16521888171E+02  0.46121299228E+02  0.51100000000E-03 0.  1.
         23    2    1    0    0    0  0.28672606692E+02  0.85825576873E+01 -0.27397697721E+00  0.95069184202E+02  0.90234672108E+02 0.  0.
         11    1    3    3    0    0  0.30456833431E+02 -0.34440900895E+02 -0.16795865148E+02  0.48947884974E+02  0.51100000000E-03 0. -1.
         22    1    1    0    0    0 -0.28672606692E+02 -0.85825576873E+01  0.27397697721E+00  0.29930815798E+02  0.00000000000E+00 0. -1.
</event>
<event>
 5    1  0.8863861E-005  0.9118800E+02  0.7818608E-02  0.1130116E+00
         25   -1    0    0    0    0  0.00000000000E+00  0.00000000000E+00  0.99999998245E-14  0.12500000000E+03  0.12500000000E+03 0.  0.
        -11    1    3    3    0    0  0.34479396730E+02 -0.34422324160E+02 -0.15264600003E+02  0.51056177030E+02  0.51100000000E-03 0.  1.
         23    2    1    0    0    0  0.83654999667E+01 -0.96593288657E+00 -0.28315515529E+02  0.95458790889E+02  0.90772780734E+02 0.  0.
         11    1    3    3    0    0 -0.26113896763E+02  0.33456391273E+02 -0.13050915527E+02  0.44402613859E+02  0.51100000000E-03 0. -1.
         22    1    1    0    0    0 -0.83654999667E+01  0.96593288657E+00  0.28315515529E+02  0.29541209111E+02  0.00000000000E+00 0.  1.
</event>
<event>
 5    1  0.8863861E-005  0.9118800E+02  0.7818608E-02  0.1130116E+00
         25   -1    0    0    0    0  0.00000000000E+00  0.00000000000E+00  0.99999998245E-14  0.12500000000E+03  0.12500000000E+03 0.  0.
        -11    1    3    3    0    0  0.17850043488E+01 -0.18064621922E+02  0.52436317004E+02  0.55489495825E+02  0.51100000000E-03 0. -1.
         23    2    1    0    0    0  0.15956867023E+02  0.63599573810E+01  0.23159041315E+02  0.96165786681E+02  0.91741193966E+02 0.  0.
         11    1    3    3    0    0  0.14171862674E+02  0.24424579304E+02 -0.29277275689E+02  0.40676290856E+02  0.51100000000E-03 0.  1.
         22    1    1    0    0    0 -0.15956867023E+02 -0.63599573810E+01 -0.23159041315E+02  0.28834213319E+02  0.00000000000E+00 0.  1.
</event>
<event>
 5    1  0.8863861E-005  0.9118800E+02  0.7818608E-02  0.1130116E+00
         25   -1    0    0    0    0  0.00000000000E+00  0.00000000000E+00  0.99999998245E-14  0.12500000000E+03  0.12500000000E+03 0.  0.
        -11    1    3    3    0    0 -0.23168329791E+02  0.35656997183E+02 -0.25609848159E+02  0.49639271513E+02  0.51100000000E-03 0. -1.
         23    2    1    0    0    0 -0.24537094753E+02  0.30694837422E+02  0.90460819791E+01  0.84675396314E+02  0.74457028402E+02 0.  0.
         11    1    3    3    0    0 -0.13687649627E+01 -0.49621597608E+01  0.34655930138E+02  0.35036124801E+02  0.51100000000E-03 0.  1.
         22    1    1    0    0    0  0.24537094753E+02 -0.30694837422E+02 -0.90460819791E+01  0.40324603686E+02  0.00000000000E+00 0. -1.
</event>
<event>
 5    1  0.8863861E-005  0.9118800E+02  0.7818608E-02  0.1130116E+00
         25   -1    0    0    0    0  0.00000000000E+00  0.00000000000E+00  0.99999998245E-14  0.12500000000E+03  0.12500000000E+03 0.  0.
        -11    1    3    3    0    0 -0.23163414376E+02  0.21783489272E+02  0.21253042116E+02  0.38245992860E+02  0.51100000000E-03 0. -1.
         23    2    1    0    0    0  0.23269284306E+02  0.15429705160E+02 -0.10842780238E+02  0.95048351018E+02  0.90205807765E+02 0.  0.
         11    1    3    3    0    0  0.46432698682E+02 -0.63537841123E+01 -0.32095822354E+02  0.56802358158E+02  0.51100000000E-03 0.  1.
         22    1    1    0    0    0 -0.23269284306E+02 -0.15429705160E+02  0.10842780238E+02  0.29951648982E+02  0.00000000000E+00 0.  1.
</event>
<event>
 5    1  0.8863861E-005  0.9118800E+02  0.7818608E-02  0.1130116E+00
         25   -1    0    0    0    0  0.00000000000E+00  0.00000000000E+00  0.99999998245E-14  0.12500000000E+03  0.12500000000E+03 0.  0.
        -11    1    3    3    0    0  0.18172864558E+02 -0.35658403946E+02  0.26163179559E+01  0.40107603993E+02  0.51100000000E-03 0. -1.
         23    2    1    0    0    0 -0.13639593184E+02  0.51439930455E+01  0.24665839504E+02  0.96348598549E+02  0.91989943131E+02 0.  0.
         11    1    3    3    0    0 -0.31812457742E+02  0.40802396991E+02  0.22049521548E+02  0.56240994555E+02  0.51100000000E-03 0.  1.
         22    1    1    0    0    0  0.13639593184E+02 -0.51439930455E+01 -0.24665839504E+02  0.28651401451E+02  0.00000000000E+00 0.  1.
</event>
<event>
 5    1  0.8863861E-005  0.9118800E+02  0.7818608E-02  0.1130116E+00
         25   -1    0    0    0    0  0.00000000000E+00  0.00000000000E+00  0.99999998245E-14  0.12500000000E+03  0.12500000000E+03 0.  0.
        -11    1    3    3    0    0 -0.57295019523E+02 -0.17622790291E+02 -0.12955913067E+02  0.61328114951E+02  0.51100000000E-03 0. -1.
         23    2    1    0    0    0 -0.16273281723E+02 -0.13369837202E+02 -0.33437826853E+01  0.10367505856E+03  0.10145819158E+03 0.  0.
         11    1    3    3    0    0  0.41021737800E+02  0.42529530892E+01  0.96121303818E+01  0.42346943607E+02  0.51100000000E-03 0.  1.
         22    1    1    0    0    0  0.16273281723E+02  0.13369837202E+02  0.33437826853E+01  0.21324941442E+02  0.00000000000E+00 0. -1.
</event>
<event>
 5    1  0.8863861E-005  0.9118800E+02  0.7818608E-02  0.1130116E+00
         25   -1    0    0    0    0  0.00000000000E+00  0.00000000000E+00  0.99999998245E-14  0.12500000000E+03  0.12500000000E+03 0.  0.
        -11    1    3    3    0    0 -0.24831753214E+02  0.38019280323E+02  0.41640282998E+02  0.61611645103E+02  0.51100000000E-03 0.  1.
         23    2    1    0    0    0 -0.70886036708E+01  0.22542136888E+02  0.15777722742E+02  0.96586398110E+02  0.92312510135E+02 0.  0.
         11    1    3    3    0    0  0.17743149543E+02 -0.15477143435E+02 -0.25862560256E+02  0.34974753006E+02  0.51100000000E-03 0. -1.
         22    1    1    0    0    0  0.70886036708E+01 -0.22542136888E+02 -0.15777722742E+02  0.28413601890E+02  0.00000000000E+00 0.  1.
</event>
<event>
 5    1  0.8863861E-005  0.9118800E+02  0.7818608E-02  0.1130116E+00
         25   -1    0    0    0    0  0.00000000000E+00  0.00000000000E+00  0.99999998245E-14  0.12500000000E+03  0.12500000000E+03 0.  0.
        -11    1    3    3    0    0  0.23272034574E+02 -0.45390691413E+02  0.30804399605E+02  0.59588702750E+02  0.51100000000E-03 0.  1.
         23    2    1    0    0    0  0.22278834998E+02 -0.14901089342E+02  0.10607102298E+02  0.96174671353E+02  0.91753298786E+02 0.  0.
         11    1    3    3    0    0 -0.99319957559E+00  0.30489602070E+02 -0.20197297308E+02  0.36585968603E+02  0.51100000000E-03 0. -1.
         22    1    1    0    0    0 -0.22278834998E+02  0.14901089342E+02 -0.10607102298E+02  0.28825328647E+02  0.00000000000E+00 0.  1.
</event>
<event>
 5    1  0.8863861E-005  0.9118800E+02  0.7818608E-02  0.1130116E+00
         25   -1    0    0    0    0  0.00000000000E+00  0.00000000000E+00  0.99999998245E-14  0.12500000000E+03  0.12500000000E+03 0.  0.
        -11    1    3    3    0    0 -0.21318398507E+02 -0.53166046483E+02 -0.18212902430E+02  0.60106675409E+02  0.51100000000E-03 0.  1.
         23    2    1    0    0    0 -0.32100871549E+01 -0.21917225868E+02 -0.18368947997E+02  0.96223487011E+02  0.91819778657E+02 0.  0.
         11    1    3    3    0    0  0.18108311352E+02  0.31248820614E+02 -0.15604556653E+00  0.36116811602E+02  0.51100000000E-03 0. -1.
         22    1    1    0    0    0  0.32100871549E+01  0.21917225868E+02  0.18368947997E+02  0.28776512989E+02  0.00000000000E+00 0.  1.
</event>
<event>
 5    1  0.8863861E-005  0.9118800E+02  0.7818608E-02  0.1130116E+00
         25   -1    0    0    0    0  0.00000000000E+00  0.00000000000E+00  0.99999998245E-14  0.12500000000E+03  0.12500000000E+03 0.  0.
        -11    1    3    3    0    0  0.27569130121E+00 -0.46734187653E+02  0.37837963148E+02  0.60132119177E+02  0.51100000000E-03 0. -1.
         23    2    1    0    0    0 -0.11683863969E+02 -0.24545090911E+02  0.23067364199E+02  0.89347826768E+02  0.81926532284E+02 0.  0.
         11    1    3    3    0    0 -0.11959555270E+02  0.22189096742E+02 -0.14770598948E+02  0.29215707591E+02  0.51100000000E-03 0.  1.
         22    1    1    0    0    0  0.11683863969E+02  0.24545090911E+02 -0.23067364199E+02  0.35652173232E+02  0.00000000000E+00 0. -1.
</event>
<event>
 5    1  0.8863861E-005  0.9118800E+02  0.7818608E-02  0.1130116E+00
         25   -1    0    0    0    0  0.00000000000E+00  0.00000000000E+00  0.99999998245E-14  0.12500000000E+03  0.12500000000E+03 0.  0.
        -11    1    3    3    0    0  0.12411724828E+01  0.21361529266E+01 -0.49771168564E+02  0.49832448053E+02  0.51100000000E-03 0.  1.
         23    2    1    0    0    0  0.24937722956E+02 -0.10756897119E+02 -0.14576794676E+02  0.94176570520E+02  0.88989564726E+02 0.  0.
         11    1    3    3    0    0  0.23696550473E+02 -0.12893050046E+02  0.35194373888E+02  0.44344122467E+02  0.51100000000E-03 0. -1.
         22    1    1    0    0    0 -0.24937722956E+02  0.10756897119E+02  0.14576794676E+02  0.30823429480E+02  0.00000000000E+00 0. -1.
</event>
<event>
 5    1  0.8863861E-005  0.9118800E+02  0.7818608E-02  0.1130116E+00
         25   -1    0    0    0    0  0.00000000000E+00  0.00000000000E+00  0.99999998245E-14  0.12500000000E+03  0.12500000000E+03 0.  0.
        -11    1    3    3    0    0 -0.11674686611E+02  0.77729088265E+01  0.52625355137E+02  0.54462321128E+02  0.51100000000E-03 0.  1.
         23    2    1    0    0    0  0.29692409365E+01  0.20490341357E+02  0.85813021315E+01  0.10258774382E+03  0.10010961970E+03 0.  0.
         11    1    3    3    0    0  0.14643927548E+02  0.12717432530E+02 -0.44044053006E+02  0.48125422695E+02  0.51100000000E-03 0. -1.
         22    1    1    0    0    0 -0.29692409365E+01 -0.20490341357E+02 -0.85813021315E+01  0.22412256177E+02  0.00000000000E+00 0. -1.
</event>
<event>
 5    1  0.8863861E-005  0.9118800E+02  0.7818608E-02  0.1130116E+00
         25   -1    0    0    0    0  0.00000000000E+00  0.00000000000E+00  0.99999998245E-14  0.12500000000E+03  0.12500000000E+03 0.  0.
        -11    1    3    3    0    0  0.83814604210E+01 -0.18702255122E+02  0.33444876575E+02  0.39224775268E+02  0.51100000000E-03 0.  1.
         23    2    1    0    0    0  0.23716348475E+02  0.15962098743E+02 -0.79252233091E+01  0.95334145120E+02  0.90600972842E+02 0.  0.
         11    1    3    3    0    0  0.15334888054E+02  0.34664353865E+02 -0.41370099884E+02  0.56109369852E+02  0.51100000000E-03 0. -1.
         22    1    1    0    0    0 -0.23716348475E+02 -0.15962098743E+02  0.79252233091E+01  0.29665854880E+02  0.00000000000E+00 0. -1.
</event>
<event>
 5    1  0.8863861E-005  0.9118800E+02  0.7818608E-02  0.1130116E+00
         25   -1    0    0    0    0  0.00000000000E+00  0.00000000000E+00  0.99999998245E-14  0.12500000000E+03  0.12500000000E+03 0.  0.
        -11    1    3    3    0    0 -0.21428590345E+02 -0.20382814077E+02  0.34999913609E+02  0.45821802089E+02  0.51100000000E-03 0.  1.
         23    2    1    0    0    0  0.20415762936E+02  0.49923699433E+01  0.17012929197E+02  0.97959902112E+02  0.94153999002E+02 0.  0.
         11    1    3    3    0    0  0.41844353280E+02  0.25375184020E+02 -0.17986984411E+02  0.52138100023E+02  0.51100000000E-03 0. -1.
         22    1    1    0    0    0 -0.20415762936E+02 -0.49923699433E+01 -0.17012929197E+02  0.27040097888E+02  0.00000000000E+00 0. -1.
</event>
<event>
 5    1  0.8863861E-005  0.9118800E+02  0.7818608E-02  0.1130116E+00
         25   -1    0    0    0    0  0.00000000000E+00  0.00000000000E+00  0.99999998245E-14  0.12500000000E+03  0.12500000000E+03 0.  0.
        -11    1    3    3    0    0 -0.41718661074E+01 -0.22184086690E+02 -0.54640734770E+02  0.59119777279E+02  0.51100000000E-03 0.  1.
         23    2    1    0    0    0  0.12064689243E+02 -0.13958634753E+02 -0.24497370306E+02  0.94332079258E+02  0.89207734051E+02 0.  0.
         11    1    3    3    0    0  0.16236555350E+02  0.82254519371E+01  0.30143364464E+02  0.35212301979E+02  0.51100000000E-03 0. -1.
         22    1    1    0    0    0 -0.12064689243E+02  0.13958634753E+02  0.24497370306E+02  0.30667920742E+02  0.00000000000E+00 0.  1.
</event>
<event>
 5    1  0.8863861E-005  0.9118800E+02  0.7818608E-02  0.1130116E+00
         25   -1    0    0    0    0  0.00000000000E+00  0.00000000000E+00  0.99999998245E-14  0.12500000000E+03  0.12500000000E+03 0.  0.
        -11    1    3    3    0    0 -0.26610498292E+02  0.26571689927E+02 -0.33426559475E+02  0.50314095476E+02  0.51100000000E-03 0.  1.
         23    2    1    0    0    0 -0.12758623188E+02  0.13866122027E+02  0.14128196940E+02  0.10144882690E+03  0.98677285757E+02 0.  0.
         11    1    3    3    0    0  0.13851875105E+02 -0.12705567900E+02  0.47554756416E+02  0.51134731422E+02  0.51100000000E-03 0. -1.
         22    1    1    0    0    0  0.12758623188E+02 -0.13866122027E+02 -0.14128196940E+02  0.23551173102E+02  0.00000000000E+00 0.  1.
</event>
<event>
 5    1  0.8863861E-005  0.9118800E+02  0.7818608E-02  0.1130116E+00
         25   -1    0    0    0    0  0.00000000000E+00  0.00000000000E+00  0.99999998245E-14  0.12500000000E+03  0.12500000000E+03 0.  0.
        -11    1    3    3    0    0 -0.24546388405E+02  0.25577790827E+02 -0.20308201561E+02  0.40855496793E+02  0.51100000000E-03 0.  1.
         23    2    1    0    0    0  0.11866745082E+02 -0.15688095321E+02 -0.21442468697E+02  0.95901624832E+02  0.91380557056E+02 0.  0.
         11    1    3    3    0    0  0.36413133487E+02 -0.41265886147E+02 -0.11342671363E+01  0.55046128039E+02  0.51100000000E-03 0. -1.
         22    1    1    0    0    0 -0.11866745082E+02  0.15688095321E+02  0.21442468697E+02  0.29098375168E+02  0.00000000000E+00 0. -1.
</event>
<event>
 5    1  0.8863861E-005  0.9118800E+02  0.7818608E-02  0.1130116E+00
         25   -1    0    0    0    0  0.00000000000E+00  0.00000000000E+00  0.99999998245E-14  0.12500000000E+03  0.12500000000E+03 0.  0.
        -11    1    3    3    0    0  0.27733871518E+02 -0.29889557880E+02  0.38584805021E+02  0.56136801462E+02  0.51100000000E-03 0. -1.
         23    2    1    0    0    0  0.12938957882E+02 -0.27240827834E+02  0.30877616886E+01  0.94684762834E+02  0.89700561361E+02 0.  0.
         11    1    3    3    0    0 -0.14794913635E+02  0.26487300458E+01 -0.35497043332E+02  0.38547961372E+02  0.51100000000E-03 0.  1.
         22    1    1    0    0    0 -0.12938957882E+02  0.27240827834E+02 -0.30877616886E+01  0.30315237166E+02  0.00000000000E+00 0. -1.
</event>
<event>
 5    1  0.8863861E-005  0.9118800E+02  0.7818608E-02  0.1130116E+00
         25   -1    0    0    0    0  0.00000000000E+00  0.00000000000E+00  0.99999998245E-14  0.12500000000E+03  0.12500000000E+03 0.  0.
        -11    1    3    3    0    0 -0.49295346140E+02  0.26667979406E+02  0.19529445276E+02  0.59351592309E+02  0.51100000000E-03 0. -1.
         23    2    1    0    0    0 -0.15114002298E+02  0.10264299897E+02  0.20836940539E+02  0.97287782318E+02  0.93257415681E+02 0.  0.
         11    1    3    3    0    0  0.34181343841E+02 -0.16403679509E+02  0.13074952626E+01  0.37936190008E+02  0.51100000000E-03 0.  1.
         22    1    1    0    0    0  0.15114002298E+02 -0.10264299897E+02 -0.20836940539E+02  0.27712217682E+02  0.00000000000E+00 0. -1.
</event>
<event>
 5    1  0.8863861E-005  0.9118800E+02  0.7818608E-02  0.1130116E+00
         25   -1    0    0    0    0  0.00000000000E+00  0.00000000000E+00  0.99999998245E-14  0.12500000000E+03  0.12500000000E+03 0.  0.
        -11    1    3    3    0    0  0.35844241970E+01 -0.18917135304E+02 -0.40058479935E+02  0.44445336312E+02  0.51100000000E-03 0. -1.
         23    2    1    0    0    0  0.10436980756E+02 -0.25282735434E+02  0.10380528610E+02  0.95744186004E+02  0.91164941183E+02 0.  0.
         11    1    3    3    0    0  0.68525565590E+01 -0.63656001301E+01  0.50439008545E+02  0.51298849692E+02  0.51100000000E-03 0.  1.
         22    1    1    0    0    0 -0.10436980756E+02  0.25282735434E+02 -0.10380528610E+02  0.29255813996E+02  0.00000000000E+00 0.  1.
</event>
<event>
 5    1  0.8863861E-005  0.9118800E+02  0.7818608E-02  0.1130116E+00
         25   -1    0    0    0    0  0.00000000000E+00  0.00000000000E+00  0.99999998245E-14  0.12500000000E+03  0.12500000000E+03 0.  0.
        -11    1    3    3    0    0 -0.59502581714E+02  0.79324127749E+01 -0.14871575752E+02  0.61843707591E+02  0.51100000000E-03 0. -1.
         23    2    1    0    0    0 -0.28321371007E+02 -0.26324025261E+01 -0.75795566605E+01  0.95563979923E+02  0.90917517459E+02 0.  0.
         11    1    3    3    0    0  0.31181210707E+02 -0.10564815301E+02  0.72920190913E+01  0.33720272332E+02  0.51100000000E-03 0.  1.
         22    1    1    0    0    0  0.28321371007E+02  0.26324025261E+01  0.75795566605E+01  0.29436020077E+02  0.00000000000E+00 0. -1.
</event>
<event>
 5    1  0.8863861E-005  0.9118800E+02  0.7818608E-02  0.1130116E+00
         25   -1    0    0    0    0  0.00000000000E+00  0.00000000000E+00  0.99999998245E-14  0.12500000000E+03  0.12500000000E+03 0.  0.
        -11    1    3    3    0    0 -0.20306035644E+02 -0.49065399103E+02  0.17874889798E+02  0.56029100994E+02  0.51100000000E-03 0.  1.
         23    2    1    0    0    0 -0.24264187876E+02 -0.16895345835E+02 -0.40446855816E+01  0.95157697716E+02  0.90357204633E+02 0.  0.
         11    1    3    3    0    0 -0.39581522317E+01  0.32170053267E+02 -0.21919575380E+02  0.39128596722E+02  0.51100000000E-03 0. -1.
         22    1    1    0    0    0  0.24264187876E+02  0.16895345835E+02  0.40446855816E+01  0.29842302284E+02  0.00000000000E+00 0.  1.
</event>
<event>
 5    1  0.8863861E-005  0.9118800E+02  0.7818608E-02  0.1130116E+00
         25   -1    0    0    0    0  0.00000000000E+00  0.00000000000E+00  0.99999998245E-14  0.12500000000E+03  0.12500000000E+03 0.  0.
        -11    1    3    3    0    0 -0.21760574814E+02 -0.75382091849E+01 -0.28146511380E+02  0.36367201117E+02  0.51100000000E-03 0.  1.
         23    2    1    0    0    0  0.49769590824E+01 -0.24515588640E+02  0.19293664707E+02  0.93408391844E+02  0.87903913229E+02 0.  0.
         11    1    3    3    0    0  0.26737533897E+02 -0.16977379455E+02  0.47440176087E+02  0.57041190726E+02  0.51100000000E-03 0. -1.
         22    1    1    0    0    0 -0.49769590824E+01  0.24515588640E+02 -0.19293664707E+02  0.31591608156E+02  0.00000000000E+00 0. -1.
</event>
<event>
 5    1  0.8863861E-005  0.9118800E+02  0.7818608E-02  0.1130116E+00
         25   -1    0    0    0    0  0.00000000000E+00  0.00000000000E+00  0.99999998245E-14  0.12500000000E+03  0.12500000000E+03 0.  0.
        -11    1    3    3    0    0 -0.31545192974E+02 -0.46468721919E+02  0.36910304908E+01  0.56285566737E+02  0.51100000000E-03 0.  1.
         23    2    1    0    0    0 -0.91397394493E+01 -0.22797257297E+02 -0.17213970448E+02  0.95007158253E+02  0.90148708051E+02 0.  0.
         11    1    3    3    0    0  0.22405453525E+02  0.23671464622E+02 -0.20905000939E+02  0.38721591516E+02  0.51100000000E-03 0. -1.
         22    1    1    0    0    0  0.91397394493E+01  0.22797257297E+02  0.17213970448E+02  0.29992841747E+02  0.00000000000E+00 0.  1.
</event>
<event>
 5    1  0.8863861E-005  0.9118800E+02  0.7818608E-02  0.1130116E+00
         25   -1    0    0    0    0  0.00000000000E+00  0.00000000000E+00  0.99999998245E-14  0.12500000000E+03  0.12500000000E+03 0.  0.
        -11    1    3    3    0    0  0.32265018477E+02 -0.38479697826E+02 -0.24273139732E+02  0.55775477360E+02  0.51100000000E-03 0.  1.
         23    2    1    0    0    0  0.16622101365E+02 -0.25038794432E+01 -0.24837256510E+02  0.95009118436E+02  0.90151425996E+02 0.  0.
         11    1    3    3    0    0 -0.15642917112E+02  0.35975818382E+02 -0.56411677749E+00  0.39233641076E+02  0.51100000000E-03 0. -1.
         22    1    1    0    0    0 -0.16622101365E+02  0.25038794432E+01  0.24837256510E+02  0.29990881564E+02  0.00000000000E+00 0.  1.
</event>
<event>
 5    1  0.8863861E-005  0.9118800E+02  0.7818608E-02  0.1130116E+00
         25   -1    0    0    0    0  0.00000000000E+00  0.00000000000E+00  0.99999998245E-14  0.12500000000E+03  0.12500000000E+03 0.  0.
        -11    1    3    3    0    0 -0.17902388936E+02  0.27743115184E+02 -0.11683165487E+02  0.35023882221E+02  0.51100000000E-03 0. -1.
         23    2    1    0    0    0  0.81243899137E+01 -0.27173195828E+02 -0.19358930662E+01  0.96572267678E+02  0.92293374191E+02 0.  0.
         11    1    3    3    0    0  0.26026778850E+02 -0.54916311013E+02  0.97472724204E+01  0.61548385458E+02  0.51100000000E-03 0.  1.
         22    1    1    0    0    0 -0.81243899137E+01  0.27173195828E+02  0.19358930662E+01  0.28427732322E+02  0.00000000000E+00 0.  1.
</event>
<event>
 5    1  0.8863861E-005  0.9118800E+02  0.7818608E-02  0.1130116E+00
         25   -1    0    0    0    0  0.00000000000E+00  0.00000000000E+00  0.99999998245E-14  0.12500000000E+03  0.12500000000E+03 0.  0.
        -11    1    3    3    0    0  0.23908094652E+02  0.49048191060E+02 -0.28498177043E+02  0.61558656021E+02  0.51100000000E-03 0.  1.
         23    2    1    0    0    0  0.13246374910E+02  0.24345195434E+02 -0.59738796099E+01  0.96647888499E+02  0.92395736507E+02 0.  0.
         11    1    3    3    0    0 -0.10661719742E+02 -0.24702995626E+02  0.22524297433E+02  0.35089232477E+02  0.51100000000E-03 0. -1.
         22    1    1    0    0    0 -0.13246374910E+02 -0.24345195434E+02  0.59738796099E+01  0.28352111501E+02  0.00000000000E+00 0.  1.
</event>
<event>
 5    1  0.8863861E-005  0.9118800E+02  0.7818608E-02  0.1130116E+00
         25   -1    0    0    0    0  0.00000000000E+00  0.00000000000E+00  0.99999998245E-14  0.12500000000E+03  0.12500000000E+03 0.  0.
        -11    1    3    3    0    0 -0.20825733061E+02 -0.38080224301E+02  0.42193136769E+02  0.60531606876E+02  0.51100000000E-03 0.  1.
         23    2    1    0    0    0  0.11354881834E+01 -0.20651709083E+02  0.18912752403E+02  0.96973679783E+02  0.92835445524E+02 0.  0.
         11    1    3    3    0    0  0.21961221244E+02  0.17428515219E+02 -0.23280384366E+02  0.36442072907E+02  0.51100000000E-03 0. -1.
         22    1    1    0    0    0 -0.11354881834E+01  0.20651709083E+02 -0.18912752403E+02  0.28026320217E+02  0.00000000000E+00 0.  1.
</event>
<event>
 5    1  0.8863861E-005  0.9118800E+02  0.7818608E-02  0.1130116E+00
         25   -1    0    0    0    0  0.00000000000E+00  0.00000000000E+00  0.99999998245E-14  0.12500000000E+03  0.12500000000E+03 0.  0.
        -11    1    3    3    0    0  0.23483840095E+02 -0.70091579555E+01  0.36715455239E+02  0.44143444525E+02  0.51100000000E-03 0.  1.
         23    2    1    0    0    0 -0.75792248616E+01  0.25764410484E+02  0.12599139317E+02  0.95335411538E+02  0.90602720073E+02 0.  0.
         11    1    3    3    0    0 -0.31063064957E+02  0.32773568439E+02 -0.24116315922E+02  0.51191967013E+02  0.51100000000E-03 0. -1.
         22    1    1    0    0    0  0.75792248616E+01 -0.25764410484E+02 -0.12599139317E+02  0.29664588462E+02  0.00000000000E+00 0. -1.
</event>
<event>
 5    1  0.8863861E-005  0.9118800E+02  0.7818608E-02  0.1130116E+00
         25   -1    0    0    0    0  0.00000000000E+00  0.00000000000E+00  0.99999998245E-14  0.12500000000E+03  0.12500000000E+03 0.  0.
        -11    1    3    3    0    0  0.51674517895E+02  0.99177230403E+00 -0.42877782202E+01  0.51861589392E+02  0.51100000000E-03 0. -1.
         23    2    1    0    0    0  0.16464408343E+02 -0.21549082218E+02  0.10079226756E+02  0.96068520630E+02  0.91608570328E+02 0.  0.
         11    1    3    3    0    0 -0.35210109552E+02 -0.22540854522E+02  0.14367004977E+02  0.44206931238E+02  0.51100000000E-03 0.  1.
         22    1    1    0    0    0 -0.16464408343E+02  0.21549082218E+02 -0.10079226756E+02  0.28931479370E+02  0.00000000000E+00 0.  1.
</event>
<event>
 5    1  0.8863861E-005  0.9118800E+02  0.7818608E-02  0.1130116E+00
         25   -1    0    0    0    0  0.00000000000E+00  0.00000000000E+00  0.99999998245E-14  0.12500000000E+03  0.12500000000E+03 0.  0.
        -11    1    3    3    0    0 -0.33027296587E+02 -0.35935074363E+02  0.52045256767E+01  0.49083795463E+02  0.51100000000E-03 0.  1.
         23    2    1    0    0    0  0.82944207024E+01 -0.20499726886E+02  0.19565327424E+02  0.95473092705E+02  0.90792473126E+02 0.  0.
         11    1    3    3    0    0  0.41321717289E+02  0.15435347477E+02  0.14360801748E+02  0.46389297242E+02  0.51100000000E-03 0. -1.
         22    1    1    0    0    0 -0.82944207024E+01  0.20499726886E+02 -0.19565327424E+02  0.29526907295E+02  0.00000000000E+00 0.  1.
</event>
<event>
 5    1  0.8863861E-005  0.9118800E+02  0.7818608E-02  0.1130116E+00
         25   -1    0    0    0    0  0.00000000000E+00  0.00000000000E+00  0.99999998245E-14  0.12500000000E+03  0.12500000000E+03 0.  0.
        -11    1    3    3    0    0  0.99292045472E+01 -0.37852213668E+02  0.12857430762E+02  0.41190929931E+02  0.51100000000E-03 0. -1.
         23    2    1    0    0    0 -0.29038136446E+02 -0.13701258882E+01  0.78417941408E+00  0.95918982986E+02  0.91404298294E+02 0.  0.
         11    1    3    3    0    0 -0.38967340993E+02  0.36482087780E+02 -0.12073251348E+02  0.54728053055E+02  0.51100000000E-03 0.  1.
         22    1    1    0    0    0  0.29038136446E+02  0.13701258882E+01 -0.78417941408E+00  0.29081017014E+02  0.00000000000E+00 0.  1.
</event>
<event>
 5    1  0.8863861E-005  0.9118800E+02  0.7818608E-02  0.1130116E+00
         25   -1    0    0    0    0  0.00000000000E+00  0.00000000000E+00  0.99999998245E-14  0.12500000000E+03  0.12500000000E+03 0.  0.
        -11    1    3    3    0    0 -0.47839038536E+02 -0.20262355194E+02  0.24556589118E+02  0.57464447404E+02  0.51100000000E-03 0. -1.
         23    2    1    0    0    0 -0.12787826670E+02 -0.24215022056E+02  0.77302341151E+01  0.96545609766E+02  0.92257262270E+02 0.  0.
         11    1    3    3    0    0  0.35051211866E+02 -0.39526668623E+01 -0.16826355003E+02  0.39081162362E+02  0.51100000000E-03 0.  1.
         22    1    1    0    0    0  0.12787826670E+02  0.24215022056E+02 -0.77302341151E+01  0.28454390234E+02  0.00000000000E+00 0. -1.
</event>
<event>
 5    1  0.8863861E-005  0.9118800E+02  0.7818608E-02  0.1130116E+00
         25   -1    0    0    0    0  0.00000000000E+00  0.00000000000E+00  0.99999998245E-14  0.12500000000E+03  0.12500000000E+03 0.  0.
        -11    1    3    3    0    0  0.45440830039E+01  0.40171165837E+02 -0.33025285544E+02  0.52201922767E+02  0.51100000000E-03 0. -1.
         23    2    1    0    0    0  0.61580696218E+01 -0.32524471356E+01 -0.28235059848E+02  0.95918754524E+02  0.91403985859E+02 0.  0.
         11    1    3    3    0    0  0.16139866179E+01 -0.43423612972E+02  0.47902256964E+01  0.43716831757E+02  0.51100000000E-03 0.  1.
         22    1    1    0    0    0 -0.61580696218E+01  0.32524471356E+01  0.28235059848E+02  0.29081245476E+02  0.00000000000E+00 0. -1.
</event>
<event>
 5    1  0.8863861E-005  0.9118800E+02  0.7818608E-02  0.1130116E+00
         25   -1    0    0    0    0  0.00000000000E+00  0.00000000000E+00  0.99999998245E-14  0.12500000000E+03  0.12500000000E+03 0.  0.
        -11    1    3    3    0    0 -0.29120851698E+02  0.19518958025E+02  0.40162859850E+02  0.53311059243E+02  0.51100000000E-03 0. -1.
         23    2    1    0    0    0 -0.28794923823E+02 -0.30029711951E+00  0.22218765420E+01  0.96117919886E+02  0.91675950889E+02 0.  0.
         11    1    3    3    0    0  0.32592787436E+00 -0.19819255144E+02 -0.37940983308E+02  0.42806860643E+02  0.51100000000E-03 0.  1.
         22    1    1    0    0    0  0.28794923823E+02  0.30029711951E+00 -0.22218765420E+01  0.28882080114E+02  0.00000000000E+00 0. -1.
</event>
<event>
 5    1  0.8863861E-005  0.9118800E+02  0.7818608E-02  0.1130116E+00
         25   -1    0    0    0    0  0.00000000000E+00  0.00000000000E+00  0.99999998245E-14  0.12500000000E+03  0.12500000000E+03 0.  0.
        -11    1    3    3    0    0  0.35975341025E+02 -0.75579644408E+01  0.93930615670E+01  0.37941765829E+02  0.51100000000E-03 0. -1.
         23    2    1    0    0    0 -0.39889181286E+01  0.17600006825E+02 -0.23410785024E+02  0.95440964774E+02  0.90748229698E+02 0.  0.
         11    1    3    3    0    0 -0.39964259153E+02  0.25157971266E+02 -0.32803846591E+02  0.57499198945E+02  0.51100000000E-03 0.  1.
         22    1    1    0    0    0  0.39889181286E+01 -0.17600006825E+02  0.23410785024E+02  0.29559035226E+02  0.00000000000E+00 0. -1.
</event>
<event>
 5    1  0.8863861E-005  0.9118800E+02  0.7818608E-02  0.1130116E+00
         25   -1    0    0    0    0  0.00000000000E+00  0.00000000000E+00  0.99999998245E-14  0.12500000000E+03  0.12500000000E+03 0.  0.
        -11    1    3    3    0    0 -0.21138249422E+02  0.43884730305E+02 -0.10157882865E+02  0.49758192563E+02  0.51100000000E-03 0. -1.
         23    2    1    0    0    0 -0.17205554973E+02  0.10820738274E+02  0.21295079140E+02  0.95561931206E+02  0.90914700690E+02 0.  0.
         11    1    3    3    0    0  0.39326944493E+01 -0.33063992031E+02  0.31452962004E+02  0.45803738644E+02  0.51100000000E-03 0.  1.
         22    1    1    0    0    0  0.17205554973E+02 -0.10820738274E+02 -0.21295079140E+02  0.29438068794E+02  0.00000000000E+00 0. -1.
</event>
<event>
 5    1  0.8863861E-005  0.9118800E+02  0.7818608E-02  0.1130116E+00
         25   -1    0    0    0    0  0.00000000000E+00  0.00000000000E+00  0.99999998245E-14  0.12500000000E+03  0.12500000000E+03 0.  0.
        -11    1    3    3    0    0 -0.24951136688E+02 -0.11933963522E+02  0.50596422036E+02  0.57662610333E+02  0.51100000000E-03 0. -1.
         23    2    1    0    0    0  0.49053841970E+01 -0.29871304408E+01  0.28644571222E+02  0.95785325556E+02  0.91221331875E+02 0.  0.
         11    1    3    3    0    0  0.29856520885E+02  0.89468330812E+01 -0.21951850814E+02  0.38122715223E+02  0.51100000000E-03 0.  1.
         22    1    1    0    0    0 -0.49053841970E+01  0.29871304408E+01 -0.28644571222E+02  0.29214674444E+02  0.00000000000E+00 0. -1.
</event>
<event>
 5    1  0.8863861E-005  0.9118800E+02  0.7818608E-02  0.1130116E+00
         25   -1    0    0    0    0  0.00000000000E+00  0.00000000000E+00  0.99999998245E-14  0.12500000000E+03  0.12500000000E+03 0.  0.
        -11    1    3    3    0    0 -0.25876906201E+02  0.11728992323E+02 -0.16140573312E+02  0.32675704163E+02  0.51100000000E-03 0.  1.
         23    2    1    0    0    0 -0.14523176294E+02 -0.93263836961E+01  0.33240371835E+02  0.87545675787E+02  0.79129128308E+02 0.  0.
         11    1    3    3    0    0  0.11353729908E+02 -0.21055376019E+02  0.49380945147E+02  0.54869971624E+02  0.51100000000E-03 0. -1.
         22    1    1    0    0    0  0.14523176294E+02  0.93263836961E+01 -0.33240371835E+02  0.37454324213E+02  0.00000000000E+00 0. -1.
</event>
<event>
 5    1  0.8863861E-005  0.9118800E+02  0.7818608E-02  0.1130116E+00
         25   -1    0    0    0    0  0.00000000000E+00  0.00000000000E+00  0.99999998245E-14  0.12500000000E+03  0.12500000000E+03 0.  0.
        -11    1    3    3    0    0  0.40300494939E+01  0.17902704744E+02 -0.56545667530E+02  0.59448806992E+02  0.51100000000E-03 0. -1.
         23    2    1    0    0    0 -0.97840554203E+01  0.15272063453E+02 -0.23877845982E+02  0.95014750437E+02  0.90159234742E+02 0.  0.
         11    1    3    3    0    0 -0.13814104914E+02 -0.26306412914E+01  0.32667821548E+02  0.35565943445E+02  0.51100000000E-03 0.  1.
         22    1    1    0    0    0  0.97840554203E+01 -0.15272063453E+02  0.23877845982E+02  0.29985249563E+02  0.00000000000E+00 0. -1.
</event>
<event>
 5    1  0.8863861E-005  0.9118800E+02  0.7818608E-02  0.1130116E+00
         25   -1    0    0    0    0  0.00000000000E+00  0.00000000000E+00  0.99999998245E-14  0.12500000000E+03  0.12500000000E+03 0.  0.
        -11    1    3    3    0    0 -0.16006192106E+02 -0.23410237156E+02  0.23540922235E+02  0.36856646746E+02  0.51100000000E-03 0. -1.
         23    2    1    0    0    0  0.23238775294E+02 -0.40483738363E+01 -0.16532899093E+02  0.96194327637E+02  0.91780073596E+02 0.  0.
         11    1    3    3    0    0  0.39244967400E+02  0.19361863320E+02 -0.40073821328E+02  0.59337680891E+02  0.51100000000E-03 0.  1.
         22    1    1    0    0    0 -0.23238775294E+02  0.40483738363E+01  0.16532899093E+02  0.28805672363E+02  0.00000000000E+00 0.  1.
</event>
<event>
 5    1  0.8863861E-005  0.9118800E+02  0.7818608E-02  0.1130116E+00
         25   -1    0    0    0    0  0.00000000000E+00  0.00000000000E+00  0.99999998245E-14  0.12500000000E+03  0.12500000000E+03 0.  0.
        -11    1    3    3    0    0  0.50668195652E+02 -0.31813479726E+02 -0.10039849167E+02  0.60664339727E+02  0.51100000000E-03 0.  1.
         23    2    1    0    0    0  0.24856034563E+02 -0.88169673571E+01 -0.13436264485E+02  0.95401105242E+02  0.90693309073E+02 0.  0.
         11    1    3    3    0    0 -0.25812161089E+02  0.22996512369E+02 -0.33964153184E+01  0.34736765516E+02  0.51100000000E-03 0. -1.
         22    1    1    0    0    0 -0.24856034563E+02  0.88169673571E+01  0.13436264485E+02  0.29598894758E+02  0.00000000000E+00 0.  1.
</event>
<event>
 5    1  0.8863861E-005  0.9118800E+02  0.7818608E-02  0.1130116E+00
         25   -1    0    0    0    0  0.00000000000E+00  0.00000000000E+00  0.99999998245E-14  0.12500000000E+03  0.12500000000E+03 0.  0.
        -11    1    3    3    0    0  0.89735877694E+01 -0.75755715410E+01 -0.29853738369E+02  0.32080527684E+02  0.51100000000E-03 0.  1.
         23    2    1    0    0    0 -0.28564123227E+02  0.12621761791E+02  0.11740009100E+02  0.91637658654E+02  0.85348782437E+02 0.  0.
         11    1    3    3    0    0 -0.37537710996E+02  0.20197333332E+02  0.41593747469E+02  0.59557130970E+02  0.51100000000E-03 0. -1.
         22    1    1    0    0    0  0.28564123227E+02 -0.12621761791E+02 -0.11740009100E+02  0.33362341346E+02  0.00000000000E+00 0. -1.
</event>
<event>
 5    1  0.8863861E-005  0.9118800E+02  0.7818608E-02  0.1130116E+00
         25   -1    0    0    0    0  0.00000000000E+00  0.00000000000E+00  0.99999998245E-14  0.12500000000E+03  0.12500000000E+03 0.  0.
        -11    1    3    3    0    0  0.36326474940E+02 -0.19251921706E+02  0.50283017653E+01  0.41418994312E+02  0.51100000000E-03 0. -1.
         23    2    1    0    0    0 -0.83546655057E+01 -0.16951312864E+02 -0.23774834302E+02  0.94629122673E+02  0.89622991850E+02 0.  0.
         11    1    3    3    0    0 -0.44681140446E+02  0.23006088420E+01 -0.28803136068E+02  0.53210128361E+02  0.51100000000E-03 0.  1.
         22    1    1    0    0    0  0.83546655057E+01  0.16951312864E+02  0.23774834302E+02  0.30370877327E+02  0.00000000000E+00 0. -1.
</event>
<event>
 5    1  0.8863861E-005  0.9118800E+02  0.7818608E-02  0.1130116E+00
         25   -1    0    0    0    0  0.00000000000E+00  0.00000000000E+00  0.99999998245E-14  0.12500000000E+03  0.12500000000E+03 0.  0.
        -11    1    3    3    0    0 -0.53650729828E+02  0.11147345479E+02 -0.22864913765E+02  0.59375654978E+02  0.51100000000E-03 0.  1.
         23    2    1    0    0    0 -0.21332649875E+02  0.67511876927E+00 -0.23368145725E+02  0.93351809362E+02  0.87823415673E+02 0.  0.
         11    1    3    3    0    0  0.32318079953E+02 -0.10472226710E+02 -0.50323195988E+00  0.33976154385E+02  0.51100000000E-03 0. -1.
         22    1    1    0    0    0  0.21332649875E+02 -0.67511876927E+00  0.23368145725E+02  0.31648190638E+02  0.00000000000E+00 0.  1.
</event>
<event>
 5    1  0.8863861E-005  0.9118800E+02  0.7818608E-02  0.1130116E+00
         25   -1    0    0    0    0  0.00000000000E+00  0.00000000000E+00  0.99999998245E-14  0.12500000000E+03  0.12500000000E+03 0.  0.
        -11    1    3    3    0    0  0.26183729930E+02 -0.34100947998E+01  0.47421924098E+02  0.54277576816E+02  0.51100000000E-03 0. -1.
         23    2    1    0    0    0  0.10230843343E+02  0.20964302791E+02  0.20437607997E+02  0.93986003681E+02  0.88721479475E+02 0.  0.
         11    1    3    3    0    0 -0.15952886587E+02  0.24374397591E+02 -0.26984316101E+02  0.39708426865E+02  0.51100000000E-03 0.  1.
         22    1    1    0    0    0 -0.10230843343E+02 -0.20964302791E+02 -0.20437607997E+02  0.31013996319E+02  0.00000000000E+00 0. -1.
</event>
<event>
 5    1  0.8863861E-005  0.9118800E+02  0.7818608E-02  0.1130116E+00
         25   -1    0    0    0    0  0.00000000000E+00  0.00000000000E+00  0.99999998245E-14  0.12500000000E+03  0.12500000000E+03 0.  0.
        -11    1    3    3    0    0 -0.41457060404E+01  0.43845503320E+02 -0.16327805095E+02  0.46970333823E+02  0.51100000000E-03 0.  1.
         23    2    1    0    0    0  0.22455625546E+02  0.91693874279E+01 -0.23462988859E+02  0.91253227848E+02  0.84783883858E+02 0.  0.
         11    1    3    3    0    0  0.26601331587E+02 -0.34676115893E+02 -0.71351837638E+01  0.44282894025E+02  0.51100000000E-03 0. -1.
         22    1    1    0    0    0 -0.22455625546E+02 -0.91693874279E+01  0.23462988859E+02  0.33746772152E+02  0.00000000000E+00 0.  1.
</event>
<event>
 5    1  0.8863861E-005  0.9118800E+02  0.7818608E-02  0.1130116E+00
         25   -1    0    0    0    0  0.00000000000E+00  0.00000000000E+00  0.99999998245E-14  0.12500000000E+03  0.12500000000E+03 0.  0.
        -11    1    3    3    0    0  0.29786415550E+01  0.34625926272E+02  0.35636384714E+02  0.49777293934E+02  0.51100000000E-03 0.  1.
         23    2    1    0    0    0  0.25741336162E+02  0.17546850054E+02  0.20772927143E+01  0.93777836730E+02  0.88427705967E+02 0.  0.
         11    1    3    3    0    0  0.22762694607E+02 -0.17079076219E+02 -0.33559091999E+02  0.44000542796E+02  0.51100000000E-03 0. -1.
         22    1    1    0    0    0 -0.25741336162E+02 -0.17546850054E+02 -0.20772927143E+01  0.31222163270E+02  0.00000000000E+00 0.  1.
</event>
<event>
 5    1  0.8863861E-005  0.9118800E+02  0.7818608E-02  0.1130116E+00
         25   -1    0    0    0    0  0.00000000000E+00  0.00000000000E+00  0.99999998245E-14  0.12500000000E+03  0.12500000000E+03 0.  0.
        -11    1    3    3    0    0  0.67605043641E+01  0.47697583216E+02  0.15814547272E+02  0.50703685957E+02  0.51100000000E-03 0.  1.
         23    2    1    0    0    0  0.65948938449E+00  0.19585935273E+02 -0.20239780805E+02  0.96827451059E+02  0.92638343923E+02 0.  0.
         11    1    3    3    0    0 -0.61010149796E+01 -0.28111647943E+02 -0.36054328078E+02  0.46123765102E+02  0.51100000000E-03 0. -1.
         22    1    1    0    0    0 -0.65948938449E+00 -0.19585935273E+02  0.20239780805E+02  0.28172548941E+02  0.00000000000E+00 0.  1.
</event>
<event>
 5    1  0.8863861E-005  0.9118800E+02  0.7818608E-02  0.1130116E+00
         25   -1    0    0    0    0  0.00000000000E+00  0.00000000000E+00  0.99999998245E-14  0.12500000000E+03  0.12500000000E+03 0.  0.
        -11    1    3    3    0    0  0.28406927574E+02  0.22523228652E+02 -0.21753829615E+02  0.42278581649E+02  0.51100000000E-03 0. -1.
         23    2    1    0    0    0  0.15459927769E+02 -0.99103724386E+01  0.20751373952E+02  0.97289995139E+02  0.93260381646E+02 0.  0.
         11    1    3    3    0    0 -0.12946999805E+02 -0.32433601091E+02  0.42505203567E+02  0.55011413490E+02  0.51100000000E-03 0.  1.
         22    1    1    0    0    0 -0.15459927769E+02  0.99103724386E+01 -0.20751373952E+02  0.27710004861E+02  0.00000000000E+00 0.  1.
</event>
<event>
 5    1  0.8863861E-005  0.9118800E+02  0.7818608E-02  0.1130116E+00
         25   -1    0    0    0    0  0.00000000000E+00  0.00000000000E+00  0.99999998245E-14  0.12500000000E+03  0.12500000000E+03 0.  0.
        -11    1    3    3    0    0  0.40995795579E+02 -0.94493442620E+01  0.42814557371E+01  0.42288015154E+02  0.51100000000E-03 0.  1.
         23    2    1    0    0    0  0.25125231006E+01  0.28072303889E+02 -0.35101892463E+01  0.96597738707E+02  0.92327865116E+02 0.  0.
         11    1    3    3    0    0 -0.38483272479E+02  0.37521648151E+02 -0.77916449834E+01  0.54309723554E+02  0.51100000000E-03 0. -1.
         22    1    1    0    0    0 -0.25125231006E+01 -0.28072303889E+02  0.35101892463E+01  0.28402261293E+02  0.00000000000E+00 0. -1.
</event>
<event>
 5    1  0.8863861E-005  0.9118800E+02  0.7818608E-02  0.1130116E+00
         25   -1    0    0    0    0  0.00000000000E+00  0.00000000000E+00  0.99999998245E-14  0.12500000000E+03  0.12500000000E+03 0.  0.
        -11    1    3    3    0    0 -0.35826215419E+02  0.32883775613E+01 -0.49827476624E+01  0.36320227322E+02  0.51100000000E-03 0.  1.
         23    2    1    0    0    0  0.16580135790E+02 -0.23142721580E+02  0.56655726276E+01  0.95972682209E+02  0.91477705220E+02 0.  0.
         11    1    3    3    0    0  0.52406351209E+02 -0.26431099141E+02  0.10648320290E+02  0.59652454887E+02  0.51100000000E-03 0. -1.
         22    1    1    0    0    0 -0.16580135790E+02  0.23142721580E+02 -0.56655726276E+01  0.29027317791E+02  0.00000000000E+00 0. -1.
</event>
<event>
 5    1  0.8863861E-005  0.9118800E+02  0.7818608E-02  0.1130116E+00
         25   -1    0    0    0    0  0.00000000000E+00  0.00000000000E+00  0.99999998245E-14  0.12500000000E+03  0.12500000000E+03 0.  0.
        -11    1    3    3    0    0  0.52372579275E+02  0.25866684472E+02 -0.50014577982E+00  0.58414232611E+02  0.51100000000E-03 0.  1.
         23    2    1    0    0    0  0.15153643360E+02  0.16496106938E+02  0.13001592967E+02  0.99100272765E+02  0.95655988789E+02 0.  0.
         11    1    3    3    0    0 -0.37218935915E+02 -0.93705775335E+01  0.13501738747E+02  0.40686040154E+02  0.51100000000E-03 0. -1.
         22    1    1    0    0    0 -0.15153643360E+02 -0.16496106938E+02 -0.13001592967E+02  0.25899727235E+02  0.00000000000E+00 0.  1.
</event>
<event>
 5    1  0.8863861E-005  0.9118800E+02  0.7818608E-02  0.1130116E+00
         25   -1    0    0    0    0  0.00000000000E+00  0.00000000000E+00  0.99999998245E-14  0.12500000000E+03  0.12500000000E+03 0.  0.
        -11    1    3    3    0    0  0.42152242401E+02  0.11637899835E-01  0.31148864435E+02  0.52412435841E+02  0.51100000000E-03 0. -1.
         23    2    1    0    0    0  0.14970146375E+02  0.23592951293E+02  0.57114257234E+01  0.96480655390E+02  0.92169213122E+02 0.  0.
         11    1    3    3    0    0 -0.27182096026E+02  0.23581313393E+02 -0.25437438712E+02  0.44068219549E+02  0.51100000000E-03 0.  1.
         22    1    1    0    0    0 -0.14970146375E+02 -0.23592951293E+02 -0.57114257234E+01  0.28519344610E+02  0.00000000000E+00 0. -1.
</event>
<event>
 5    1  0.8863861E-005  0.9118800E+02  0.7818608E-02  0.1130116E+00
         25   -1    0    0    0    0  0.00000000000E+00  0.00000000000E+00  0.99999998245E-14  0.12500000000E+03  0.12500000000E+03 0.  0.
        -11    1    3    3    0    0 -0.16312663605E+02  0.11218989745E+02  0.48368009962E+02  0.52263114265E+02  0.51100000000E-03 0. -1.
         23    2    1    0    0    0 -0.22317457267E+02 -0.13683873718E+02  0.13454326431E+02  0.95566410370E+02  0.90920858951E+02 0.  0.
         11    1    3    3    0    0 -0.60047936625E+01 -0.24902863463E+02 -0.34913683531E+02  0.43303296105E+02  0.51100000000E-03 0.  1.
         22    1    1    0    0    0  0.22317457267E+02  0.13683873718E+02 -0.13454326431E+02  0.29433589630E+02  0.00000000000E+00 0.  1.
</event>
<event>
 5    1  0.8863861E-005  0.9118800E+02  0.7818608E-02  0.1130116E+00
         25   -1    0    0    0    0  0.00000000000E+00  0.00000000000E+00  0.99999998245E-14  0.12500000000E+03  0.12500000000E+03 0.  0.
        -11    1    3    3    0    0 -0.31734287881E+02 -0.38698367267E+02 -0.27041558373E+02  0.56884747833E+02  0.51100000000E-03 0.  1.
         23    2    1    0    0    0 -0.18355390228E+02 -0.21013654758E+02  0.57904323576E+01  0.96503980215E+02  0.92200840851E+02 0.  0.
         11    1    3    3    0    0  0.13378897653E+02  0.17684712509E+02  0.32831990731E+02  0.39619232382E+02  0.51100000000E-03 0. -1.
         22    1    1    0    0    0  0.18355390228E+02  0.21013654758E+02 -0.57904323576E+01  0.28496019785E+02  0.00000000000E+00 0.  1.
</event>
<event>
 5    1  0.8863861E-005  0.9118800E+02  0.7818608E-02  0.1130116E+00
         25   -1    0    0    0    0  0.00000000000E+00  0.00000000000E+00  0.99999998245E-14  0.12500000000E+03  0.12500000000E+03 0.  0.
        -11    1    3    3    0    0  0.13476468925E+02  0.21751486264E+02  0.33802675128E+02  0.42395320679E+02  0.51100000000E-03 0.  1.
         23    2    1    0    0    0 -0.26954346294E+02  0.57569156510E+01  0.50871045820E-01  0.97437680616E+02  0.93458119786E+02 0.  0.
         11    1    3    3    0    0 -0.40430815219E+02 -0.15994570613E+02 -0.33751804082E+02  0.55042359937E+02  0.51100000000E-03 0. -1.
         22    1    1    0    0    0  0.26954346294E+02 -0.57569156510E+01 -0.50871045820E-01  0.27562319384E+02  0.00000000000E+00 0.  1.
</event>
<event>
 5    1  0.8863861E-005  0.9118800E+02  0.7818608E-02  0.1130116E+00
         25   -1    0    0    0    0  0.00000000000E+00  0.00000000000E+00  0.99999998245E-14  0.12500000000E+03  0.12500000000E+03 0.  0.
        -11    1    3    3    0    0 -0.34210136242E+02 -0.10799351005E+02 -0.10031787622E+02  0.37250451903E+02  0.51100000000E-03 0. -1.
         23    2    1    0    0    0  0.57497940854E-02  0.19108110482E+02  0.24214803439E+02  0.94153985268E+02  0.88957834489E+02 0.  0.
         11    1    3    3    0    0  0.34215886036E+02  0.29907461487E+02  0.34246591061E+02  0.56903533365E+02  0.51100000000E-03 0.  1.
         22    1    1    0    0    0 -0.57497940854E-02 -0.19108110482E+02 -0.24214803439E+02  0.30846014732E+02  0.00000000000E+00 0.  1.
</event>
<event>
 5    1  0.8863861E-005  0.9118800E+02  0.7818608E-02  0.1130116E+00
         25   -1    0    0    0    0  0.00000000000E+00  0.00000000000E+00  0.99999998245E-14  0.12500000000E+03  0.12500000000E+03 0.  0.
        -11    1    3    3    0    0 -0.44219231250E+02 -0.97556425690E+01 -0.54750383453E+01  0.45612377919E+02  0.51100000000E-03 0.  1.
         23    2    1    0    0    0 -0.88456107404E+01 -0.14797761965E+02  0.26383046076E+02  0.93483596195E+02  0.88010789388E+02 0.  0.
         11    1    3    3    0    0  0.35373620510E+02 -0.50421193961E+01  0.31858084422E+02  0.47871218276E+02  0.51100000000E-03 0. -1.
         22    1    1    0    0    0  0.88456107404E+01  0.14797761965E+02 -0.26383046076E+02  0.31516403805E+02  0.00000000000E+00 0.  1.
</event>
<event>
 5    1  0.8863861E-005  0.9118800E+02  0.7818608E-02  0.1130116E+00
         25   -1    0    0    0    0  0.00000000000E+00  0.00000000000E+00  0.99999998245E-14  0.12500000000E+03  0.12500000000E+03 0.  0.
        -11    1    3    3    0    0 -0.27537313979E+02 -0.25045630468E+01  0.23893756327E+02  0.36544330462E+02  0.51100000000E-03 0.  1.
         23    2    1    0    0    0  0.23313093868E+02  0.17720831900E+02  0.14875459102E+01  0.95678659277E+02  0.91075050477E+02 0.  0.
         11    1    3    3    0    0  0.50850407847E+02  0.20225394947E+02 -0.22406210417E+02  0.59134328816E+02  0.51100000000E-03 0. -1.
         22    1    1    0    0    0 -0.23313093868E+02 -0.17720831900E+02 -0.14875459102E+01  0.29321340723E+02  0.00000000000E+00 0. -1.
</event>
<event>
 5    1  0.8863861E-005  0.9118800E+02  0.7818608E-02  0.1130116E+00
         25   -1    0    0    0    0  0.00000000000E+00  0.00000000000E+00  0.99999998245E-14  0.12500000000E+03  0.12500000000E+03 0.  0.
        -11    1    3    3    0    0  0.35649932732E+02  0.33801653875E+02 -0.10492646882E+02  0.50235098759E+02  0.51100000000E-03 0.  1.
         23    2    1    0    0    0  0.41554361267E-01  0.27037451605E+02  0.14555755977E+02  0.94293395692E+02  0.89153513240E+02 0.  0.
         11    1    3    3    0    0 -0.35608378371E+02 -0.67642022703E+01  0.25048402859E+02  0.44058296933E+02  0.51100000000E-03 0. -1.
         22    1    1    0    0    0 -0.41554361267E-01 -0.27037451605E+02 -0.14555755977E+02  0.30706604308E+02  0.00000000000E+00 0. -1.
</event>
<event>
 5    1  0.8863861E-005  0.9118800E+02  0.7818608E-02  0.1130116E+00
         25   -1    0    0    0    0  0.00000000000E+00  0.00000000000E+00  0.99999998245E-14  0.12500000000E+03  0.12500000000E+03 0.  0.
        -11    1    3    3    0    0  0.21260107089E+02 -0.46875771766E+02 -0.53141572416E+01  0.51745245188E+02  0.51100000000E-03 0. -1.
         23    2    1    0    0    0 -0.17169079829E+02 -0.18624453459E+02 -0.77018191038E+00  0.99657530725E+02  0.96381443656E+02 0.  0.
         11    1    3    3    0    0 -0.38429186918E+02  0.28251318308E+02  0.45439753312E+01  0.47912285537E+02  0.51100000000E-03 0.  1.
         22    1    1    0    0    0  0.17169079829E+02  0.18624453459E+02  0.77018191038E+00  0.25342469275E+02  0.00000000000E+00 0. -1.
</event>
<event>
 5    1  0.8863861E-005  0.9118800E+02  0.7818608E-02  0.1130116E+00
         25   -1    0    0    0    0  0.00000000000E+00  0.00000000000E+00  0.99999998245E-14  0.12500000000E+03  0.12500000000E+03 0.  0.
        -11    1    3    3    0    0  0.20310215912E+02  0.10276059809E+02  0.55066682198E+02  0.59585583526E+02  0.51100000000E-03 0.  1.
         23    2    1    0    0    0  0.10242179866E+02 -0.88181356130E+01  0.24724063373E+02  0.96823040019E+02  0.92632391768E+02 0.  0.
         11    1    3    3    0    0 -0.10068036046E+02 -0.19094195422E+02 -0.30342618825E+02  0.37237456493E+02  0.51100000000E-03 0. -1.
         22    1    1    0    0    0 -0.10242179866E+02  0.88181356130E+01 -0.24724063373E+02  0.28176959981E+02  0.00000000000E+00 0. -1.
</event>
<event>
 5    1  0.8863861E-005  0.9118800E+02  0.7818608E-02  0.1130116E+00
         25   -1    0    0    0    0  0.00000000000E+00  0.00000000000E+00  0.99999998245E-14  0.12500000000E+03  0.12500000000E+03 0.  0.
        -11    1    3    3    0    0 -0.19808938469E+02  0.52636070275E+02 -0.91192868254E+01  0.56974655153E+02  0.51100000000E-03 0. -1.
         23    2    1    0    0    0 -0.69096650233E+01  0.19021507960E+02 -0.21900612818E+02  0.95180575499E+02  0.90388848176E+02 0.  0.
         11    1    3    3    0    0  0.12899273446E+02 -0.33614562315E+02 -0.12781325993E+02  0.38205920346E+02  0.51100000000E-03 0.  1.
         22    1    1    0    0    0  0.69096650233E+01 -0.19021507960E+02  0.21900612818E+02  0.29819424501E+02  0.00000000000E+00 0. -1.
</event>
<event>
 5    1  0.8863861E-005  0.9118800E+02  0.7818608E-02  0.1130116E+00
         25   -1    0    0    0    0  0.00000000000E+00  0.00000000000E+00  0.99999998245E-14  0.12500000000E+03  0.12500000000E+03 0.  0.
        -11    1    3    3    0    0 -0.54879569246E+01  0.46774138323E+01 -0.40149654305E+02  0.40792041043E+02  0.51100000000E-03 0.  1.
         23    2    1    0    0    0  0.30562504683E+02 -0.67267453006E+01 -0.33967496057E+01  0.93522171251E+02  0.88065559743E+02 0.  0.
         11    1    3    3    0    0  0.36050461608E+02 -0.11404159133E+02  0.36752904699E+02  0.52730130208E+02  0.51100000000E-03 0. -1.
         22    1    1    0    0    0 -0.30562504683E+02  0.67267453006E+01  0.33967496057E+01  0.31477828749E+02  0.00000000000E+00 0. -1.
</event>
<event>
 5    1  0.8863861E-005  0.9118800E+02  0.7818608E-02  0.1130116E+00
         25   -1    0    0    0    0  0.00000000000E+00  0.00000000000E+00  0.99999998245E-14  0.12500000000E+03  0.12500000000E+03 0.  0.
        -11    1    3    3    0    0 -0.23099472765E+02  0.23080470924E+01  0.49120791732E+02  0.54330147285E+02  0.51100000000E-03 0. -1.
         23    2    1    0    0    0 -0.14500172348E+02  0.21328365790E+02  0.12833602939E+02  0.96192786497E+02  0.91777974614E+02 0.  0.
         11    1    3    3    0    0  0.85993004163E+01  0.19020318697E+02 -0.36287188793E+02  0.41862639212E+02  0.51100000000E-03 0.  1.
         22    1    1    0    0    0  0.14500172348E+02 -0.21328365790E+02 -0.12833602939E+02  0.28807213503E+02  0.00000000000E+00 0. -1.
</event>
<event>
 5    1  0.8863861E-005  0.9118800E+02  0.7818608E-02  0.1130116E+00
         25   -1    0    0    0    0  0.00000000000E+00  0.00000000000E+00  0.99999998245E-14  0.12500000000E+03  0.12500000000E+03 0.  0.
        -11    1    3    3    0    0 -0.17796887010E+02 -0.92113687267E+01 -0.34710172144E+02  0.40079602688E+02  0.51100000000E-03 0. -1.
         23    2    1    0    0    0 -0.18241090351E+02  0.18768408367E+02  0.13294261313E+02  0.95644797502E+02  0.91028563514E+02 0.  0.
         11    1    3    3    0    0 -0.44420334097E+00  0.27979777094E+02  0.48004433458E+02  0.55565194814E+02  0.51100000000E-03 0.  1.
         22    1    1    0    0    0  0.18241090351E+02 -0.18768408367E+02 -0.13294261313E+02  0.29355202498E+02  0.00000000000E+00 0.  1.
</event>
<event>
 5    1  0.8863861E-005  0.9118800E+02  0.7818608E-02  0.1130116E+00
         25   -1    0    0    0    0  0.00000000000E+00  0.00000000000E+00  0.99999998245E-14  0.12500000000E+03  0.12500000000E+03 0.  0.
        -11    1    3    3    0    0  0.54390095941E+01  0.47865064067E+02  0.24181067345E+02  0.53901495357E+02  0.51100000000E-03 0. -1.
         23    2    1    0    0    0  0.59595768198E-01  0.27053762513E+02 -0.11537116788E+02  0.95588868068E+02  0.90951729048E+02 0.  0.
         11    1    3    3    0    0 -0.53794138259E+01 -0.20811301554E+02 -0.35718184133E+02  0.41687372711E+02  0.51100000000E-03 0.  1.
         22    1    1    0    0    0 -0.59595768198E-01 -0.27053762513E+02  0.11537116788E+02  0.29411131932E+02  0.00000000000E+00 0. -1.
</event>
<event>
 5    1  0.8863861E-005  0.9118800E+02  0.7818608E-02  0.1130116E+00
         25   -1    0    0    0    0  0.00000000000E+00  0.00000000000E+00  0.99999998245E-14  0.12500000000E+03  0.12500000000E+03 0.  0.
        -11    1    3    3    0    0 -0.76927977407E+01 -0.19478695387E+02 -0.26361382967E+02  0.33667806927E+02  0.51100000000E-03 0.  1.
         23    2    1    0    0    0  0.22508123022E+02  0.12870435439E+02  0.15671958827E+02  0.94703564502E+02  0.89726758136E+02 0.  0.
         11    1    3    3    0    0  0.30200920763E+02  0.32349130827E+02  0.42033341794E+02  0.61035757575E+02  0.51100000000E-03 0. -1.
         22    1    1    0    0    0 -0.22508123022E+02 -0.12870435439E+02 -0.15671958827E+02  0.30296435498E+02  0.00000000000E+00 0. -1.
</event>
<event>
 5    1  0.8863861E-005  0.9118800E+02  0.7818608E-02  0.1130116E+00
         25   -1    0    0    0    0  0.00000000000E+00  0.00000000000E+00  0.99999998245E-14  0.12500000000E+03  0.12500000000E+03 0.  0.
        -11    1    3    3    0    0 -0.31064490318E+02 -0.10428978231E+02 -0.20901232614E+02  0.38866793933E+02  0.51100000000E-03 0.  1.
         23    2    1    0    0    0  0.67721350735E+01 -0.18748807302E+02  0.21076887789E+02  0.95989402151E+02  0.91500549385E+02 0.  0.
         11    1    3    3    0    0  0.37836625391E+02 -0.83198290718E+01  0.41978120402E+02  0.57122608217E+02  0.51100000000E-03 0. -1.
         22    1    1    0    0    0 -0.67721350735E+01  0.18748807302E+02 -0.21076887789E+02  0.29010597849E+02  0.00000000000E+00 0. -1.
</event>
<event>
 5    1  0.8863861E-005  0.9118800E+02  0.7818608E-02  0.1130116E+00
         25   -1    0    0    0    0  0.00000000000E+00  0.00000000000E+00  0.99999998245E-14  0.12500000000E+03  0.12500000000E+03 0.  0.
        -11    1    3    3    0    0 -0.18825545776E+02  0.58307085763E+01  0.33482008589E+02  0.38851553839E+02  0.51100000000E-03 0.  1.
         23    2    1    0    0    0  0.92237009242E+01 -0.14700549025E+02 -0.17368169277E+02  0.10044727908E+03  0.97400306831E+02 0.  0.
         11    1    3    3    0    0  0.28049246701E+02 -0.20531257601E+02 -0.50850177866E+02  0.61595725245E+02  0.51100000000E-03 0. -1.
         22    1    1    0    0    0 -0.92237009242E+01  0.14700549025E+02  0.17368169277E+02  0.24552720917E+02  0.00000000000E+00 0. -1.
</event>
<event>
 5    1  0.8863861E-005  0.9118800E+02  0.7818608E-02  0.1130116E+00
         25   -1    0    0    0    0  0.00000000000E+00  0.00000000000E+00  0.99999998245E-14  0.12500000000E+03  0.12500000000E+03 0.  0.
        -11    1    3    3    0    0 -0.25962985630E+02 -0.24024991797E+02  0.63976958580E+01  0.35947285937E+02  0.51100000000E-03 0. -1.
         23    2    1    0    0    0  0.57051156484E+01  0.27526595731E+02  0.48809102390E+01  0.96467823394E+02  0.92151808710E+02 0.  0.
         11    1    3    3    0    0  0.31668101278E+02  0.51551587528E+02 -0.15167856190E+01  0.60520537457E+02  0.51100000000E-03 0.  1.
         22    1    1    0    0    0 -0.57051156484E+01 -0.27526595731E+02 -0.48809102390E+01  0.28532176606E+02  0.00000000000E+00 0.  1.
</event>
<event>
 5    1  0.8863861E-005  0.9118800E+02  0.7818608E-02  0.1130116E+00
         25   -1    0    0    0    0  0.00000000000E+00  0.00000000000E+00  0.99999998245E-14  0.12500000000E+03  0.12500000000E+03 0.  0.
        -11    1    3    3    0    0  0.12947921688E+02 -0.17746376966E+02 -0.26245394611E+02  0.34225769677E+02  0.51100000000E-03 0. -1.
         23    2    1    0    0    0 -0.28709017814E+02  0.41642057789E+01  0.10719140044E+02  0.94073502027E+02  0.88844670671E+02 0.  0.
         11    1    3    3    0    0 -0.41656939502E+02  0.21910582745E+02  0.36964534654E+02  0.59847732350E+02  0.51100000000E-03 0.  1.
         22    1    1    0    0    0  0.28709017814E+02 -0.41642057789E+01 -0.10719140044E+02  0.30926497973E+02  0.00000000000E+00 0.  1.
</event>
<event>
 5    1  0.8863861E-005  0.9118800E+02  0.7818608E-02  0.1130116E+00
         25   -1    0    0    0    0  0.00000000000E+00  0.00000000000E+00  0.99999998245E-14  0.12500000000E+03  0.12500000000E+03 0.  0.
        -11    1    3    3    0    0  0.21923241752E+02  0.13719581995E+02  0.51302319337E+01  0.26366166558E+02  0.51100000000E-03 0.  1.
         23    2    1    0    0    0 -0.11260207209E+02 -0.20501526719E+02  0.35208283813E+02  0.82730293197E+02  0.71116617602E+02 0.  0.
         11    1    3    3    0    0 -0.33183448961E+02 -0.34221108714E+02  0.30078051879E+02  0.56364126638E+02  0.51100000000E-03 0. -1.
         22    1    1    0    0    0  0.11260207209E+02  0.20501526719E+02 -0.35208283813E+02  0.42269706803E+02  0.00000000000E+00 0. -1.
</event>
<event>
 5    1  0.8863861E-005  0.9118800E+02  0.7818608E-02  0.1130116E+00
         25   -1    0    0    0    0  0.00000000000E+00  0.00000000000E+00  0.99999998245E-14  0.12500000000E+03  0.12500000000E+03 0.  0.
        -11    1    3    3    0    0  0.37770775975E+02 -0.63774804688E+01  0.60957602727E+01  0.38787395742E+02  0.51100000000E-03 0. -1.
         23    2    1    0    0    0 -0.12607523383E+02  0.10137241124E+02 -0.21132009442E+02  0.98386561167E+02  0.94718743086E+02 0.  0.
         11    1    3    3    0    0 -0.50378299358E+02  0.16514721593E+02 -0.27227769714E+02  0.59599165425E+02  0.51100000000E-03 0.  1.
         22    1    1    0    0    0  0.12607523383E+02 -0.10137241124E+02  0.21132009442E+02  0.26613438833E+02  0.00000000000E+00 0.  1.
</event>
<event>
 5    1  0.8863861E-005  0.9118800E+02  0.7818608E-02  0.1130116E+00
         25   -1    0    0    0    0  0.00000000000E+00  0.00000000000E+00  0.99999998245E-14  0.12500000000E+03  0.12500000000E+03 0.  0.
        -11    1    3    3    0    0 -0.38287919627E+02  0.10086029048E+02  0.26319745282E+02  0.47543893017E+02  0.51100000000E-03 0. -1.
         23    2    1    0    0    0  0.70243547157E+01  0.23075519313E+02  0.16725158463E+02  0.95647792650E+02  0.91032676345E+02 0.  0.
         11    1    3    3    0    0  0.45312274342E+02  0.12989490264E+02 -0.95945868187E+01  0.48103899633E+02  0.51100000000E-03 0.  1.
         22    1    1    0    0    0 -0.70243547157E+01 -0.23075519313E+02 -0.16725158463E+02  0.29352207350E+02  0.00000000000E+00 0.  1.
</event>
<event>
 5    1  0.8863861E-005  0.9118800E+02  0.7818608E-02  0.1130116E+00
         25   -1    0    0    0    0  0.00000000000E+00  0.00000000000E+00  0.99999998245E-14  0.12500000000E+03  0.12500000000E+03 0.  0.
        -11    1    3    3    0    0  0.34896980558E+02 -0.17798009274E+02 -0.40720101349E+01  0.39384637271E+02  0.51100000000E-03 0. -1.
         23    2    1    0    0    0 -0.18577933685E+02 -0.12753004368E+02 -0.19426137616E+02  0.95248469567E+02  0.90482691117E+02 0.  0.
         11    1    3    3    0    0 -0.53474914243E+02  0.50450049066E+01 -0.15354127481E+02  0.55863832296E+02  0.51100000000E-03 0.  1.
         22    1    1    0    0    0  0.18577933685E+02  0.12753004368E+02  0.19426137616E+02  0.29751530433E+02  0.00000000000E+00 0. -1.
</event>
<event>
 5    1  0.8863861E-005  0.9118800E+02  0.7818608E-02  0.1130116E+00
         25   -1    0    0    0    0  0.00000000000E+00  0.00000000000E+00  0.99999998245E-14  0.12500000000E+03  0.12500000000E+03 0.  0.
        -11    1    3    3    0    0 -0.81595106269E+01  0.34831619588E+01 -0.40099418795E+02  0.41069129755E+02  0.51100000000E-03 0.  1.
         23    2    1    0    0    0  0.20446494602E+02 -0.11114188565E+02  0.92573248142E+01  0.99954393764E+02  0.96765688346E+02 0.  0.
         11    1    3    3    0    0  0.28606005229E+02 -0.14597350524E+02  0.49356743609E+02  0.58885264009E+02  0.51100000000E-03 0. -1.
         22    1    1    0    0    0 -0.20446494602E+02  0.11114188565E+02 -0.92573248142E+01  0.25045606236E+02  0.00000000000E+00 0. -1.
</event>
<event>
 5    1  0.8863861E-005  0.9118800E+02  0.7818608E-02  0.1130116E+00
         25   -1    0    0    0    0  0.00000000000E+00  0.00000000000E+00  0.99999998245E-14  0.12500000000E+03  0.12500000000E+03 0.  0.
        -11    1    3    3    0    0 -0.25462257416E+02 -0.35461744511E+02 -0.45732728447E+01  0.43895064658E+02  0.51100000000E-03 0.  1.
         23    2    1    0    0    0 -0.22394183607E+02  0.17053905199E+02  0.12643501067E+01  0.96823170456E+02  0.92632567783E+02 0.  0.
         11    1    3    3    0    0  0.30680738098E+01  0.52515649711E+02  0.58376229514E+01  0.52928105798E+02  0.51100000000E-03 0. -1.
         22    1    1    0    0    0  0.22394183607E+02 -0.17053905199E+02 -0.12643501067E+01  0.28176829544E+02  0.00000000000E+00 0. -1.
</event>
<event>
 5    1  0.8863861E-005  0.9118800E+02  0.7818608E-02  0.1130116E+00
         25   -1    0    0    0    0  0.00000000000E+00  0.00000000000E+00  0.99999998245E-14  0.12500000000E+03  0.12500000000E+03 0.  0.
        -11    1    3    3    0    0  0.34866285308E+02  0.12181800668E+02 -0.21206884797E+02  0.42588567501E+02  0.51100000000E-03 0.  1.
         23    2    1    0    0    0  0.14733381123E+02 -0.12145996098E+02  0.21848991689E+02  0.95983174219E+02  0.91492040937E+02 0.  0.
         11    1    3    3    0    0 -0.20132904184E+02 -0.24327796766E+02  0.43055876487E+02  0.53394606719E+02  0.51100000000E-03 0. -1.
         22    1    1    0    0    0 -0.14733381123E+02  0.12145996098E+02 -0.21848991689E+02  0.29016825781E+02  0.00000000000E+00 0. -1.
</event>
<event>
 5    1  0.8863861E-005  0.9118800E+02  0.7818608E-02  0.1130116E+00
         25   -1    0    0    0    0  0.00000000000E+00  0.00000000000E+00  0.99999998245E-14  0.12500000000E+03  0.12500000000E+03 0.  0.
        -11    1    3    3    0    0 -0.16153972299E+02  0.42503450410E+02  0.12406122287E+02  0.47131793816E+02  0.51100000000E-03 0.  1.
         23    2    1    0    0    0  0.23362832598E+02  0.20064011884E+02  0.13131832727E+00  0.94203835232E+02  0.89027854114E+02 0.  0.
         11    1    3    3    0    0  0.39516804897E+02 -0.22439438526E+02 -0.12274803960E+02  0.47072041417E+02  0.51100000000E-03 0. -1.
         22    1    1    0    0    0 -0.23362832598E+02 -0.20064011884E+02 -0.13131832727E+00  0.30796164768E+02  0.00000000000E+00 0.  1.
</event>
<event>
 5    1  0.8863861E-005  0.9118800E+02  0.7818608E-02  0.1130116E+00
         25   -1    0    0    0    0  0.00000000000E+00  0.00000000000E+00  0.99999998245E-14  0.12500000000E+03  0.12500000000E+03 0.  0.
        -11    1    3    3    0    0  0.41331023952E+02 -0.14414015164E+01 -0.27764616254E+01  0.41449245092E+02  0.51100000000E-03 0.  1.
         23    2    1    0    0    0 -0.59356799922E+01 -0.15061774712E+02 -0.24831441907E+02  0.95357296654E+02  0.90632908833E+02 0.  0.
         11    1    3    3    0    0 -0.47266703944E+02 -0.13620373196E+02 -0.22054980282E+02  0.53908051562E+02  0.51100000000E-03 0. -1.
         22    1    1    0    0    0  0.59356799922E+01  0.15061774712E+02  0.24831441907E+02  0.29642703346E+02  0.00000000000E+00 0. -1.
</event>
<event>
 5    1  0.8863861E-005  0.9118800E+02  0.7818608E-02  0.1130116E+00
         25   -1    0    0    0    0  0.00000000000E+00  0.00000000000E+00  0.99999998245E-14  0.12500000000E+03  0.12500000000E+03 0.  0.
        -11    1    3    3    0    0  0.23779777225E+02  0.53288438275E+02  0.46890987926E+01  0.58541635665E+02  0.51100000000E-03 0.  1.
         23    2    1    0    0    0  0.16056839072E+02  0.22356439443E+02 -0.12508725323E+02  0.94765902118E+02  0.89813559830E+02 0.  0.
         11    1    3    3    0    0 -0.77229381526E+01 -0.30931998832E+02 -0.17197824116E+02  0.36224266452E+02  0.51100000000E-03 0. -1.
         22    1    1    0    0    0 -0.16056839072E+02 -0.22356439443E+02  0.12508725323E+02  0.30234097882E+02  0.00000000000E+00 0.  1.
</event>
<event>
 5    1  0.8863861E-005  0.9118800E+02  0.7818608E-02  0.1130116E+00
         25   -1    0    0    0    0  0.00000000000E+00  0.00000000000E+00  0.99999998245E-14  0.12500000000E+03  0.12500000000E+03 0.  0.
        -11    1    3    3    0    0  0.56739214396E+02 -0.48005198150E+01 -0.25632583520E+02  0.62445278276E+02  0.51100000000E-03 0.  1.
         23    2    1    0    0    0  0.26714206177E+02 -0.25711337902E+01 -0.14078677102E+02  0.94693751641E+02  0.89713086616E+02 0.  0.
         11    1    3    3    0    0 -0.30025008219E+02  0.22293860248E+01  0.11553906418E+02  0.32248473365E+02  0.51100000000E-03 0. -1.
         22    1    1    0    0    0 -0.26714206177E+02  0.25711337902E+01  0.14078677102E+02  0.30306248359E+02  0.00000000000E+00 0.  1.
</event>
<event>
 5    1  0.8863861E-005  0.9118800E+02  0.7818608E-02  0.1130116E+00
         25   -1    0    0    0    0  0.00000000000E+00  0.00000000000E+00  0.99999998245E-14  0.12500000000E+03  0.12500000000E+03 0.  0.
        -11    1    3    3    0    0 -0.10708591574E+02  0.57256642376E+02  0.21707120083E+02  0.62162658343E+02  0.51100000000E-03 0.  1.
         23    2    1    0    0    0 -0.94629649486E+01  0.25804357913E+02  0.10608703847E+02  0.95538886812E+02  0.90883011081E+02 0.  0.
         11    1    3    3    0    0  0.12456266257E+01 -0.31452284463E+02 -0.11098416236E+02  0.33376228469E+02  0.51100000000E-03 0. -1.
         22    1    1    0    0    0  0.94629649486E+01 -0.25804357913E+02 -0.10608703847E+02  0.29461113188E+02  0.00000000000E+00 0.  1.
</event>
<event>
 5    1  0.8863861E-005  0.9118800E+02  0.7818608E-02  0.1130116E+00
         25   -1    0    0    0    0  0.00000000000E+00  0.00000000000E+00  0.99999998245E-14  0.12500000000E+03  0.12500000000E+03 0.  0.
        -11    1    3    3    0    0  0.42985525322E+02 -0.18482764180E+02 -0.64639456915E+01  0.47235056399E+02  0.51100000000E-03 0. -1.
         23    2    1    0    0    0  0.85634088781E+01  0.15283773275E+02 -0.21051491978E+02  0.97612210538E+02  0.93691262316E+02 0.  0.
         11    1    3    3    0    0 -0.34422116443E+02  0.33766537455E+02 -0.14587546287E+02  0.50377154138E+02  0.51100000000E-03 0.  1.
         22    1    1    0    0    0 -0.85634088781E+01 -0.15283773275E+02  0.21051491978E+02  0.27387789462E+02  0.00000000000E+00 0.  1.
</event>
<event>
 5    1  0.8863861E-005  0.9118800E+02  0.7818608E-02  0.1130116E+00
         25   -1    0    0    0    0  0.00000000000E+00  0.00000000000E+00  0.99999998245E-14  0.12500000000E+03  0.12500000000E+03 0.  0.
        -11    1    3    3    0    0  0.39894352133E+00  0.38718403945E+02 -0.30006298345E+01  0.38836551593E+02  0.51100000000E-03 0. -1.
         23    2    1    0    0    0 -0.34880573075E+02  0.20206100105E+01 -0.45517585240E+01  0.89765702100E+02  0.82561646816E+02 0.  0.
         11    1    3    3    0    0 -0.35279516596E+02 -0.36697793934E+02 -0.15511286895E+01  0.50929150507E+02  0.51100000000E-03 0.  1.
         22    1    1    0    0    0  0.34880573075E+02 -0.20206100105E+01  0.45517585240E+01  0.35234297900E+02  0.00000000000E+00 0.  1.
</event>
<event>
 5    1  0.8863861E-005  0.9118800E+02  0.7818608E-02  0.1130116E+00
         25   -1    0    0    0    0  0.00000000000E+00  0.00000000000E+00  0.99999998245E-14  0.12500000000E+03  0.12500000000E+03 0.  0.
        -11    1    3    3    0    0 -0.41870891446E+01  0.46013936263E+02  0.37233540867E+02  0.59339283882E+02  0.51100000000E-03 0. -1.
         23    2    1    0    0    0  0.51564345307E+01  0.28807887830E+02  0.77608959489E+01  0.94722702825E+02  0.89753416126E+02 0.  0.
         11    1    3    3    0    0  0.93435236753E+01 -0.17206048434E+02 -0.29472644918E+02  0.35383418943E+02  0.51100000000E-03 0.  1.
         22    1    1    0    0    0 -0.51564345307E+01 -0.28807887830E+02 -0.77608959489E+01  0.30277297175E+02  0.00000000000E+00 0. -1.
</event>
<event>
 5    1  0.8863861E-005  0.9118800E+02  0.7818608E-02  0.1130116E+00
         25   -1    0    0    0    0  0.00000000000E+00  0.00000000000E+00  0.99999998245E-14  0.12500000000E+03  0.12500000000E+03 0.  0.
        -11    1    3    3    0    0  0.24590666077E+02 -0.77938317880E+01  0.27120552221E+02  0.37429520770E+02  0.51100000000E-03 0. -1.
         23    2    1    0    0    0  0.63019310787E+01  0.24257917293E+02 -0.16824244438E+02  0.94813644016E+02  0.89879981107E+02 0.  0.
         11    1    3    3    0    0 -0.18288734998E+02  0.32051749081E+02 -0.43944796659E+02  0.57384123245E+02  0.51100000000E-03 0.  1.
         22    1    1    0    0    0 -0.63019310787E+01 -0.24257917293E+02  0.16824244438E+02  0.30186355984E+02  0.00000000000E+00 0.  1.
</event>
<event>
 5    1  0.8863861E-005  0.9118800E+02  0.7818608E-02  0.1130116E+00
         25   -1    0    0    0    0  0.00000000000E+00  0.00000000000E+00  0.99999998245E-14  0.12500000000E+03  0.12500000000E+03 0.  0.
        -11    1    3    3    0    0  0.39698683530E+02  0.39272510128E+02  0.25946206585E+02  0.61575329168E+02  0.51100000000E-03 0.  1.
         23    2    1    0    0    0  0.16108431940E+02  0.15650575905E+02  0.18788503088E+02  0.95718095109E+02  0.91129159863E+02 0.  0.
         11    1    3    3    0    0 -0.23590251589E+02 -0.23621934223E+02 -0.71577034970E+01  0.34142765941E+02  0.51100000000E-03 0. -1.
         22    1    1    0    0    0 -0.16108431940E+02 -0.15650575905E+02 -0.18788503088E+02  0.29281904891E+02  0.00000000000E+00 0.  1.
</event>
<event>
 5    1  0.8863861E-005  0.9118800E+02  0.7818608E-02  0.1130116E+00
         25   -1    0    0    0    0  0.00000000000E+00  0.00000000000E+00  0.99999998245E-14  0.12500000000E+03  0.12500000000E+03 0.  0.
        -11    1    3    3    0    0 -0.11745847115E+01 -0.14477526261E+02  0.57813370472E+02  0.59610101673E+02  0.51100000000E-03 0.  1.
         23    2    1    0    0    0  0.10494371445E+02  0.82395179825E+00  0.27918118176E+02  0.95163243288E+02  0.90364876042E+02 0.  0.
         11    1    3    3    0    0  0.11668956156E+02  0.15301478059E+02 -0.29895252296E+02  0.35553141615E+02  0.51100000000E-03 0. -1.
         22    1    1    0    0    0 -0.10494371445E+02 -0.82395179825E+00 -0.27918118176E+02  0.29836756712E+02  0.00000000000E+00 0.  1.
</event>
<event>
 5    1  0.8863861E-005  0.9118800E+02  0.7818608E-02  0.1130116E+00
         25   -1    0    0    0    0  0.00000000000E+00  0.00000000000E+00  0.99999998245E-14  0.12500000000E+03  0.12500000000E+03 0.  0.
        -11    1    3    3    0    0  0.24722967712E+02  0.44984915128E+01  0.46220344321E+02  0.52609711915E+02  0.51100000000E-03 0. -1.
         23    2    1    0    0    0 -0.97715106440E+01 -0.27903241770E+01  0.33341073374E+02  0.90144648861E+02  0.83133400119E+02 0.  0.
         11    1    3    3    0    0 -0.34494478356E+02 -0.72888156898E+01 -0.12879270947E+02  0.37534936947E+02  0.51100000000E-03 0.  1.
         22    1    1    0    0    0  0.97715106440E+01  0.27903241770E+01 -0.33341073374E+02  0.34855351139E+02  0.00000000000E+00 0. -1.
</event>
<event>
 5    1  0.8863861E-005  0.9118800E+02  0.7818608E-02  0.1130116E+00
         25   -1    0    0    0    0  0.00000000000E+00  0.00000000000E+00  0.99999998245E-14  0.12500000000E+03  0.12500000000E+03 0.  0.
        -11    1    3    3    0    0 -0.35815930157E+02  0.43309661902E+02 -0.24705078945E+01  0.56254876025E+02  0.51100000000E-03 0.  1.
         23    2    1    0    0    0 -0.26982925914E+02  0.36533280713E+01 -0.62637200089E+01  0.97059719307E+02  0.92951222836E+02 0.  0.
         11    1    3    3    0    0  0.88330042430E+01 -0.39656333830E+02 -0.37932121144E+01  0.40804843282E+02  0.51100000000E-03 0. -1.
         22    1    1    0    0    0  0.26982925914E+02 -0.36533280713E+01  0.62637200089E+01  0.27940280693E+02  0.00000000000E+00 0.  1.
</event>
<event>
 5    1  0.8863861E-005  0.9118800E+02  0.7818608E-02  0.1130116E+00
         25   -1    0    0    0    0  0.00000000000E+00  0.00000000000E+00  0.99999998245E-14  0.12500000000E+03  0.12500000000E+03 0.  0.
        -11    1    3    3    0    0  0.36919057549E+02 -0.48025764075E+02 -0.13029249875E+02  0.61961699281E+02  0.51100000000E-03 0.  1.
         23    2    1    0    0    0  0.12384329349E+02 -0.25160057251E+02 -0.76891572162E+01  0.95922117804E+02  0.91408585215E+02 0.  0.
         11    1    3    3    0    0 -0.24534728200E+02  0.22865706823E+02  0.53400926592E+01  0.33960418523E+02  0.51100000000E-03 0. -1.
         22    1    1    0    0    0 -0.12384329349E+02  0.25160057251E+02  0.76891572162E+01  0.29077882196E+02  0.00000000000E+00 0.  1.
</event>
<event>
 5    1  0.8863861E-005  0.9118800E+02  0.7818608E-02  0.1130116E+00
         25   -1    0    0    0    0  0.00000000000E+00  0.00000000000E+00  0.99999998245E-14  0.12500000000E+03  0.12500000000E+03 0.  0.
        -11    1    3    3    0    0 -0.27489576002E+02  0.68327098957E+01  0.22888459220E+02  0.36417636922E+02  0.51100000000E-03 0.  1.
         23    2    1    0    0    0  0.12353571023E+02 -0.24805243348E+02 -0.82745706894E+01  0.96079776372E+02  0.91623927514E+02 0.  0.
         11    1    3    3    0    0  0.39843147025E+02 -0.31637953244E+02 -0.31163029910E+02  0.59662139450E+02  0.51100000000E-03 0. -1.
         22    1    1    0    0    0 -0.12353571023E+02  0.24805243348E+02  0.82745706894E+01  0.28920223628E+02  0.00000000000E+00 0. -1.
</event>
<event>
 5    1  0.8863861E-005  0.9118800E+02  0.7818608E-02  0.1130116E+00
         25   -1    0    0    0    0  0.00000000000E+00  0.00000000000E+00  0.99999998245E-14  0.12500000000E+03  0.12500000000E+03 0.  0.
        -11    1    3    3    0    0  0.13915457056E+02  0.49034234740E+02  0.24646746967E+02  0.56616766579E+02  0.51100000000E-03 0.  1.
         23    2    1    0    0    0 -0.10872441044E+02  0.26590716639E+02  0.37985508245E+01  0.96022333186E+02  0.91545525813E+02 0.  0.
         11    1    3    3    0    0 -0.24787898099E+02 -0.22443518101E+02 -0.20848196143E+02  0.39405566606E+02  0.51100000000E-03 0. -1.
         22    1    1    0    0    0  0.10872441044E+02 -0.26590716639E+02 -0.37985508245E+01  0.28977666814E+02  0.00000000000E+00 0.  1.
</event>
<event>
 5    1  0.8863861E-005  0.9118800E+02  0.7818608E-02  0.1130116E+00
         25   -1    0    0    0    0  0.00000000000E+00  0.00000000000E+00  0.99999998245E-14  0.12500000000E+03  0.12500000000E+03 0.  0.
        -11    1    3    3    0    0 -0.42856837317E+01 -0.32380814427E+02  0.52766660341E+02  0.62058074992E+02  0.51100000000E-03 0.  1.
         23    2    1    0    0    0  0.21707357261E+01 -0.21382009124E+02  0.34990750009E+02  0.83935964714E+02  0.73205130821E+02 0.  0.
         11    1    3    3    0    0  0.64564194579E+01  0.10998805303E+02 -0.17775910332E+02  0.21877889722E+02  0.51100000000E-03 0. -1.
         22    1    1    0    0    0 -0.21707357261E+01  0.21382009124E+02 -0.34990750009E+02  0.41064035286E+02  0.00000000000E+00 0.  1.
</event>
<event>
 5    1  0.8863861E-005  0.9118800E+02  0.7818608E-02  0.1130116E+00
         25   -1    0    0    0    0  0.00000000000E+00  0.00000000000E+00  0.99999998245E-14  0.12500000000E+03  0.12500000000E+03 0.  0.
        -11    1    3    3    0    0 -0.51715787015E+02 -0.47546103504E+01  0.33617571574E+02  0.61864934050E+02  0.51100000000E-03 0.  1.
         23    2    1    0    0    0 -0.20158716768E+02 -0.64098095399E+01  0.18512725786E+02  0.96889849945E+02  0.92722502588E+02 0.  0.
         11    1    3    3    0    0  0.31557070247E+02 -0.16551991894E+01 -0.15104845787E+02  0.35024915895E+02  0.51100000000E-03 0. -1.
         22    1    1    0    0    0  0.20158716768E+02  0.64098095399E+01 -0.18512725786E+02  0.28110150055E+02  0.00000000000E+00 0.  1.
</event>
<event>
 5    1  0.8863861E-005  0.9118800E+02  0.7818608E-02  0.1130116E+00
         25   -1    0    0    0    0  0.00000000000E+00  0.00000000000E+00  0.99999998245E-14  0.12500000000E+03  0.12500000000E+03 0.  0.
        -11    1    3    3    0    0  0.10049513864E+01  0.30410594578E+02 -0.30692122986E+01  0.30581599930E+02  0.51100000000E-03 0.  1.
         23    2    1    0    0    0  0.13610789206E+02 -0.29843068303E+02 -0.41342325648E+00  0.92197054593E+02  0.86164166846E+02 0.  0.
         11    1    3    3    0    0  0.12605837819E+02 -0.60253662881E+02  0.26557890421E+01  0.61615454664E+02  0.51100000000E-03 0. -1.
         22    1    1    0    0    0 -0.13610789206E+02  0.29843068303E+02  0.41342325648E+00  0.32802945407E+02  0.00000000000E+00 0. -1.
</event>
<event>
 5    1  0.8863861E-005  0.9118800E+02  0.7818608E-02  0.1130116E+00
         25   -1    0    0    0    0  0.00000000000E+00  0.00000000000E+00  0.99999998245E-14  0.12500000000E+03  0.12500000000E+03 0.  0.
        -11    1    3    3    0    0  0.12595529553E+02  0.45211972093E+02  0.13420604585E+02  0.48814776584E+02  0.51100000000E-03 0.  1.
         23    2    1    0    0    0  0.18153157269E+02  0.11766051040E+02 -0.19355763581E+02  0.95972036591E+02  0.91476823008E+02 0.  0.
         11    1    3    3    0    0  0.55576277155E+01 -0.33445921053E+02 -0.32776368166E+02  0.47157260006E+02  0.51100000000E-03 0. -1.
         22    1    1    0    0    0 -0.18153157269E+02 -0.11766051040E+02  0.19355763581E+02  0.29027963409E+02  0.00000000000E+00 0. -1.
</event>
<event>
 5    1  0.8863861E-005  0.9118800E+02  0.7818608E-02  0.1130116E+00
         25   -1    0    0    0    0  0.00000000000E+00  0.00000000000E+00  0.99999998245E-14  0.12500000000E+03  0.12500000000E+03 0.  0.
        -11    1    3    3    0    0 -0.28032579233E+02  0.28058016034E+02  0.27236379871E+02  0.48113388479E+02  0.51100000000E-03 0. -1.
         23    2    1    0    0    0 -0.23464140296E+02  0.10224142533E+02 -0.15799379944E+02  0.94921446561E+02  0.90029781963E+02 0.  0.
         11    1    3    3    0    0  0.45684389365E+01 -0.17833873502E+02 -0.43035759814E+02  0.46808058082E+02  0.51100000000E-03 0.  1.
         22    1    1    0    0    0  0.23464140296E+02 -0.10224142533E+02  0.15799379944E+02  0.30078553439E+02  0.00000000000E+00 0. -1.
</event>
<event>
 5    1  0.8863861E-005  0.9118800E+02  0.7818608E-02  0.1130116E+00
         25   -1    0    0    0    0  0.00000000000E+00  0.00000000000E+00  0.99999998245E-14  0.12500000000E+03  0.12500000000E+03 0.  0.
        -11    1    3    3    0    0 -0.28402778943E+02 -0.15762202470E+01  0.44795509331E+02  0.53064488864E+02  0.51100000000E-03 0.  1.
         23    2    1    0    0    0 -0.95473198370E+00 -0.22024184502E+02  0.18318402825E+02  0.96337479207E+02  0.91974832437E+02 0.  0.
         11    1    3    3    0    0  0.27448046959E+02 -0.20447964255E+02 -0.26477106506E+02  0.43272990343E+02  0.51100000000E-03 0. -1.
         22    1    1    0    0    0  0.95473198370E+00  0.22024184502E+02 -0.18318402825E+02  0.28662520793E+02  0.00000000000E+00 0.  1.
</event>
<event>
 5    1  0.8863861E-005  0.9118800E+02  0.7818608E-02  0.1130116E+00
         25   -1    0    0    0    0  0.00000000000E+00  0.00000000000E+00  0.99999998245E-14  0.12500000000E+03  0.12500000000E+03 0.  0.
        -11    1    3    3    0    0 -0.33030038146E+02 -0.23866505537E+02 -0.29201348304E+02  0.50132945750E+02  0.51100000000E-03 0.  1.
         23    2    1    0    0    0  0.96904284205E+01 -0.66736845102E+01 -0.26197958260E+02  0.96281095340E+02  0.91898171009E+02 0.  0.
         11    1    3    3    0    0  0.42720466567E+02  0.17192821027E+02  0.30033900444E+01  0.46148149590E+02  0.51100000000E-03 0. -1.
         22    1    1    0    0    0 -0.96904284205E+01  0.66736845102E+01  0.26197958260E+02  0.28718904660E+02  0.00000000000E+00 0. -1.
</event>
<event>
 5    1  0.8863861E-005  0.9118800E+02  0.7818608E-02  0.1130116E+00
         25   -1    0    0    0    0  0.00000000000E+00  0.00000000000E+00  0.99999998245E-14  0.12500000000E+03  0.12500000000E+03 0.  0.
        -11    1    3    3    0    0  0.93828197780E+01 -0.39648255632E+02 -0.40428660043E+02  0.57397718028E+02  0.51100000000E-03 0. -1.
         23    2    1    0    0    0  0.16919923547E+02 -0.66108484468E+01 -0.23558764199E+02  0.95251008410E+02  0.90486198409E+02 0.  0.
         11    1    3    3    0    0  0.75371037692E+01  0.33037407185E+02  0.16869895844E+02  0.37853290383E+02  0.51100000000E-03 0.  1.
         22    1    1    0    0    0 -0.16919923547E+02  0.66108484468E+01  0.23558764199E+02  0.29748991590E+02  0.00000000000E+00 0. -1.
</event>
<event>
 5    1  0.8863861E-005  0.9118800E+02  0.7818608E-02  0.1130116E+00
         25   -1    0    0    0    0  0.00000000000E+00  0.00000000000E+00  0.99999998245E-14  0.12500000000E+03  0.12500000000E+03 0.  0.
        -11    1    3    3    0    0 -0.10157460360E+02  0.39207376999E+02  0.33651145098E+02  0.52657306984E+02  0.51100000000E-03 0. -1.
         23    2    1    0    0    0  0.19556769212E+02  0.10765117039E+02  0.16583739383E+02  0.97190372552E+02  0.93126758442E+02 0.  0.
         11    1    3    3    0    0  0.29714229573E+02 -0.28442259960E+02 -0.17067405715E+02  0.44533065568E+02  0.51100000000E-03 0.  1.
         22    1    1    0    0    0 -0.19556769212E+02 -0.10765117039E+02 -0.16583739383E+02  0.27809627448E+02  0.00000000000E+00 0. -1.
</event>
<event>
 5    1  0.8863861E-005  0.9118800E+02  0.7818608E-02  0.1130116E+00
         25   -1    0    0    0    0  0.00000000000E+00  0.00000000000E+00  0.99999998245E-14  0.12500000000E+03  0.12500000000E+03 0.  0.
        -11    1    3    3    0    0  0.12209978898E+01 -0.16395959049E+02  0.38282225255E+02  0.41663498170E+02  0.51100000000E-03 0. -1.
         23    2    1    0    0    0 -0.27749089496E+02  0.16127189182E+01 -0.49855725679E+01  0.96760510557E+02  0.92547974798E+02 0.  0.
         11    1    3    3    0    0 -0.28970087386E+02  0.18008677967E+02 -0.43267797823E+02  0.55097012387E+02  0.51100000000E-03 0.  1.
         22    1    1    0    0    0  0.27749089496E+02 -0.16127189182E+01  0.49855725679E+01  0.28239489443E+02  0.00000000000E+00 0.  1.
</event>
<event>
 5    1  0.8863861E-005  0.9118800E+02  0.7818608E-02  0.1130116E+00
         25   -1    0    0    0    0  0.00000000000E+00  0.00000000000E+00  0.99999998245E-14  0.12500000000E+03  0.12500000000E+03 0.  0.
        -11    1    3    3    0    0 -0.40876895257E+02 -0.62415593608E+01  0.47142200402E+01  0.41618523520E+02  0.51100000000E-03 0. -1.
         23    2    1    0    0    0  0.68697465901E+01 -0.21333405428E+02  0.21011501385E+02  0.94278821705E+02  0.89133077060E+02 0.  0.
         11    1    3    3    0    0  0.47746641848E+02 -0.15091846067E+02  0.16297281345E+02  0.52660298185E+02  0.51100000000E-03 0.  1.
         22    1    1    0    0    0 -0.68697465901E+01  0.21333405428E+02 -0.21011501385E+02  0.30721178295E+02  0.00000000000E+00 0.  1.
</event>
<event>
 5    1  0.8863861E-005  0.9118800E+02  0.7818608E-02  0.1130116E+00
         25   -1    0    0    0    0  0.00000000000E+00  0.00000000000E+00  0.99999998245E-14  0.12500000000E+03  0.12500000000E+03 0.  0.
        -11    1    3    3    0    0  0.47669007531E+02 -0.11891006386E+02  0.53013466645E+01  0.49414922731E+02  0.51100000000E-03 0. -1.
         23    2    1    0    0    0  0.18559619972E+02  0.21105503019E+02 -0.86812475082E+01  0.95584599111E+02  0.90945861796E+02 0.  0.
         11    1    3    3    0    0 -0.29109387559E+02  0.32996509405E+02 -0.13982594173E+02  0.46169676380E+02  0.51100000000E-03 0.  1.
         22    1    1    0    0    0 -0.18559619972E+02 -0.21105503019E+02  0.86812475082E+01  0.29415400889E+02  0.00000000000E+00 0. -1.
</event>
<event>
 5    1  0.8863861E-005  0.9118800E+02  0.7818608E-02  0.1130116E+00
         25   -1    0    0    0    0  0.00000000000E+00  0.00000000000E+00  0.99999998245E-14  0.12500000000E+03  0.12500000000E+03 0.  0.
        -11    1    3    3    0    0 -0.75107114431E+01 -0.38268281243E+01 -0.54176774685E+02  0.54828626787E+02  0.51100000000E-03 0.  1.
         23    2    1    0    0    0 -0.22108716221E+02 -0.95160629617E+01 -0.15993807263E+02  0.96100992093E+02  0.91652866966E+02 0.  0.
         11    1    3    3    0    0 -0.14598004778E+02 -0.56892348374E+01  0.38182967421E+02  0.41272365305E+02  0.51100000000E-03 0. -1.
         22    1    1    0    0    0  0.22108716221E+02  0.95160629617E+01  0.15993807263E+02  0.28899007907E+02  0.00000000000E+00 0. -1.
</event>
<event>
 5    1  0.8863861E-005  0.9118800E+02  0.7818608E-02  0.1130116E+00
         25   -1    0    0    0    0  0.00000000000E+00  0.00000000000E+00  0.99999998245E-14  0.12500000000E+03  0.12500000000E+03 0.  0.
        -11    1    3    3    0    0  0.24568123873E+02  0.27230861938E+02  0.47896403826E+02  0.60325600305E+02  0.51100000000E-03 0. -1.
         23    2    1    0    0    0  0.22030049579E+02  0.12296412612E+02  0.17476308691E+02  0.94308857743E+02  0.89175189575E+02 0.  0.
         11    1    3    3    0    0 -0.25380742936E+01 -0.14934449326E+02 -0.30420095135E+02  0.33983257438E+02  0.51100000000E-03 0.  1.
         22    1    1    0    0    0 -0.22030049579E+02 -0.12296412612E+02 -0.17476308691E+02  0.30691142257E+02  0.00000000000E+00 0. -1.
</event>
<event>
 5    1  0.8863861E-005  0.9118800E+02  0.7818608E-02  0.1130116E+00
         25   -1    0    0    0    0  0.00000000000E+00  0.00000000000E+00  0.99999998245E-14  0.12500000000E+03  0.12500000000E+03 0.  0.
        -11    1    3    3    0    0  0.21879940742E+02 -0.51400788025E+02 -0.94885154239E+01  0.56663963343E+02  0.51100000000E-03 0.  1.
         23    2    1    0    0    0  0.27471477440E+02 -0.36053348082E+02 -0.19318486460E+02  0.75728000855E+02  0.57506523228E+02 0.  0.
         11    1    3    3    0    0  0.55915366980E+01  0.15347439943E+02 -0.98299710358E+01  0.19064037513E+02  0.51100000000E-03 0. -1.
         22    1    1    0    0    0 -0.27471477440E+02  0.36053348082E+02  0.19318486460E+02  0.49271999145E+02  0.00000000000E+00 0.  1.
</event>
<event>
 5    1  0.8863861E-005  0.9118800E+02  0.7818608E-02  0.1130116E+00
         25   -1    0    0    0    0  0.00000000000E+00  0.00000000000E+00  0.99999998245E-14  0.12500000000E+03  0.12500000000E+03 0.  0.
        -11    1    3    3    0    0  0.27904578034E+02 -0.50728184893E+02 -0.37014535030E+01  0.58014782393E+02  0.51100000000E-03 0. -1.
         23    2    1    0    0    0  0.16784336139E+01 -0.27370205650E+02  0.10139709939E+02  0.95763738023E+02  0.91191745820E+02 0.  0.
         11    1    3    3    0    0 -0.26226144421E+02  0.23357979243E+02  0.13841163442E+02  0.37748955630E+02  0.51100000000E-03 0.  1.
         22    1    1    0    0    0 -0.16784336139E+01  0.27370205650E+02 -0.10139709939E+02  0.29236261977E+02  0.00000000000E+00 0. -1.
</event>
<event>
 5    1  0.8863861E-005  0.9118800E+02  0.7818608E-02  0.1130116E+00
         25   -1    0    0    0    0  0.00000000000E+00  0.00000000000E+00  0.99999998245E-14  0.12500000000E+03  0.12500000000E+03 0.  0.
        -11    1    3    3    0    0 -0.44918122845E+01 -0.69257243773E+01  0.38597737055E+02  0.39470588313E+02  0.51100000000E-03 0.  1.
         23    2    1    0    0    0 -0.30477572003E+02 -0.28488146433E+02  0.14997186498E+02  0.80667478244E+02  0.67393394045E+02 0.  0.
         11    1    3    3    0    0 -0.25985759719E+02 -0.21562422056E+02 -0.23600550557E+02  0.41196889930E+02  0.51100000000E-03 0. -1.
         22    1    1    0    0    0  0.30477572003E+02  0.28488146433E+02 -0.14997186498E+02  0.44332521756E+02  0.00000000000E+00 0. -1.
</event>
<event>
 5    1  0.8863861E-005  0.9118800E+02  0.7818608E-02  0.1130116E+00
         25   -1    0    0    0    0  0.00000000000E+00  0.00000000000E+00  0.99999998245E-14  0.12500000000E+03  0.12500000000E+03 0.  0.
        -11    1    3    3    0    0  0.15204565028E+02  0.47257224173E+02 -0.30374487414E+02  0.58198226092E+02  0.51100000000E-03 0.  1.
         23    2    1    0    0    0 -0.11133199112E+01  0.12417439302E+02 -0.25026559105E+02  0.97040011790E+02  0.92924716559E+02 0.  0.
         11    1    3    3    0    0 -0.16317884939E+02 -0.34839784872E+02  0.53479283089E+01  0.38841785699E+02  0.51100000000E-03 0. -1.
         22    1    1    0    0    0  0.11133199112E+01 -0.12417439302E+02  0.25026559105E+02  0.27959988210E+02  0.00000000000E+00 0.  1.
</event>
<event>
 5    1  0.8863861E-005  0.9118800E+02  0.7818608E-02  0.1130116E+00
         25   -1    0    0    0    0  0.00000000000E+00  0.00000000000E+00  0.99999998245E-14  0.12500000000E+03  0.12500000000E+03 0.  0.
        -11    1    3    3    0    0  0.47613175389E+01  0.14866085421E+01  0.59503896045E+02  0.59712593265E+02  0.51100000000E-03 0. -1.
         23    2    1    0    0    0  0.12288775580E+01  0.12441274127E+02  0.45363328831E+02  0.77945488584E+02  0.62139940022E+02 0.  0.
         11    1    3    3    0    0 -0.35324399809E+01  0.10954665585E+02 -0.14140567214E+02  0.18232895318E+02  0.51100000000E-03 0.  1.
         22    1    1    0    0    0 -0.12288775580E+01 -0.12441274127E+02 -0.45363328831E+02  0.47054511416E+02  0.00000000000E+00 0. -1.
</event>
<event>
 5    1  0.8863861E-005  0.9118800E+02  0.7818608E-02  0.1130116E+00
         25   -1    0    0    0    0  0.00000000000E+00  0.00000000000E+00  0.99999998245E-14  0.12500000000E+03  0.12500000000E+03 0.  0.
        -11    1    3    3    0    0  0.19479218312E+02  0.28002346507E+01  0.23535701809E+02  0.30679154487E+02  0.51100000000E-03 0.  1.
         23    2    1    0    0    0 -0.26971557822E+02 -0.18970152464E+02 -0.82254759834E+01  0.91014855142E+02  0.84431710782E+02 0.  0.
         11    1    3    3    0    0 -0.46450776134E+02 -0.21770387115E+02 -0.31761177792E+02  0.60335700655E+02  0.51100000000E-03 0. -1.
         22    1    1    0    0    0  0.26971557822E+02  0.18970152464E+02  0.82254759834E+01  0.33985144858E+02  0.00000000000E+00 0. -1.
</event>
<event>
 5    1  0.8863861E-005  0.9118800E+02  0.7818608E-02  0.1130116E+00
         25   -1    0    0    0    0  0.00000000000E+00  0.00000000000E+00  0.99999998245E-14  0.12500000000E+03  0.12500000000E+03 0.  0.
        -11    1    3    3    0    0 -0.34650287909E+02 -0.21115026735E+02 -0.38496473178E+02  0.55932685021E+02  0.51100000000E-03 0. -1.
         23    2    1    0    0    0 -0.28857256571E+02 -0.10096689027E+01 -0.46083809877E+01  0.95759653500E+02  0.91186146837E+02 0.  0.
         11    1    3    3    0    0  0.57930313377E+01  0.20105357833E+02  0.33888092191E+02  0.39826968479E+02  0.51100000000E-03 0.  1.
         22    1    1    0    0    0  0.28857256571E+02  0.10096689027E+01  0.46083809877E+01  0.29240346500E+02  0.00000000000E+00 0. -1.
</event>
<event>
 5    1  0.8863861E-005  0.9118800E+02  0.7818608E-02  0.1130116E+00
         25   -1    0    0    0    0  0.00000000000E+00  0.00000000000E+00  0.99999998245E-14  0.12500000000E+03  0.12500000000E+03 0.  0.
        -11    1    3    3    0    0  0.36423342619E+01  0.60690473382E+01  0.59681468926E+02  0.60099731014E+02  0.51100000000E-03 0. -1.
         23    2    1    0    0    0  0.81086276145E+01 -0.75534095012E+01  0.28603726504E+02  0.94324651481E+02  0.89197325465E+02 0.  0.
         11    1    3    3    0    0  0.44662933527E+01 -0.13622456839E+02 -0.31077742422E+02  0.34224920467E+02  0.51100000000E-03 0.  1.
         22    1    1    0    0    0 -0.81086276145E+01  0.75534095012E+01 -0.28603726504E+02  0.30675348519E+02  0.00000000000E+00 0. -1.
</event>
<event>
 5    1  0.8863861E-005  0.9118800E+02  0.7818608E-02  0.1130116E+00
         25   -1    0    0    0    0  0.00000000000E+00  0.00000000000E+00  0.99999998245E-14  0.12500000000E+03  0.12500000000E+03 0.  0.
        -11    1    3    3    0    0  0.15941468086E+02 -0.22562371488E+02 -0.27467954077E+02  0.38957406399E+02  0.51100000000E-03 0.  1.
         23    2    1    0    0    0  0.18343067474E+02  0.23447496820E+02  0.43006391901E+01  0.94920958644E+02  0.90029104521E+02 0.  0.
         11    1    3    3    0    0  0.24015993872E+01  0.46009868308E+02  0.31768593267E+02  0.55963552244E+02  0.51100000000E-03 0. -1.
         22    1    1    0    0    0 -0.18343067474E+02 -0.23447496820E+02 -0.43006391901E+01  0.30079041356E+02  0.00000000000E+00 0. -1.
</event>
<event>
 5    1  0.8863861E-005  0.9118800E+02  0.7818608E-02  0.1130116E+00
         25   -1    0    0    0    0  0.00000000000E+00  0.00000000000E+00  0.99999998245E-14  0.12500000000E+03  0.12500000000E+03 0.  0.
        -11    1    3    3    0    0  0.62756437123E+01  0.19473570360E+02 -0.56302191703E+02  0.59904427527E+02  0.51100000000E-03 0. -1.
         23    2    1    0    0    0 -0.23752218758E+01  0.19490105199E+02 -0.21000586621E+02  0.96250556213E+02  0.91856622261E+02 0.  0.
         11    1    3    3    0    0 -0.86508655880E+01  0.16534839178E-01  0.35301605082E+02  0.36346128686E+02  0.51100000000E-03 0.  1.
         22    1    1    0    0    0  0.23752218758E+01 -0.19490105199E+02  0.21000586621E+02  0.28749443787E+02  0.00000000000E+00 0. -1.
</event>
<event>
 5    1  0.8863861E-005  0.9118800E+02  0.7818608E-02  0.1130116E+00
         25   -1    0    0    0    0  0.00000000000E+00  0.00000000000E+00  0.99999998245E-14  0.12500000000E+03  0.12500000000E+03 0.  0.
        -11    1    3    3    0    0  0.35416899478E+01 -0.42366488884E+02  0.40126768766E+02  0.58460418403E+02  0.51100000000E-03 0. -1.
         23    2    1    0    0    0  0.58647997997E+01 -0.26268443709E+02  0.43836621731E+01  0.97730172248E+02  0.93848511241E+02 0.  0.
         11    1    3    3    0    0  0.23231098519E+01  0.16098045175E+02 -0.35743106593E+02  0.39269753845E+02  0.51100000000E-03 0.  1.
         22    1    1    0    0    0 -0.58647997997E+01  0.26268443709E+02 -0.43836621731E+01  0.27269827752E+02  0.00000000000E+00 0. -1.
</event>
<event>
 5    1  0.8863861E-005  0.9118800E+02  0.7818608E-02  0.1130116E+00
         25   -1    0    0    0    0  0.00000000000E+00  0.00000000000E+00  0.99999998245E-14  0.12500000000E+03  0.12500000000E+03 0.  0.
        -11    1    3    3    0    0  0.24269542499E+00 -0.11336697135E+02  0.51188129678E+02  0.52429039884E+02  0.51100000000E-03 0.  1.
         23    2    1    0    0    0 -0.23727494458E+02 -0.86262923212E+01  0.15937436192E+02  0.95143530269E+02  0.90337603285E+02 0.  0.
         11    1    3    3    0    0 -0.23970189883E+02  0.27104048139E+01 -0.35250693486E+02  0.42714490384E+02  0.51100000000E-03 0. -1.
         22    1    1    0    0    0  0.23727494458E+02  0.86262923212E+01 -0.15937436192E+02  0.29856469731E+02  0.00000000000E+00 0. -1.
</event>
<event>
 5    1  0.8863861E-005  0.9118800E+02  0.7818608E-02  0.1130116E+00
         25   -1    0    0    0    0  0.00000000000E+00  0.00000000000E+00  0.99999998245E-14  0.12500000000E+03  0.12500000000E+03 0.  0.
        -11    1    3    3    0    0  0.23076386657E+02 -0.25328674781E+02  0.33823725637E+01  0.34431117201E+02  0.51100000000E-03 0.  1.
         23    2    1    0    0    0 -0.17720350970E+02  0.20666539282E+02  0.93841494673E+01  0.96204532551E+02  0.91793971140E+02 0.  0.
         11    1    3    3    0    0 -0.40796737627E+02  0.45995214063E+02  0.60017769036E+01  0.61773415350E+02  0.51100000000E-03 0. -1.
         22    1    1    0    0    0  0.17720350970E+02 -0.20666539282E+02 -0.93841494673E+01  0.28795467449E+02  0.00000000000E+00 0. -1.
</event>
<event>
 5    1  0.8863861E-005  0.9118800E+02  0.7818608E-02  0.1130116E+00
         25   -1    0    0    0    0  0.00000000000E+00  0.00000000000E+00  0.99999998245E-14  0.12500000000E+03  0.12500000000E+03 0.  0.
        -11    1    3    3    0    0 -0.10521574024E+02 -0.42596579910E+02 -0.10700454880E+01  0.43889829546E+02  0.51100000000E-03 0.  1.
         23    2    1    0    0    0  0.24599352296E+02 -0.83084993136E+01  0.14344480941E+02  0.95336496706E+02  0.90604217211E+02 0.  0.
         11    1    3    3    0    0  0.35120926320E+02  0.34288080596E+02  0.15414526429E+02  0.51446667160E+02  0.51100000000E-03 0. -1.
         22    1    1    0    0    0 -0.24599352296E+02  0.83084993136E+01 -0.14344480941E+02  0.29663503294E+02  0.00000000000E+00 0. -1.
</event>
<event>
 5    1  0.8863861E-005  0.9118800E+02  0.7818608E-02  0.1130116E+00
         25   -1    0    0    0    0  0.00000000000E+00  0.00000000000E+00  0.99999998245E-14  0.12500000000E+03  0.12500000000E+03 0.  0.
        -11    1    3    3    0    0 -0.19209411092E+02  0.30930931898E+02  0.17811484424E+02  0.40533603346E+02  0.51100000000E-03 0.  1.
         23    2    1    0    0    0 -0.17779058009E+02 -0.41468155394E+01 -0.23818074547E+02  0.94990140654E+02  0.90125108397E+02 0.  0.
         11    1    3    3    0    0  0.14303530828E+01 -0.35077747437E+02 -0.41629558971E+02  0.54456537308E+02  0.51100000000E-03 0. -1.
         22    1    1    0    0    0  0.17779058009E+02  0.41468155394E+01  0.23818074547E+02  0.30009859346E+02  0.00000000000E+00 0. -1.
</event>
<event>
 5    1  0.8863861E-005  0.9118800E+02  0.7818608E-02  0.1130116E+00
         25   -1    0    0    0    0  0.00000000000E+00  0.00000000000E+00  0.99999998245E-14  0.12500000000E+03  0.12500000000E+03 0.  0.
        -11    1    3    3    0    0 -0.27985261615E+02  0.14533268956E+02  0.95232275433E+01  0.32940592546E+02  0.51100000000E-03 0.  1.
         23    2    1    0    0    0  0.28627377961E+02 -0.24430590861E+01 -0.90225601254E+01  0.94885188065E+02  0.89979425517E+02 0.  0.
         11    1    3    3    0    0  0.56612639576E+02 -0.16976328042E+02 -0.18545787669E+02  0.61944595519E+02  0.51100000000E-03 0. -1.
         22    1    1    0    0    0 -0.28627377961E+02  0.24430590861E+01  0.90225601254E+01  0.30114811935E+02  0.00000000000E+00 0. -1.
</event>
<event>
 5    1  0.8863861E-005  0.9118800E+02  0.7818608E-02  0.1130116E+00
         25   -1    0    0    0    0  0.00000000000E+00  0.00000000000E+00  0.99999998245E-14  0.12500000000E+03  0.12500000000E+03 0.  0.
        -11    1    3    3    0    0  0.57576282037E+02 -0.21581982000E+02  0.12420478318E+01  0.61500836444E+02  0.51100000000E-03 0.  1.
         23    2    1    0    0    0  0.22733556174E+02 -0.16655198922E+02 -0.13536937249E+01  0.96785771069E+02  0.92582086644E+02 0.  0.
         11    1    3    3    0    0 -0.34842725862E+02  0.49267830783E+01 -0.25957415567E+01  0.35284934625E+02  0.51100000000E-03 0. -1.
         22    1    1    0    0    0 -0.22733556174E+02  0.16655198922E+02  0.13536937249E+01  0.28214228931E+02  0.00000000000E+00 0.  1.
</event>
<event>
 5    1  0.8863861E-005  0.9118800E+02  0.7818608E-02  0.1130116E+00
         25   -1    0    0    0    0  0.00000000000E+00  0.00000000000E+00  0.99999998245E-14  0.12500000000E+03  0.12500000000E+03 0.  0.
        -11    1    3    3    0    0  0.29198287822E+02  0.35078838230E+02 -0.25150181550E+02  0.52111385853E+02  0.51100000000E-03 0. -1.
         23    2    1    0    0    0 -0.13118261956E+01  0.31109031236E+02  0.28772671703E+01  0.93730663922E+02  0.88360998073E+02 0.  0.
         11    1    3    3    0    0 -0.30510114018E+02 -0.39698069945E+01  0.28027448720E+02  0.41619278069E+02  0.51100000000E-03 0.  1.
         22    1    1    0    0    0  0.13118261956E+01 -0.31109031236E+02 -0.28772671703E+01  0.31269336078E+02  0.00000000000E+00 0. -1.
</event>
<event>
 5    1  0.8863861E-005  0.9118800E+02  0.7818608E-02  0.1130116E+00
         25   -1    0    0    0    0  0.00000000000E+00  0.00000000000E+00  0.99999998245E-14  0.12500000000E+03  0.12500000000E+03 0.  0.
        -11    1    3    3    0    0 -0.11721614082E+02 -0.45669845935E+02 -0.23177267656E+02  0.52538717159E+02  0.51100000000E-03 0.  1.
         23    2    1    0    0    0  0.12393010121E+02 -0.24538685981E+02  0.70671399570E+01  0.96615527542E+02  0.92351945759E+02 0.  0.
         11    1    3    3    0    0  0.24114624203E+02  0.21131159953E+02  0.30244407613E+02  0.44076810383E+02  0.51100000000E-03 0. -1.
         22    1    1    0    0    0 -0.12393010121E+02  0.24538685981E+02 -0.70671399570E+01  0.28384472458E+02  0.00000000000E+00 0.  1.
</event>
<event>
 5    1  0.8863861E-005  0.9118800E+02  0.7818608E-02  0.1130116E+00
         25   -1    0    0    0    0  0.00000000000E+00  0.00000000000E+00  0.99999998245E-14  0.12500000000E+03  0.12500000000E+03 0.  0.
        -11    1    3    3    0    0  0.54346694963E+01 -0.23083065480E+01  0.32311708029E+02  0.32846771343E+02  0.51100000000E-03 0.  1.
         23    2    1    0    0    0  0.12345607589E+01  0.33027149819E+01 -0.29618519794E+02  0.95172348712E+02  0.90377470523E+02 0.  0.
         11    1    3    3    0    0 -0.42001087375E+01  0.56110215299E+01 -0.61930227823E+02  0.62325577370E+02  0.51100000000E-03 0. -1.
         22    1    1    0    0    0 -0.12345607589E+01 -0.33027149819E+01  0.29618519794E+02  0.29827651288E+02  0.00000000000E+00 0. -1.
</event>
<event>
 5    1  0.8863861E-005  0.9118800E+02  0.7818608E-02  0.1130116E+00
         25   -1    0    0    0    0  0.00000000000E+00  0.00000000000E+00  0.99999998245E-14  0.12500000000E+03  0.12500000000E+03 0.  0.
        -11    1    3    3    0    0 -0.27113886036E+01  0.25414023706E+02 -0.41266562321E+02  0.48540224506E+02  0.51100000000E-03 0.  1.
         23    2    1    0    0    0  0.10745170478E+01  0.28208485482E+02  0.60830489080E+01  0.96123076271E+02  0.91682981342E+02 0.  0.
         11    1    3    3    0    0  0.37859056513E+01  0.27944617756E+01  0.47349611229E+02  0.47582851764E+02  0.51100000000E-03 0. -1.
         22    1    1    0    0    0 -0.10745170478E+01 -0.28208485482E+02 -0.60830489080E+01  0.28876923729E+02  0.00000000000E+00 0.  1.
</event>
<event>
 5    1  0.8863861E-005  0.9118800E+02  0.7818608E-02  0.1130116E+00
         25   -1    0    0    0    0  0.00000000000E+00  0.00000000000E+00  0.99999998245E-14  0.12500000000E+03  0.12500000000E+03 0.  0.
        -11    1    3    3    0    0 -0.18263584430E+02  0.24808618596E+02  0.97749476092E+00  0.30821771025E+02  0.51100000000E-03 0.  1.
         23    2    1    0    0    0 -0.36385044315E+02 -0.50076531369E+01  0.31066597997E+02  0.76895098474E+02  0.59989787618E+02 0.  0.
         11    1    3    3    0    0 -0.18121459885E+02 -0.29816271732E+02  0.30089103236E+02  0.46073327449E+02  0.51100000000E-03 0. -1.
         22    1    1    0    0    0  0.36385044315E+02  0.50076531369E+01 -0.31066597997E+02  0.48104901526E+02  0.00000000000E+00 0. -1.
</event>
<event>
 5    1  0.8863861E-005  0.9118800E+02  0.7818608E-02  0.1130116E+00
         25   -1    0    0    0    0  0.00000000000E+00  0.00000000000E+00  0.99999998245E-14  0.12500000000E+03  0.12500000000E+03 0.  0.
        -11    1    3    3    0    0  0.23469660654E+02  0.58933139972E+01 -0.23107373196E+02  0.33459031925E+02  0.51100000000E-03 0. -1.
         23    2    1    0    0    0 -0.20015587601E+02 -0.45672262949E+01  0.20544401454E+02  0.95955969045E+02  0.91454864612E+02 0.  0.
         11    1    3    3    0    0 -0.43485248255E+02 -0.10460540292E+02  0.43651774650E+02  0.62496937120E+02  0.51100000000E-03 0.  1.
         22    1    1    0    0    0  0.20015587601E+02  0.45672262949E+01 -0.20544401454E+02  0.29044030955E+02  0.00000000000E+00 0.  1.
</event>
<event>
 5    1  0.8863861E-005  0.9118800E+02  0.7818608E-02  0.1130116E+00
         25   -1    0    0    0    0  0.00000000000E+00  0.00000000000E+00  0.99999998245E-14  0.12500000000E+03  0.12500000000E+03 0.  0.
        -11    1    3    3    0    0 -0.23358820678E+02 -0.15986207034E+02 -0.24317586995E+02  0.37316730247E+02  0.51100000000E-03 0.  1.
         23    2    1    0    0    0 -0.10076360488E+02  0.31354748332E+02 -0.23876276953E+00  0.92065059719E+02  0.85972466114E+02 0.  0.
         11    1    3    3    0    0  0.13282460191E+02  0.47340955366E+02  0.24078824225E+02  0.54748329472E+02  0.51100000000E-03 0. -1.
         22    1    1    0    0    0  0.10076360488E+02 -0.31354748332E+02  0.23876276953E+00  0.32934940281E+02  0.00000000000E+00 0. -1.
</event>
<event>
 5    1  0.8863861E-005  0.9118800E+02  0.7818608E-02  0.1130116E+00
         25   -1    0    0    0    0  0.00000000000E+00  0.00000000000E+00  0.99999998245E-14  0.12500000000E+03  0.12500000000E+03 0.  0.
        -11    1    3    3    0    0 -0.30911559591E+02  0.19412162615E+02  0.12762822535E+00  0.36501683016E+02  0.51100000000E-03 0.  1.
         23    2    1    0    0    0  0.35422954066E+01 -0.22322322885E+02  0.20654334431E+02  0.94382431734E+02  0.89278261259E+02 0.  0.
         11    1    3    3    0    0  0.34453854998E+02 -0.41734485501E+02  0.20526706205E+02  0.57880748718E+02  0.51100000000E-03 0. -1.
         22    1    1    0    0    0 -0.35422954066E+01  0.22322322885E+02 -0.20654334431E+02  0.30617568266E+02  0.00000000000E+00 0. -1.
</event>
<event>
 5    1  0.8863861E-005  0.9118800E+02  0.7818608E-02  0.1130116E+00
         25   -1    0    0    0    0  0.00000000000E+00  0.00000000000E+00  0.99999998245E-14  0.12500000000E+03  0.12500000000E+03 0.  0.
        -11    1    3    3    0    0 -0.30127760112E+02 -0.41239681334E+02 -0.23177113360E+02  0.56085397653E+02  0.51100000000E-03 0. -1.
         23    2    1    0    0    0  0.42316670408E+01 -0.27226142563E+02 -0.69608252294E+01  0.96581292558E+02  0.92305596469E+02 0.  0.
         11    1    3    3    0    0  0.34359427153E+02  0.14013538771E+02  0.16216288131E+02  0.40495894905E+02  0.51100000000E-03 0.  1.
         22    1    1    0    0    0 -0.42316670408E+01  0.27226142563E+02  0.69608252294E+01  0.28418707442E+02  0.00000000000E+00 0. -1.
</event>
<event>
 5    1  0.8863861E-005  0.9118800E+02  0.7818608E-02  0.1130116E+00
         25   -1    0    0    0    0  0.00000000000E+00  0.00000000000E+00  0.99999998245E-14  0.12500000000E+03  0.12500000000E+03 0.  0.
        -11    1    3    3    0    0 -0.32092539341E+02 -0.86585135563E+01 -0.30841584753E+01  0.33382824508E+02  0.51100000000E-03 0.  1.
         23    2    1    0    0    0  0.27503298834E+02 -0.12776711248E+02  0.67681201061E+01  0.93927773707E+02  0.88639401096E+02 0.  0.
         11    1    3    3    0    0  0.59595838175E+02 -0.41181976918E+01  0.98522785815E+01  0.60544949199E+02  0.51100000000E-03 0. -1.
         22    1    1    0    0    0 -0.27503298834E+02  0.12776711248E+02 -0.67681201061E+01  0.31072226293E+02  0.00000000000E+00 0. -1.
</event>
<event>
 5    1  0.8863861E-005  0.9118800E+02  0.7818608E-02  0.1130116E+00
         25   -1    0    0    0    0  0.00000000000E+00  0.00000000000E+00  0.99999998245E-14  0.12500000000E+03  0.12500000000E+03 0.  0.
        -11    1    3    3    0    0 -0.15544619567E+02  0.32541583553E+02  0.20794239815E+02  0.41629199697E+02  0.51100000000E-03 0.  1.
         23    2    1    0    0    0 -0.16858711096E+02  0.36500254754E+01 -0.24299500458E+02  0.95200594832E+02  0.90416528954E+02 0.  0.
         11    1    3    3    0    0 -0.13140915297E+01 -0.28891558078E+02 -0.45093740273E+02  0.53571395136E+02  0.51100000000E-03 0. -1.
         22    1    1    0    0    0  0.16858711096E+02 -0.36500254754E+01  0.24299500458E+02  0.29799405168E+02  0.00000000000E+00 0. -1.
</event>
<event>
 5    1  0.8863861E-005  0.9118800E+02  0.7818608E-02  0.1130116E+00
         25   -1    0    0    0    0  0.00000000000E+00  0.00000000000E+00  0.99999998245E-14  0.12500000000E+03  0.12500000000E+03 0.  0.
        -11    1    3    3    0    0  0.23047382483E+01 -0.11263269552E+02 -0.37516221411E+02  0.39238245738E+02  0.51100000000E-03 0. -1.
         23    2    1    0    0    0  0.18098815747E+02  0.21968219864E+02  0.56744462168E+01  0.95976403474E+02  0.91482790012E+02 0.  0.
         11    1    3    3    0    0  0.15794077499E+02  0.33231489416E+02  0.43190667628E+02  0.56738157736E+02  0.51100000000E-03 0.  1.
         22    1    1    0    0    0 -0.18098815747E+02 -0.21968219864E+02 -0.56744462168E+01  0.29023596526E+02  0.00000000000E+00 0.  1.
</event>
<event>
 5    1  0.8863861E-005  0.9118800E+02  0.7818608E-02  0.1130116E+00
         25   -1    0    0    0    0  0.00000000000E+00  0.00000000000E+00  0.99999998245E-14  0.12500000000E+03  0.12500000000E+03 0.  0.
        -11    1    3    3    0    0  0.23907323359E+02  0.24247490851E+02  0.47167090729E+02  0.58174181308E+02  0.51100000000E-03 0.  1.
         23    2    1    0    0    0  0.52965607356E+00  0.23320947999E+02  0.18177963894E+02  0.95426607864E+02  0.90728451799E+02 0.  0.
         11    1    3    3    0    0 -0.23377667285E+02 -0.92654285241E+00 -0.28989126835E+02  0.37252426555E+02  0.51100000000E-03 0. -1.
         22    1    1    0    0    0 -0.52965607356E+00 -0.23320947999E+02 -0.18177963894E+02  0.29573392136E+02  0.00000000000E+00 0.  1.
</event>
<event>
 4    1  0.8863861E-005  0.9118800E+02  0.7818608E-02  0.1130116E+00
         25   -1    0    0    0    0  0.00000000000E+00  0.00000000000E+00  0.99999998245E-14  0.12500000000E+03  0.12500000000E+03 0.  0.
        -11    1    1    0    0    0 -0.31539192785E+02 -0.17151602649E+02  0.19418515412E+01  0.35953705548E+02  0.51100000000E-03 0.  1.
         11    1    1    0    0    0 -0.13899878220E+02 -0.19100505266E+02 -0.16874064679E+02  0.29030500770E+02  0.51100000000E-03 0. -1.
         22    1    1    0    0    0  0.45439071005E+02  0.36252107915E+02  0.14932213138E+02  0.60015793682E+02  0.00000000000E+00 0.  1.
</event>
<event>
 5    1  0.8863861E-005  0.9118800E+02  0.7818608E-02  0.1130116E+00
         25   -1    0    0    0    0  0.00000000000E+00  0.00000000000E+00  0.99999998245E-14  0.12500000000E+03  0.12500000000E+03 0.  0.
        -11    1    3    3    0    0  0.58887681241E+00 -0.13095495117E+02 -0.31641439786E+02  0.34249371968E+02  0.51100000000E-03 0.  1.
         23    2    1    0    0    0  0.23850473802E+02  0.17468045878E+02  0.12623121795E+02  0.92854690369E+02  0.87112987507E+02 0.  0.
         11    1    3    3    0    0  0.23261596990E+02  0.30563540995E+02  0.44264561581E+02  0.58605318401E+02  0.51100000000E-03 0. -1.
         22    1    1    0    0    0 -0.23850473802E+02 -0.17468045878E+02 -0.12623121795E+02  0.32145309631E+02  0.00000000000E+00 0. -1.
</event>
<event>
 5    1  0.8863861E-005  0.9118800E+02  0.7818608E-02  0.1130116E+00
         25   -1    0    0    0    0  0.00000000000E+00  0.00000000000E+00  0.99999998245E-14  0.12500000000E+03  0.12500000000E+03 0.  0.
        -11    1    3    3    0    0 -0.19840492368E+02 -0.20849131114E+02  0.43122751813E+02  0.51844991367E+02  0.51100000000E-03 0.  1.
         23    2    1    0    0    0  0.71015734669E+01 -0.27494662209E+02  0.10379094277E+02  0.94765675240E+02  0.89813244068E+02 0.  0.
         11    1    3    3    0    0  0.26942065835E+02 -0.66455310950E+01 -0.32743657537E+02  0.42920683873E+02  0.51100000000E-03 0. -1.
         22    1    1    0    0    0 -0.71015734669E+01  0.27494662209E+02 -0.10379094277E+02  0.30234324760E+02  0.00000000000E+00 0.  1.
</event>
<event>
 5    1  0.8863861E-005  0.9118800E+02  0.7818608E-02  0.1130116E+00
         25   -1    0    0    0    0  0.00000000000E+00  0.00000000000E+00  0.99999998245E-14  0.12500000000E+03  0.12500000000E+03 0.  0.
        -11    1    3    3    0    0 -0.12452730057E+02 -0.27048966275E+01  0.50860362569E+02  0.52432465445E+02  0.51100000000E-03 0.  1.
         23    2    1    0    0    0  0.19093803132E+02  0.31005789619E+01  0.23249224531E+02  0.94755771637E+02  0.89799459404E+02 0.  0.
         11    1    3    3    0    0  0.31546533189E+02  0.58054755894E+01 -0.27611138038E+02  0.42323306193E+02  0.51100000000E-03 0. -1.
         22    1    1    0    0    0 -0.19093803132E+02 -0.31005789619E+01 -0.23249224531E+02  0.30244228363E+02  0.00000000000E+00 0.  1.
</event>
<event>
 5    1  0.8863861E-005  0.9118800E+02  0.7818608E-02  0.1130116E+00
         25   -1    0    0    0    0  0.00000000000E+00  0.00000000000E+00  0.99999998245E-14  0.12500000000E+03  0.12500000000E+03 0.  0.
        -11    1    3    3    0    0 -0.23378670446E+02  0.35787875076E+02 -0.24151915254E+01  0.42815504022E+02  0.51100000000E-03 0.  1.
         23    2    1    0    0    0 -0.23411541156E+02 -0.16519843438E+02 -0.75333604316E+01  0.95373035830E+02  0.90654613548E+02 0.  0.
         11    1    3    3    0    0 -0.32870709840E-01 -0.52307718514E+02 -0.51181689063E+01  0.52557531809E+02  0.51100000000E-03 0. -1.
         22    1    1    0    0    0  0.23411541156E+02  0.16519843438E+02  0.75333604316E+01  0.29626964170E+02  0.00000000000E+00 0.  1.
</event>
<event>
 5    1  0.8863861E-005  0.9118800E+02  0.7818608E-02  0.1130116E+00
         25   -1    0    0    0    0  0.00000000000E+00  0.00000000000E+00  0.99999998245E-14  0.12500000000E+03  0.12500000000E+03 0.  0.
        -11    1    3    3    0    0 -0.12879733547E+02 -0.42868735571E+02 -0.32223767558E+02  0.55154213090E+02  0.51100000000E-03 0. -1.
         23    2    1    0    0    0  0.15047068288E+02 -0.21586950357E+02 -0.92781716416E+01  0.97098473899E+02  0.93003325074E+02 0.  0.
         11    1    3    3    0    0  0.27926801834E+02  0.21281785214E+02  0.22945595916E+02  0.41944260809E+02  0.51100000000E-03 0.  1.
         22    1    1    0    0    0 -0.15047068288E+02  0.21586950357E+02  0.92781716416E+01  0.27901526101E+02  0.00000000000E+00 0. -1.
</event>
<event>
 5    1  0.8863861E-005  0.9118800E+02  0.7818608E-02  0.1130116E+00
         25   -1    0    0    0    0  0.00000000000E+00  0.00000000000E+00  0.99999998245E-14  0.12500000000E+03  0.12500000000E+03 0.  0.
        -11    1    3    3    0    0 -0.20292652191E+02 -0.40686001584E+01  0.33636501504E+02  0.39493790320E+02  0.51100000000E-03 0.  1.
         23    2    1    0    0    0 -0.14613103619E+02 -0.12315362608E+02 -0.21904843953E+02  0.95930546236E+02  0.91420110254E+02 0.  0.
         11    1    3    3    0    0  0.56795485717E+01 -0.82467624498E+01 -0.55541345457E+02  0.56436755915E+02  0.51100000000E-03 0. -1.
         22    1    1    0    0    0  0.14613103619E+02  0.12315362608E+02  0.21904843953E+02  0.29069453764E+02  0.00000000000E+00 0. -1.
</event>
<event>
 5    1  0.8863861E-005  0.9118800E+02  0.7818608E-02  0.1130116E+00
         25   -1    0    0    0    0  0.00000000000E+00  0.00000000000E+00  0.99999998245E-14  0.12500000000E+03  0.12500000000E+03 0.  0.
        -11    1    3    3    0    0  0.18632328256E+02  0.23028050103E+02 -0.29065786176E+02  0.41500297277E+02  0.51100000000E-03 0. -1.
         23    2    1    0    0    0 -0.19386315439E+02  0.20514423301E+02  0.90155096864E+01  0.95369775489E+02  0.90650117884E+02 0.  0.
         11    1    3    3    0    0 -0.38018643695E+02 -0.25136268019E+01  0.38081295862E+02  0.53869478213E+02  0.51100000000E-03 0.  1.
         22    1    1    0    0    0  0.19386315439E+02 -0.20514423301E+02 -0.90155096864E+01  0.29630224511E+02  0.00000000000E+00 0.  1.
</event>
<event>
 5    1  0.8863861E-005  0.9118800E+02  0.7818608E-02  0.1130116E+00
         25   -1    0    0    0    0  0.00000000000E+00  0.00000000000E+00  0.99999998245E-14  0.12500000000E+03  0.12500000000E+03 0.  0.
        -11    1    3    3    0    0  0.13803130353E+02  0.35537861208E+02  0.27726041866E+02  0.47140209849E+02  0.51100000000E-03 0. -1.
         23    2    1    0    0    0 -0.17993572885E+02 -0.72639928861E+01  0.63933876444E+01  0.10456939395E+03  0.10255412468E+03 0.  0.
         11    1    3    3    0    0 -0.31796703238E+02 -0.42801854094E+02 -0.21332654221E+02  0.57429184106E+02  0.51100000000E-03 0.  1.
         22    1    1    0    0    0  0.17993572885E+02  0.72639928861E+01 -0.63933876444E+01  0.20430606045E+02  0.00000000000E+00 0.  1.
</event>
<event>
 5    1  0.8863861E-005  0.9118800E+02  0.7818608E-02  0.1130116E+00
         25   -1    0    0    0    0  0.00000000000E+00  0.00000000000E+00  0.99999998245E-14  0.12500000000E+03  0.12500000000E+03 0.  0.
        -11    1    3    3    0    0 -0.48659559945E+02  0.24009419402E+02  0.20650664884E+02  0.58057341952E+02  0.51100000000E-03 0.  1.
         23    2    1    0    0    0 -0.98826152420E+01  0.21516471982E+02  0.14040441550E+02  0.97472583676E+02  0.93504790887E+02 0.  0.
         11    1    3    3    0    0  0.38776944703E+02 -0.24929474192E+01 -0.66102233346E+01  0.39415241724E+02  0.51100000000E-03 0. -1.
         22    1    1    0    0    0  0.98826152420E+01 -0.21516471982E+02 -0.14040441550E+02  0.27527416324E+02  0.00000000000E+00 0.  1.
</event>
<event>
 5    1  0.8863861E-005  0.9118800E+02  0.7818608E-02  0.1130116E+00
         25   -1    0    0    0    0  0.00000000000E+00  0.00000000000E+00  0.99999998245E-14  0.12500000000E+03  0.12500000000E+03 0.  0.
        -11    1    3    3    0    0 -0.32617057323E+02  0.40019603934E+02 -0.23886133124E+02  0.56885749387E+02  0.51100000000E-03 0.  1.
         23    2    1    0    0    0 -0.10004027419E+02  0.84292877148E+01 -0.26106967922E+02  0.95798848823E+02  0.91239860837E+02 0.  0.
         11    1    3    3    0    0  0.22613029904E+02 -0.31590316219E+02 -0.22208347982E+01  0.38913099436E+02  0.51100000000E-03 0. -1.
         22    1    1    0    0    0  0.10004027419E+02 -0.84292877148E+01  0.26106967922E+02  0.29201151177E+02  0.00000000000E+00 0.  1.
</event>
<event>
 5    1  0.8863861E-005  0.9118800E+02  0.7818608E-02  0.1130116E+00
         25   -1    0    0    0    0  0.00000000000E+00  0.00000000000E+00  0.99999998245E-14  0.12500000000E+03  0.12500000000E+03 0.  0.
        -11    1    3    3    0    0 -0.53991220838E+02 -0.57477944001E+01  0.25251741457E+02  0.59881044704E+02  0.51100000000E-03 0.  1.
         23    2    1    0    0    0 -0.19654588874E+02 -0.14311851187E+02  0.13618044401E+02  0.97132759708E+02  0.93049395093E+02 0.  0.
         11    1    3    3    0    0  0.34336631964E+02 -0.85640567865E+01 -0.11633697056E+02  0.37251715004E+02  0.51100000000E-03 0. -1.
         22    1    1    0    0    0  0.19654588874E+02  0.14311851187E+02 -0.13618044401E+02  0.27867240292E+02  0.00000000000E+00 0.  1.
</event>
<event>
 5    1  0.8863861E-005  0.9118800E+02  0.7818608E-02  0.1130116E+00
         25   -1    0    0    0    0  0.00000000000E+00  0.00000000000E+00  0.99999998245E-14  0.12500000000E+03  0.12500000000E+03 0.  0.
        -11    1    3    3    0    0  0.10610249429E+02 -0.23333094653E+02  0.53226366910E+02  0.59076702969E+02  0.51100000000E-03 0. -1.
         23    2    1    0    0    0 -0.77120129850E+01 -0.17363329960E+02  0.20540996793E+02  0.97019776255E+02  0.92897492236E+02 0.  0.
         11    1    3    3    0    0 -0.18322262414E+02  0.59697646937E+01 -0.32685370117E+02  0.37943073286E+02  0.51100000000E-03 0.  1.
         22    1    1    0    0    0  0.77120129850E+01  0.17363329960E+02 -0.20540996793E+02  0.27980223745E+02  0.00000000000E+00 0. -1.
</event>
<event>
 5    1  0.8863861E-005  0.9118800E+02  0.7818608E-02  0.1130116E+00
         25   -1    0    0    0    0  0.00000000000E+00  0.00000000000E+00  0.99999998245E-14  0.12500000000E+03  0.12500000000E+03 0.  0.
        -11    1    3    3    0    0  0.34752120917E+02  0.13320941081E+02  0.16655603070E+02  0.40774581462E+02  0.51100000000E-03 0.  1.
         23    2    1    0    0    0 -0.66386729231E+01  0.17330320304E+02 -0.21070456721E+02  0.96921963629E+02  0.92765785218E+02 0.  0.
         11    1    3    3    0    0 -0.41390793841E+02  0.40093792234E+01 -0.37726059791E+02  0.56147382166E+02  0.51100000000E-03 0. -1.
         22    1    1    0    0    0  0.66386729231E+01 -0.17330320304E+02  0.21070456721E+02  0.28078036371E+02  0.00000000000E+00 0. -1.
</event>
<event>
 5    1  0.8863861E-005  0.9118800E+02  0.7818608E-02  0.1130116E+00
         25   -1    0    0    0    0  0.00000000000E+00  0.00000000000E+00  0.99999998245E-14  0.12500000000E+03  0.12500000000E+03 0.  0.
        -11    1    3    3    0    0 -0.39039053552E+02  0.16209340143E+02  0.33400519622E+01  0.42402197555E+02  0.51100000000E-03 0.  1.
         23    2    1    0    0    0  0.13546158850E+02  0.25739781029E+02  0.92446049309E+00  0.95898636214E+02  0.91376468818E+02 0.  0.
         11    1    3    3    0    0  0.52585212402E+02  0.95304408854E+01 -0.24155914691E+01  0.53496438659E+02  0.51100000000E-03 0. -1.
         22    1    1    0    0    0 -0.13546158850E+02 -0.25739781029E+02 -0.92446049309E+00  0.29101363786E+02  0.00000000000E+00 0. -1.
</event>
<event>
 5    1  0.8863861E-005  0.9118800E+02  0.7818608E-02  0.1130116E+00
         25   -1    0    0    0    0  0.00000000000E+00  0.00000000000E+00  0.99999998245E-14  0.12500000000E+03  0.12500000000E+03 0.  0.
        -11    1    3    3    0    0  0.19281346913E+02  0.26664911182E+01  0.87106530552E+01  0.21325008572E+02  0.51100000000E-03 0.  1.
         23    2    1    0    0    0 -0.65306176406E+01  0.49381295671E+02  0.16522611203E+01  0.75161347373E+02  0.56261326354E+02 0.  0.
         11    1    3    3    0    0 -0.25811964554E+02  0.46714804553E+02 -0.70583919348E+01  0.53836338801E+02  0.51100000000E-03 0. -1.
         22    1    1    0    0    0  0.65306176406E+01 -0.49381295671E+02 -0.16522611203E+01  0.49838652627E+02  0.00000000000E+00 0.  1.
</event>
<event>
 5    1  0.8863861E-005  0.9118800E+02  0.7818608E-02  0.1130116E+00
         25   -1    0    0    0    0  0.00000000000E+00  0.00000000000E+00  0.99999998245E-14  0.12500000000E+03  0.12500000000E+03 0.  0.
        -11    1    3    3    0    0  0.21763703610E+02  0.55706463030E+01 -0.29069101069E+02  0.36738311505E+02  0.51100000000E-03 0.  1.
         23    2    1    0    0    0  0.47687137849E+01  0.65323930419E+01  0.27772407621E+02  0.96073897340E+02  0.91615906561E+02 0.  0.
         11    1    3    3    0    0 -0.16994989825E+02  0.96174673891E+00  0.56841508690E+02  0.59335585835E+02  0.51100000000E-03 0. -1.
         22    1    1    0    0    0 -0.47687137849E+01 -0.65323930419E+01 -0.27772407621E+02  0.28926102660E+02  0.00000000000E+00 0. -1.
</event>
<event>
 5    1  0.8863861E-005  0.9118800E+02  0.7818608E-02  0.1130116E+00
         25   -1    0    0    0    0  0.00000000000E+00  0.00000000000E+00  0.99999998245E-14  0.12500000000E+03  0.12500000000E+03 0.  0.
        -11    1    3    3    0    0 -0.31796853215E+02 -0.40098449077E+02 -0.51805773042E+01  0.51436989358E+02  0.51100000000E-03 0. -1.
         23    2    1    0    0    0 -0.19958404480E+02  0.20029150730E+01 -0.19069332457E+02  0.97323493383E+02  0.93305269657E+02 0.  0.
         11    1    3    3    0    0  0.11838448734E+02  0.42101364150E+02 -0.13888755152E+02  0.45886504025E+02  0.51100000000E-03 0.  1.
         22    1    1    0    0    0  0.19958404480E+02 -0.20029150730E+01  0.19069332457E+02  0.27676506617E+02  0.00000000000E+00 0. -1.
</event>
<event>
 5    1  0.8863861E-005  0.9118800E+02  0.7818608E-02  0.1130116E+00
         25   -1    0    0    0    0  0.00000000000E+00  0.00000000000E+00  0.99999998245E-14  0.12500000000E+03  0.12500000000E+03 0.  0.
        -11    1    3    3    0    0  0.48725616905E+02 -0.46786111909E+01 -0.34894602307E+02  0.60114128255E+02  0.51100000000E-03 0.  1.
         23    2    1    0    0    0  0.14948326034E+02 -0.75036918552E+01 -0.24057151559E+02  0.95699754544E+02  0.91103999012E+02 0.  0.
         11    1    3    3    0    0 -0.33777290871E+02 -0.28250806643E+01  0.10837450748E+02  0.35585626288E+02  0.51100000000E-03 0. -1.
         22    1    1    0    0    0 -0.14948326034E+02  0.75036918552E+01  0.24057151559E+02  0.29300245456E+02  0.00000000000E+00 0.  1.
</event>
<event>
 5    1  0.8863861E-005  0.9118800E+02  0.7818608E-02  0.1130116E+00
         25   -1    0    0    0    0  0.00000000000E+00  0.00000000000E+00  0.99999998245E-14  0.12500000000E+03  0.12500000000E+03 0.  0.
        -11    1    3    3    0    0 -0.23277210940E+02 -0.19531749834E+01 -0.18128658107E+02  0.29568423811E+02  0.51100000000E-03 0.  1.
         23    2    1    0    0    0 -0.31733164202E+02 -0.31744393210E+02  0.17543965676E+02  0.76807770936E+02  0.59807547467E+02 0.  0.
         11    1    3    3    0    0 -0.84559532614E+01 -0.29791218227E+02  0.35672623782E+02  0.47239347125E+02  0.51100000000E-03 0. -1.
         22    1    1    0    0    0  0.31733164202E+02  0.31744393210E+02 -0.17543965676E+02  0.48192229064E+02  0.00000000000E+00 0. -1.
</event>
<event>
 5    1  0.8863861E-005  0.9118800E+02  0.7818608E-02  0.1130116E+00
         25   -1    0    0    0    0  0.00000000000E+00  0.00000000000E+00  0.99999998245E-14  0.12500000000E+03  0.12500000000E+03 0.  0.
        -11    1    3    3    0    0 -0.15054365051E+02 -0.21432659553E+01 -0.58201794646E+02  0.60155435302E+02  0.51100000000E-03 0.  1.
         23    2    1    0    0    0 -0.18025068647E+01  0.72989170110E+01 -0.38804787619E+02  0.85473619408E+02  0.75785254845E+02 0.  0.
         11    1    3    3    0    0  0.13251858186E+02  0.94421829663E+01  0.19397007027E+02  0.25318184106E+02  0.51100000000E-03 0. -1.
         22    1    1    0    0    0  0.18025068647E+01 -0.72989170110E+01  0.38804787619E+02  0.39526380592E+02  0.00000000000E+00 0.  1.
</event>
<event>
 5    1  0.8863861E-005  0.9118800E+02  0.7818608E-02  0.1130116E+00
         25   -1    0    0    0    0  0.00000000000E+00  0.00000000000E+00  0.99999998245E-14  0.12500000000E+03  0.12500000000E+03 0.  0.
        -11    1    3    3    0    0  0.33118057383E+02 -0.44485977884E+02  0.59793020711E+01  0.55781358953E+02  0.51100000000E-03 0.  1.
         23    2    1    0    0    0  0.28874302628E+02 -0.76305244964E+01 -0.55345869133E+01  0.94625966540E+02  0.89618589784E+02 0.  0.
         11    1    3    3    0    0 -0.42437547550E+01  0.36855453387E+02 -0.11513888984E+02  0.38844607587E+02  0.51100000000E-03 0. -1.
         22    1    1    0    0    0 -0.28874302628E+02  0.76305244964E+01  0.55345869133E+01  0.30374033460E+02  0.00000000000E+00 0.  1.
</event>
<event>
 5    1  0.8863861E-005  0.9118800E+02  0.7818608E-02  0.1130116E+00
         25   -1    0    0    0    0  0.00000000000E+00  0.00000000000E+00  0.99999998245E-14  0.12500000000E+03  0.12500000000E+03 0.  0.
        -11    1    3    3    0    0  0.21463850153E+02 -0.11335970211E+02 -0.32716494118E+02  0.40737821145E+02  0.51100000000E-03 0. -1.
         23    2    1    0    0    0 -0.25874253097E+02 -0.11261338036E+02 -0.30188872598E+01  0.96620282102E+02  0.92358380916E+02 0.  0.
         11    1    3    3    0    0 -0.47338103250E+02  0.74632174623E-01  0.29697606858E+02  0.55882460957E+02  0.51100000000E-03 0.  1.
         22    1    1    0    0    0  0.25874253097E+02  0.11261338036E+02  0.30188872598E+01  0.28379717898E+02  0.00000000000E+00 0.  1.
</event>
<event>
 5    1  0.8863861E-005  0.9118800E+02  0.7818608E-02  0.1130116E+00
         25   -1    0    0    0    0  0.00000000000E+00  0.00000000000E+00  0.99999998245E-14  0.12500000000E+03  0.12500000000E+03 0.  0.
        -11    1    3    3    0    0 -0.16399887721E+02  0.36760876416E+02  0.46919569336E+02  0.61820420081E+02  0.51100000000E-03 0.  1.
         23    2    1    0    0    0 -0.97533537208E+01  0.13144272090E+02  0.27015517347E+02  0.93413009401E+02  0.87910479183E+02 0.  0.
         11    1    3    3    0    0  0.66465340005E+01 -0.23616604325E+02 -0.19904051989E+02  0.31592589320E+02  0.51100000000E-03 0. -1.
         22    1    1    0    0    0  0.97533537208E+01 -0.13144272090E+02 -0.27015517347E+02  0.31586990599E+02  0.00000000000E+00 0.  1.
</event>
<event>
 5    1  0.8863861E-005  0.9118800E+02  0.7818608E-02  0.1130116E+00
         25   -1    0    0    0    0  0.00000000000E+00  0.00000000000E+00  0.99999998245E-14  0.12500000000E+03  0.12500000000E+03 0.  0.
        -11    1    3    3    0    0  0.17049886006E+02  0.30665069499E+02  0.10684391105E+02  0.36676986159E+02  0.51100000000E-03 0. -1.
         23    2    1    0    0    0  0.19980625084E+02 -0.24265660427E+02 -0.31805788725E+01  0.93406270611E+02  0.87900896769E+02 0.  0.
         11    1    3    3    0    0  0.29307390789E+01 -0.54930729926E+02 -0.13864969977E+02  0.56729284452E+02  0.51100000000E-03 0.  1.
         22    1    1    0    0    0 -0.19980625084E+02  0.24265660427E+02  0.31805788725E+01  0.31593729389E+02  0.00000000000E+00 0.  1.
</event>
<event>
 5    1  0.8863861E-005  0.9118800E+02  0.7818608E-02  0.1130116E+00
         25   -1    0    0    0    0  0.00000000000E+00  0.00000000000E+00  0.99999998245E-14  0.12500000000E+03  0.12500000000E+03 0.  0.
        -11    1    3    3    0    0  0.91030212149E+01  0.34723687177E+02  0.13221688511E+02  0.38254574809E+02  0.51100000000E-03 0. -1.
         23    2    1    0    0    0 -0.28359956516E+02  0.32645351565E+02  0.21543862782E+02  0.76687018970E+02  0.59554636617E+02 0.  0.
         11    1    3    3    0    0 -0.37462977731E+02 -0.20783356122E+01  0.83221742708E+01  0.38432444162E+02  0.51100000000E-03 0.  1.
         22    1    1    0    0    0  0.28359956516E+02 -0.32645351565E+02 -0.21543862782E+02  0.48312981030E+02  0.00000000000E+00 0. -1.
</event>
<event>
 5    1  0.8863861E-005  0.9118800E+02  0.7818608E-02  0.1130116E+00
         25   -1    0    0    0    0  0.00000000000E+00  0.00000000000E+00  0.99999998245E-14  0.12500000000E+03  0.12500000000E+03 0.  0.
        -11    1    3    3    0    0  0.21746693452E+02 -0.35297646331E+02 -0.40482968791E+02  0.57945778750E+02  0.51100000000E-03 0. -1.
         23    2    1    0    0    0 -0.56563259485E+01 -0.13393643674E+02 -0.24531871468E+02  0.96483400767E+02  0.92172936330E+02 0.  0.
         11    1    3    3    0    0 -0.27403019400E+02  0.21904002657E+02  0.15951097323E+02  0.38537622017E+02  0.51100000000E-03 0.  1.
         22    1    1    0    0    0  0.56563259485E+01  0.13393643674E+02  0.24531871468E+02  0.28516599233E+02  0.00000000000E+00 0. -1.
</event>
<event>
 5    1  0.8863861E-005  0.9118800E+02  0.7818608E-02  0.1130116E+00
         25   -1    0    0    0    0  0.00000000000E+00  0.00000000000E+00  0.99999998245E-14  0.12500000000E+03  0.12500000000E+03 0.  0.
        -11    1    3    3    0    0  0.32665392920E+02  0.79207787580E+01 -0.72174347990E+01  0.34378161616E+02  0.51100000000E-03 0. -1.
         23    2    1    0    0    0 -0.23685287150E+02 -0.36589167974E+01  0.15750127028E+02  0.96321663213E+02  0.91953334921E+02 0.  0.
         11    1    3    3    0    0 -0.56350680070E+02 -0.11579695555E+02  0.22967561827E+02  0.61943501597E+02  0.51100000000E-03 0.  1.
         22    1    1    0    0    0  0.23685287150E+02  0.36589167974E+01 -0.15750127028E+02  0.28678336787E+02  0.00000000000E+00 0.  1.
</event>
<event>
 5    1  0.8863861E-005  0.9118800E+02  0.7818608E-02  0.1130116E+00
         25   -1    0    0    0    0  0.00000000000E+00  0.00000000000E+00  0.99999998245E-14  0.12500000000E+03  0.12500000000E+03 0.  0.
        -11    1    3    3    0    0 -0.26325611120E+02 -0.48387655387E+02 -0.80298755507E+01  0.55667601855E+02  0.51100000000E-03 0. -1.
         23    2    1    0    0    0 -0.29062775520E+02 -0.10883638627E+02 -0.82603624741E+00  0.93955180037E+02  0.88678041302E+02 0.  0.
         11    1    3    3    0    0 -0.27371643999E+01  0.37504016760E+02  0.72038393033E+01  0.38287578182E+02  0.51100000000E-03 0.  1.
         22    1    1    0    0    0  0.29062775520E+02  0.10883638627E+02  0.82603624741E+00  0.31044819963E+02  0.00000000000E+00 0. -1.
</event>
<event>
 5    1  0.8863861E-005  0.9118800E+02  0.7818608E-02  0.1130116E+00
         25   -1    0    0    0    0  0.00000000000E+00  0.00000000000E+00  0.99999998245E-14  0.12500000000E+03  0.12500000000E+03 0.  0.
        -11    1    3    3    0    0  0.40221303369E+02 -0.92090204179E+01  0.21801050361E+02  0.46667387958E+02  0.51100000000E-03 0.  1.
         23    2    1    0    0    0 -0.47785262836E+01 -0.25929320669E+02  0.13476345070E+02  0.95389598783E+02  0.90677448661E+02 0.  0.
         11    1    3    3    0    0 -0.44999829652E+02 -0.16720300251E+02 -0.83247052909E+01  0.48722210825E+02  0.51100000000E-03 0. -1.
         22    1    1    0    0    0  0.47785262836E+01  0.25929320669E+02 -0.13476345070E+02  0.29610401217E+02  0.00000000000E+00 0. -1.
</event>
<event>
 5    1  0.8863861E-005  0.9118800E+02  0.7818608E-02  0.1130116E+00
         25   -1    0    0    0    0  0.00000000000E+00  0.00000000000E+00  0.99999998245E-14  0.12500000000E+03  0.12500000000E+03 0.  0.
        -11    1    3    3    0    0 -0.18846157337E+02 -0.35378332503E+02 -0.25930751930E+02  0.47741051026E+02  0.51100000000E-03 0.  1.
         23    2    1    0    0    0  0.13015741933E+02  0.69607442461E+00 -0.26049278873E+02  0.95871680662E+02  0.91339587067E+02 0.  0.
         11    1    3    3    0    0  0.31861899270E+02  0.36074406928E+02 -0.11852694211E+00  0.48130629636E+02  0.51100000000E-03 0. -1.
         22    1    1    0    0    0 -0.13015741933E+02 -0.69607442461E+00  0.26049278873E+02  0.29128319338E+02  0.00000000000E+00 0.  1.
</event>
<event>
 5    1  0.8863861E-005  0.9118800E+02  0.7818608E-02  0.1130116E+00
         25   -1    0    0    0    0  0.00000000000E+00  0.00000000000E+00  0.99999998245E-14  0.12500000000E+03  0.12500000000E+03 0.  0.
        -11    1    3    3    0    0  0.85108981677E+01  0.22557739093E+02 -0.32524300309E+02  0.40486011059E+02  0.51100000000E-03 0.  1.
         23    2    1    0    0    0 -0.17516806988E+02 -0.20876543913E+02 -0.91841804086E+01  0.96242083132E+02  0.91845091230E+02 0.  0.
         11    1    3    3    0    0 -0.26027705155E+02 -0.43434283006E+02  0.23340119900E+02  0.55756072074E+02  0.51100000000E-03 0. -1.
         22    1    1    0    0    0  0.17516806988E+02  0.20876543913E+02  0.91841804086E+01  0.28757916868E+02  0.00000000000E+00 0. -1.
</event>
<event>
 5    1  0.8863861E-005  0.9118800E+02  0.7818608E-02  0.1130116E+00
         25   -1    0    0    0    0  0.00000000000E+00  0.00000000000E+00  0.99999998245E-14  0.12500000000E+03  0.12500000000E+03 0.  0.
        -11    1    3    3    0    0 -0.12714657075E+02  0.54006217144E+02  0.41575814392E+01  0.55638291476E+02  0.51100000000E-03 0.  1.
         23    2    1    0    0    0 -0.26414759747E+02  0.35394874701E+02  0.10502497496E+02  0.79603533824E+02  0.65390239762E+02 0.  0.
         11    1    3    3    0    0 -0.13700102672E+02 -0.18611342443E+02  0.63449160563E+01  0.23965242348E+02  0.51100000000E-03 0. -1.
         22    1    1    0    0    0  0.26414759747E+02 -0.35394874701E+02 -0.10502497496E+02  0.45396466176E+02  0.00000000000E+00 0.  1.
</event>
<event>
 5    1  0.8863861E-005  0.9118800E+02  0.7818608E-02  0.1130116E+00
         25   -1    0    0    0    0  0.00000000000E+00  0.00000000000E+00  0.99999998245E-14  0.12500000000E+03  0.12500000000E+03 0.  0.
        -11    1    3    3    0    0 -0.21086950202E+02 -0.40904438364E+02 -0.18534602514E+02  0.49612135988E+02  0.51100000000E-03 0.  1.
         23    2    1    0    0    0  0.16582903172E+02 -0.12244223688E+02 -0.19026576873E+02  0.96947828625E+02  0.92800631228E+02 0.  0.
         11    1    3    3    0    0  0.37669853373E+02  0.28660214676E+02 -0.49197435929E+00  0.47335692637E+02  0.51100000000E-03 0. -1.
         22    1    1    0    0    0 -0.16582903172E+02  0.12244223688E+02  0.19026576873E+02  0.28052171375E+02  0.00000000000E+00 0.  1.
</event>
<event>
 5    1  0.8863861E-005  0.9118800E+02  0.7818608E-02  0.1130116E+00
         25   -1    0    0    0    0  0.00000000000E+00  0.00000000000E+00  0.99999998245E-14  0.12500000000E+03  0.12500000000E+03 0.  0.
        -11    1    3    3    0    0 -0.16181560558E+01 -0.28344334243E+02  0.19222987652E+02  0.34286192079E+02  0.51100000000E-03 0.  1.
         23    2    1    0    0    0 -0.12057617232E+02  0.26711477654E+02 -0.48850660300E+01  0.95288839775E+02  0.90538444562E+02 0.  0.
         11    1    3    3    0    0 -0.10439461177E+02  0.55055811897E+02 -0.24108053682E+02  0.61002647696E+02  0.51100000000E-03 0. -1.
         22    1    1    0    0    0  0.12057617232E+02 -0.26711477654E+02  0.48850660300E+01  0.29711160225E+02  0.00000000000E+00 0. -1.
</event>
<event>
 5    1  0.8863861E-005  0.9118800E+02  0.7818608E-02  0.1130116E+00
         25   -1    0    0    0    0  0.00000000000E+00  0.00000000000E+00  0.99999998245E-14  0.12500000000E+03  0.12500000000E+03 0.  0.
        -11    1    3    3    0    0  0.33474070254E+02  0.25040043939E+02  0.26971802936E+01  0.41890237068E+02  0.51100000000E-03 0.  1.
         23    2    1    0    0    0 -0.20371954302E+02  0.20658598366E+02  0.19770890753E+01  0.95919025296E+02  0.91404356155E+02 0.  0.
         11    1    3    3    0    0 -0.53846024555E+02 -0.43814455733E+01 -0.72009121826E+00  0.54028788228E+02  0.51100000000E-03 0. -1.
         22    1    1    0    0    0  0.20371954302E+02 -0.20658598366E+02 -0.19770890753E+01  0.29080974704E+02  0.00000000000E+00 0. -1.
</event>
<event>
 5    1  0.8863861E-005  0.9118800E+02  0.7818608E-02  0.1130116E+00
         25   -1    0    0    0    0  0.00000000000E+00  0.00000000000E+00  0.99999998245E-14  0.12500000000E+03  0.12500000000E+03 0.  0.
        -11    1    3    3    0    0 -0.17474008904E+02  0.78080238851E+01 -0.31401650035E+02  0.36774581566E+02  0.51100000000E-03 0. -1.
         23    2    1    0    0    0  0.19491956902E+02  0.23371939745E+02  0.85525709195E+01  0.93387812150E+02  0.87874643883E+02 0.  0.
         11    1    3    3    0    0  0.36965965806E+02  0.15563915860E+02  0.39954220954E+02  0.56613230584E+02  0.51100000000E-03 0.  1.
         22    1    1    0    0    0 -0.19491956902E+02 -0.23371939745E+02 -0.85525709195E+01  0.31612187850E+02  0.00000000000E+00 0. -1.
</event>
<event>
 5    1  0.8863861E-005  0.9118800E+02  0.7818608E-02  0.1130116E+00
         25   -1    0    0    0    0  0.00000000000E+00  0.00000000000E+00  0.99999998245E-14  0.12500000000E+03  0.12500000000E+03 0.  0.
        -11    1    3    3    0    0 -0.62260161685E+01  0.31596909411E+02  0.41114296870E+02  0.52225600706E+02  0.51100000000E-03 0. -1.
         23    2    1    0    0    0  0.22206333724E+02  0.13081920098E+02  0.13921422550E+02  0.95707272289E+02  0.91114313214E+02 0.  0.
         11    1    3    3    0    0  0.28432349893E+02 -0.18514989313E+02 -0.27192874320E+02  0.43481671584E+02  0.51100000000E-03 0.  1.
         22    1    1    0    0    0 -0.22206333724E+02 -0.13081920098E+02 -0.13921422550E+02  0.29292727711E+02  0.00000000000E+00 0. -1.
</event>
<event>
 5    1  0.8863861E-005  0.9118800E+02  0.7818608E-02  0.1130116E+00
         25   -1    0    0    0    0  0.00000000000E+00  0.00000000000E+00  0.99999998245E-14  0.12500000000E+03  0.12500000000E+03 0.  0.
        -11    1    3    3    0    0 -0.35831569703E+02  0.35093334513E+02  0.21483298983E+01  0.50200187611E+02  0.51100000000E-03 0.  1.
         23    2    1    0    0    0 -0.34937477314E+02 -0.18171698970E+01 -0.91993421880E+01  0.88826013156E+02  0.81126464789E+02 0.  0.
         11    1    3    3    0    0  0.89409238940E+00 -0.36910504410E+02 -0.11347672086E+02  0.38625825545E+02  0.51100000000E-03 0. -1.
         22    1    1    0    0    0  0.34937477314E+02  0.18171698970E+01  0.91993421880E+01  0.36173986844E+02  0.00000000000E+00 0.  1.
</event>
<event>
 5    1  0.8863861E-005  0.9118800E+02  0.7818608E-02  0.1130116E+00
         25   -1    0    0    0    0  0.00000000000E+00  0.00000000000E+00  0.99999998245E-14  0.12500000000E+03  0.12500000000E+03 0.  0.
        -11    1    3    3    0    0  0.46167034617E+02  0.33396586640E+01 -0.33086291655E+02  0.56896846143E+02  0.51100000000E-03 0.  1.
         23    2    1    0    0    0  0.15661273885E+02  0.19471125229E+02 -0.14958357005E+02  0.95876939348E+02  0.91346783398E+02 0.  0.
         11    1    3    3    0    0 -0.30505760732E+02  0.16131466565E+02  0.18127934649E+02  0.38980093205E+02  0.51100000000E-03 0. -1.
         22    1    1    0    0    0 -0.15661273885E+02 -0.19471125229E+02  0.14958357005E+02  0.29123060652E+02  0.00000000000E+00 0.  1.
</event>
<event>
 5    1  0.8863861E-005  0.9118800E+02  0.7818608E-02  0.1130116E+00
         25   -1    0    0    0    0  0.00000000000E+00  0.00000000000E+00  0.99999998245E-14  0.12500000000E+03  0.12500000000E+03 0.  0.
        -11    1    3    3    0    0 -0.51999879634E+01 -0.34463489451E+02  0.27680452809E+02  0.44508195290E+02  0.51100000000E-03 0.  1.
         23    2    1    0    0    0 -0.82864196009E+01  0.15079426723E+02  0.25554617910E+02  0.94192657424E+02  0.89012158473E+02 0.  0.
         11    1    3    3    0    0 -0.30864316374E+01  0.49542916174E+02 -0.21258348989E+01  0.49684462134E+02  0.51100000000E-03 0. -1.
         22    1    1    0    0    0  0.82864196009E+01 -0.15079426723E+02 -0.25554617910E+02  0.30807342576E+02  0.00000000000E+00 0.  1.
</event>
<event>
 5    1  0.8863861E-005  0.9118800E+02  0.7818608E-02  0.1130116E+00
         25   -1    0    0    0    0  0.00000000000E+00  0.00000000000E+00  0.99999998245E-14  0.12500000000E+03  0.12500000000E+03 0.  0.
        -11    1    3    3    0    0  0.32257486270E+02  0.32907723420E+00  0.50593275958E+02  0.60002777308E+02  0.51100000000E-03 0.  1.
         23    2    1    0    0    0  0.64946418064E+01  0.87799287133E+01  0.26741719873E+02  0.96114240495E+02  0.91670933909E+02 0.  0.
         11    1    3    3    0    0 -0.25762844464E+02  0.84508514791E+01 -0.23851556084E+02  0.36111463187E+02  0.51100000000E-03 0. -1.
         22    1    1    0    0    0 -0.64946418064E+01 -0.87799287133E+01 -0.26741719873E+02  0.28885759505E+02  0.00000000000E+00 0.  1.
</event>
<event>
 5    1  0.8863861E-005  0.9118800E+02  0.7818608E-02  0.1130116E+00
         25   -1    0    0    0    0  0.00000000000E+00  0.00000000000E+00  0.99999998245E-14  0.12500000000E+03  0.12500000000E+03 0.  0.
        -11    1    3    3    0    0 -0.35907087543E+02  0.20854685171E+01  0.48320577857E+01  0.36290727431E+02  0.51100000000E-03 0. -1.
         23    2    1    0    0    0  0.16801117192E+02  0.23474865894E+02 -0.88693341810E+01  0.94800464301E+02  0.89861649635E+02 0.  0.
         11    1    3    3    0    0  0.52708204735E+02  0.21389397377E+02 -0.13701391967E+02  0.58509736870E+02  0.51100000000E-03 0.  1.
         22    1    1    0    0    0 -0.16801117192E+02 -0.23474865894E+02  0.88693341810E+01  0.30199535699E+02  0.00000000000E+00 0.  1.
</event>
<event>
 5    1  0.8863861E-005  0.9118800E+02  0.7818608E-02  0.1130116E+00
         25   -1    0    0    0    0  0.00000000000E+00  0.00000000000E+00  0.99999998245E-14  0.12500000000E+03  0.12500000000E+03 0.  0.
        -11    1    3    3    0    0  0.34758540099E+02 -0.17523263082E+01 -0.39741885714E+02  0.52826548607E+02  0.51100000000E-03 0. -1.
         23    2    1    0    0    0 -0.11940352289E+01  0.15879068119E+02 -0.24720885214E+02  0.95594342547E+02  0.90959252617E+02 0.  0.
         11    1    3    3    0    0 -0.35952575328E+02  0.17631394428E+02  0.15021000500E+02  0.42767793940E+02  0.51100000000E-03 0.  1.
         22    1    1    0    0    0  0.11940352289E+01 -0.15879068119E+02  0.24720885214E+02  0.29405657453E+02  0.00000000000E+00 0. -1.
</event>
<event>
 5    1  0.8863861E-005  0.9118800E+02  0.7818608E-02  0.1130116E+00
         25   -1    0    0    0    0  0.00000000000E+00  0.00000000000E+00  0.99999998245E-14  0.12500000000E+03  0.12500000000E+03 0.  0.
        -11    1    3    3    0    0  0.76491796023E+01  0.29367927012E+02 -0.18156376316E+02  0.35364375956E+02  0.51100000000E-03 0.  1.
         23    2    1    0    0    0 -0.22316047047E+02 -0.19378215060E+02  0.15977121848E+00  0.95444176520E+02  0.90752653570E+02 0.  0.
         11    1    3    3    0    0 -0.29965226650E+02 -0.48746142072E+02  0.18316147534E+02  0.60079800564E+02  0.51100000000E-03 0. -1.
         22    1    1    0    0    0  0.22316047047E+02  0.19378215060E+02 -0.15977121848E+00  0.29555823480E+02  0.00000000000E+00 0. -1.
</event>
<event>
 5    1  0.8863861E-005  0.9118800E+02  0.7818608E-02  0.1130116E+00
         25   -1    0    0    0    0  0.00000000000E+00  0.00000000000E+00  0.99999998245E-14  0.12500000000E+03  0.12500000000E+03 0.  0.
        -11    1    3    3    0    0  0.45150294457E+02  0.60621808759E+01 -0.21611536883E+02  0.50421797402E+02  0.51100000000E-03 0.  1.
         23    2    1    0    0    0  0.17167886819E+02 -0.22577982619E+02  0.13956770164E+01  0.96601944586E+02  0.92333559156E+02 0.  0.
         11    1    3    3    0    0 -0.27982407638E+02 -0.28640163495E+02  0.23007213899E+02  0.46180147184E+02  0.51100000000E-03 0. -1.
         22    1    1    0    0    0 -0.17167886819E+02  0.22577982619E+02 -0.13956770164E+01  0.28398055414E+02  0.00000000000E+00 0.  1.
</event>
<event>
 5    1  0.8863861E-005  0.9118800E+02  0.7818608E-02  0.1130116E+00
         25   -1    0    0    0    0  0.00000000000E+00  0.00000000000E+00  0.99999998245E-14  0.12500000000E+03  0.12500000000E+03 0.  0.
        -11    1    3    3    0    0  0.13306565609E+02  0.24825554749E+02  0.38202040912E+02  0.47463341507E+02  0.51100000000E-03 0.  1.
         23    2    1    0    0    0 -0.18238514585E+02  0.22425309040E+02  0.13069442060E+01  0.96064796476E+02  0.91603488575E+02 0.  0.
         11    1    3    3    0    0 -0.31545080194E+02 -0.24002457091E+01 -0.36895096706E+02  0.48601454969E+02  0.51100000000E-03 0. -1.
         22    1    1    0    0    0  0.18238514585E+02 -0.22425309040E+02 -0.13069442060E+01  0.28935203524E+02  0.00000000000E+00 0. -1.
</event>
<event>
 5    1  0.8863861E-005  0.9118800E+02  0.7818608E-02  0.1130116E+00
         25   -1    0    0    0    0  0.00000000000E+00  0.00000000000E+00  0.99999998245E-14  0.12500000000E+03  0.12500000000E+03 0.  0.
        -11    1    3    3    0    0  0.37243084818E+01  0.17188184373E+02 -0.53424073155E+02  0.56244428599E+02  0.51100000000E-03 0.  1.
         23    2    1    0    0    0  0.20608976221E+02  0.83692122575E+01 -0.18322070012E+02  0.96182091259E+02  0.91763406730E+02 0.  0.
         11    1    3    3    0    0  0.16884667739E+02 -0.88189721154E+01  0.35102003143E+02  0.39937662660E+02  0.51100000000E-03 0. -1.
         22    1    1    0    0    0 -0.20608976221E+02 -0.83692122575E+01  0.18322070012E+02  0.28817908741E+02  0.00000000000E+00 0.  1.
</event>
<event>
 5    1  0.8863861E-005  0.9118800E+02  0.7818608E-02  0.1130116E+00
         25   -1    0    0    0    0  0.00000000000E+00  0.00000000000E+00  0.99999998245E-14  0.12500000000E+03  0.12500000000E+03 0.  0.
        -11    1    3    3    0    0  0.23890451372E+02 -0.27478079205E+02  0.11644226943E+02  0.38228085551E+02  0.51100000000E-03 0.  1.
         23    2    1    0    0    0  0.22616461950E+01  0.85501372731E+01 -0.27778576618E+02  0.95847483646E+02  0.91306466975E+02 0.  0.
         11    1    3    3    0    0 -0.21628805177E+02  0.36028216478E+02 -0.39422803560E+02  0.57619398095E+02  0.51100000000E-03 0. -1.
         22    1    1    0    0    0 -0.22616461950E+01 -0.85501372731E+01  0.27778576618E+02  0.29152516354E+02  0.00000000000E+00 0. -1.
</event>
<event>
 5    1  0.8863861E-005  0.9118800E+02  0.7818608E-02  0.1130116E+00
         25   -1    0    0    0    0  0.00000000000E+00  0.00000000000E+00  0.99999998245E-14  0.12500000000E+03  0.12500000000E+03 0.  0.
        -11    1    3    3    0    0 -0.50018260728E+02  0.19479492705E+01  0.34603405321E+02  0.60852416326E+02  0.51100000000E-03 0.  1.
         23    2    1    0    0    0 -0.20804826009E+02 -0.77797488406E+01  0.20705660029E+02  0.94634071157E+02  0.89629893390E+02 0.  0.
         11    1    3    3    0    0  0.29213434720E+02 -0.97276981110E+01 -0.13897745292E+02  0.33781654831E+02  0.51100000000E-03 0. -1.
         22    1    1    0    0    0  0.20804826009E+02  0.77797488406E+01 -0.20705660029E+02  0.30365928843E+02  0.00000000000E+00 0.  1.
</event>
<event>
 5    1  0.8863861E-005  0.9118800E+02  0.7818608E-02  0.1130116E+00
         25   -1    0    0    0    0  0.00000000000E+00  0.00000000000E+00  0.99999998245E-14  0.12500000000E+03  0.12500000000E+03 0.  0.
        -11    1    3    3    0    0 -0.74259704540E+01 -0.17079578004E+02  0.38279052817E+02  0.42569271861E+02  0.51100000000E-03 0. -1.
         23    2    1    0    0    0 -0.18228911603E+01  0.27522433173E+02  0.10087444550E+02  0.95630563548E+02  0.91009015416E+02 0.  0.
         11    1    3    3    0    0  0.56030792937E+01  0.44602011177E+02 -0.28191608267E+02  0.53061291687E+02  0.51100000000E-03 0.  1.
         22    1    1    0    0    0  0.18228911603E+01 -0.27522433173E+02 -0.10087444550E+02  0.29369436452E+02  0.00000000000E+00 0.  1.
</event>
<event>
 5    1  0.8863861E-005  0.9118800E+02  0.7818608E-02  0.1130116E+00
         25   -1    0    0    0    0  0.00000000000E+00  0.00000000000E+00  0.99999998245E-14  0.12500000000E+03  0.12500000000E+03 0.  0.
        -11    1    3    3    0    0  0.36330684889E+02  0.31485653210E+02  0.87428224447E+01  0.48864117378E+02  0.51100000000E-03 0.  1.
         23    2    1    0    0    0 -0.54435545643E+00  0.38125525987E+02  0.55634961934E+01  0.86466838378E+02  0.77406134089E+02 0.  0.
         11    1    3    3    0    0 -0.36875040345E+02  0.66398727768E+01 -0.31793262512E+01  0.37602721000E+02  0.51100000000E-03 0. -1.
         22    1    1    0    0    0  0.54435545643E+00 -0.38125525987E+02 -0.55634961934E+01  0.38533161622E+02  0.00000000000E+00 0.  1.
</event>
<event>
 5    1  0.8863861E-005  0.9118800E+02  0.7818608E-02  0.1130116E+00
         25   -1    0    0    0    0  0.00000000000E+00  0.00000000000E+00  0.99999998245E-14  0.12500000000E+03  0.12500000000E+03 0.  0.
        -11    1    3    3    0    0  0.12000587535E+02  0.53467991461E+02 -0.25627857543E+02  0.60494853455E+02  0.51100000000E-03 0.  1.
         23    2    1    0    0    0 -0.49563700303E+01  0.24735974376E+02 -0.15628062618E+02  0.95323909061E+02  0.90586849296E+02 0.  0.
         11    1    3    3    0    0 -0.16956957565E+02 -0.28732017085E+02  0.99997949246E+01  0.34829055606E+02  0.51100000000E-03 0. -1.
         22    1    1    0    0    0  0.49563700303E+01 -0.24735974376E+02  0.15628062618E+02  0.29676090939E+02  0.00000000000E+00 0.  1.
</event>
<event>
 5    1  0.8863861E-005  0.9118800E+02  0.7818608E-02  0.1130116E+00
         25   -1    0    0    0    0  0.00000000000E+00  0.00000000000E+00  0.99999998245E-14  0.12500000000E+03  0.12500000000E+03 0.  0.
        -11    1    3    3    0    0 -0.39843425405E+01 -0.32009871452E+02 -0.28042300297E+02  0.42741987110E+02  0.51100000000E-03 0.  1.
         23    2    1    0    0    0 -0.26512398066E+02 -0.39928523632E+01  0.11182906081E+02  0.95949913775E+02  0.91446587929E+02 0.  0.
         11    1    3    3    0    0 -0.22528055526E+02  0.28017019089E+02  0.39225206378E+02  0.53207926666E+02  0.51100000000E-03 0. -1.
         22    1    1    0    0    0  0.26512398066E+02  0.39928523632E+01 -0.11182906081E+02  0.29050086225E+02  0.00000000000E+00 0. -1.
</event>
<event>
 5    1  0.8863861E-005  0.9118800E+02  0.7818608E-02  0.1130116E+00
         25   -1    0    0    0    0  0.00000000000E+00  0.00000000000E+00  0.99999998245E-14  0.12500000000E+03  0.12500000000E+03 0.  0.
        -11    1    3    3    0    0  0.61175580573E+02  0.45503367304E+01  0.15711288992E+01  0.61364693995E+02  0.51100000000E-03 0. -1.
         23    2    1    0    0    0  0.28734588041E+02 -0.36582611748E+01  0.68309136904E+01  0.95238938081E+02  0.90469522604E+02 0.  0.
         11    1    3    3    0    0 -0.32440992532E+02 -0.82085979052E+01  0.52597847912E+01  0.33874244085E+02  0.51100000000E-03 0.  1.
         22    1    1    0    0    0 -0.28734588041E+02  0.36582611748E+01 -0.68309136904E+01  0.29761061919E+02  0.00000000000E+00 0. -1.
</event>
<event>
 5    1  0.8863861E-005  0.9118800E+02  0.7818608E-02  0.1130116E+00
         25   -1    0    0    0    0  0.00000000000E+00  0.00000000000E+00  0.99999998245E-14  0.12500000000E+03  0.12500000000E+03 0.  0.
        -11    1    3    3    0    0 -0.53562650170E+01  0.45167554538E+02 -0.33366212571E+02  0.56410120541E+02  0.51100000000E-03 0. -1.
         23    2    1    0    0    0 -0.19797996090E+02  0.22296272067E+02 -0.66063971544E+01  0.94459389649E+02  0.89385946392E+02 0.  0.
         11    1    3    3    0    0 -0.14441731073E+02 -0.22871282471E+02  0.26759815417E+02  0.38049269108E+02  0.51100000000E-03 0.  1.
         22    1    1    0    0    0  0.19797996090E+02 -0.22296272067E+02  0.66063971544E+01  0.30540610351E+02  0.00000000000E+00 0. -1.
</event>
<event>
 5    1  0.8863861E-005  0.9118800E+02  0.7818608E-02  0.1130116E+00
         25   -1    0    0    0    0  0.00000000000E+00  0.00000000000E+00  0.99999998245E-14  0.12500000000E+03  0.12500000000E+03 0.  0.
        -11    1    3    3    0    0  0.16022870961E+02  0.26170018866E+02  0.53397479635E+02  0.61586468586E+02  0.51100000000E-03 0. -1.
         23    2    1    0    0    0  0.60646527451E+01  0.15360601896E+02  0.40945959432E+02  0.80849125747E+02  0.67729472438E+02 0.  0.
         11    1    3    3    0    0 -0.99582182161E+01 -0.10809416970E+02 -0.12451520203E+02  0.19262657161E+02  0.51100000000E-03 0.  1.
         22    1    1    0    0    0 -0.60646527451E+01 -0.15360601896E+02 -0.40945959432E+02  0.44150874253E+02  0.00000000000E+00 0. -1.
</event>
<event>
 5    1  0.8863861E-005  0.9118800E+02  0.7818608E-02  0.1130116E+00
         25   -1    0    0    0    0  0.00000000000E+00  0.00000000000E+00  0.99999998245E-14  0.12500000000E+03  0.12500000000E+03 0.  0.
        -11    1    3    3    0    0  0.32337556465E+02 -0.31452284039E+01  0.82532781985E+01  0.33522031877E+02  0.51100000000E-03 0. -1.
         23    2    1    0    0    0 -0.24063543115E+02  0.16287540937E+02 -0.70311421215E+01  0.95103929078E+02  0.90282790550E+02 0.  0.
         11    1    3    3    0    0 -0.56401099580E+02  0.19432769341E+02 -0.15284420320E+02  0.61581897201E+02  0.51100000000E-03 0.  1.
         22    1    1    0    0    0  0.24063543115E+02 -0.16287540937E+02  0.70311421215E+01  0.29896070922E+02  0.00000000000E+00 0.  1.
</event>
<event>
 5    1  0.8863861E-005  0.9118800E+02  0.7818608E-02  0.1130116E+00
         25   -1    0    0    0    0  0.00000000000E+00  0.00000000000E+00  0.99999998245E-14  0.12500000000E+03  0.12500000000E+03 0.  0.
        -11    1    3    3    0    0 -0.22002473668E+02  0.11044877985E+02 -0.29179745205E+02  0.38177947924E+02  0.51100000000E-03 0.  1.
         23    2    1    0    0    0  0.16847309787E+02  0.14442252890E+02  0.15837219314E+02  0.97737791153E+02  0.93858658569E+02 0.  0.
         11    1    3    3    0    0  0.38849783456E+02  0.33973749053E+01  0.45016964518E+02  0.59559843229E+02  0.51100000000E-03 0. -1.
         22    1    1    0    0    0 -0.16847309787E+02 -0.14442252890E+02 -0.15837219314E+02  0.27262208847E+02  0.00000000000E+00 0. -1.
</event>
<event>
 5    1  0.8863861E-005  0.9118800E+02  0.7818608E-02  0.1130116E+00
         25   -1    0    0    0    0  0.00000000000E+00  0.00000000000E+00  0.99999998245E-14  0.12500000000E+03  0.12500000000E+03 0.  0.
        -11    1    3    3    0    0 -0.53001317008E+02 -0.26251036105E+02 -0.16343138573E+02  0.61362485933E+02  0.51100000000E-03 0.  1.
         23    2    1    0    0    0 -0.24320163503E+02 -0.13062541881E+02  0.98991875950E+00  0.97376092015E+02  0.93375708853E+02 0.  0.
         11    1    3    3    0    0  0.28681153506E+02  0.13188494224E+02  0.17333057333E+02  0.36013606082E+02  0.51100000000E-03 0. -1.
         22    1    1    0    0    0  0.24320163503E+02  0.13062541881E+02 -0.98991875950E+00  0.27623907985E+02  0.00000000000E+00 0.  1.
</event>
<event>
 5    1  0.8863861E-005  0.9118800E+02  0.7818608E-02  0.1130116E+00
         25   -1    0    0    0    0  0.00000000000E+00  0.00000000000E+00  0.99999998245E-14  0.12500000000E+03  0.12500000000E+03 0.  0.
        -11    1    3    3    0    0  0.53189697201E+02 -0.74492843379E+01 -0.25413922073E+02  0.59418037336E+02  0.51100000000E-03 0. -1.
         23    2    1    0    0    0  0.20669120060E+02  0.81198093911E+01 -0.18425699928E+02  0.96144320378E+02  0.91711940851E+02 0.  0.
         11    1    3    3    0    0 -0.32520577141E+02  0.15569093729E+02  0.69882221455E+01  0.36726283043E+02  0.51100000000E-03 0.  1.
         22    1    1    0    0    0 -0.20669120060E+02 -0.81198093911E+01  0.18425699928E+02  0.28855679622E+02  0.00000000000E+00 0. -1.
</event>
<event>
 5    1  0.8863861E-005  0.9118800E+02  0.7818608E-02  0.1130116E+00
         25   -1    0    0    0    0  0.00000000000E+00  0.00000000000E+00  0.99999998245E-14  0.12500000000E+03  0.12500000000E+03 0.  0.
        -11    1    3    3    0    0  0.47340241008E+02  0.20219343228E+02  0.23908652005E+02  0.56758646040E+02  0.51100000000E-03 0.  1.
         23    2    1    0    0    0  0.26607417535E+02 -0.87238818987E+01  0.71954614205E+01  0.96089181120E+02  0.91636757253E+02 0.  0.
         11    1    3    3    0    0 -0.20732823473E+02 -0.28943225127E+02 -0.16713190585E+02  0.39330535080E+02  0.51100000000E-03 0. -1.
         22    1    1    0    0    0 -0.26607417535E+02  0.87238818987E+01 -0.71954614205E+01  0.28910818880E+02  0.00000000000E+00 0. -1.
</event>
<event>
 5    1  0.8863861E-005  0.9118800E+02  0.7818608E-02  0.1130116E+00
         25   -1    0    0    0    0  0.00000000000E+00  0.00000000000E+00  0.99999998245E-14  0.12500000000E+03  0.12500000000E+03 0.  0.
        -11    1    3    3    0    0  0.11713260664E+02 -0.21486300316E+02 -0.22645194174E+02  0.33341661568E+02  0.51100000000E-03 0. -1.
         23    2    1    0    0    0 -0.10211446295E+02  0.20115506590E+02  0.18499303834E+02  0.95825842203E+02  0.91276834689E+02 0.  0.
         11    1    3    3    0    0 -0.21924706959E+02  0.41601806906E+02  0.41144498009E+02  0.62484180635E+02  0.51100000000E-03 0.  1.
         22    1    1    0    0    0  0.10211446295E+02 -0.20115506590E+02 -0.18499303834E+02  0.29174157797E+02  0.00000000000E+00 0.  1.
</event>
<event>
 5    1  0.8863861E-005  0.9118800E+02  0.7818608E-02  0.1130116E+00
         25   -1    0    0    0    0  0.00000000000E+00  0.00000000000E+00  0.99999998245E-14  0.12500000000E+03  0.12500000000E+03 0.  0.
        -11    1    3    3    0    0  0.40726934025E+02 -0.70267844241E+01 -0.98815927775E+01  0.42493584580E+02  0.51100000000E-03 0.  1.
         23    2    1    0    0    0 -0.22133856864E+01 -0.22494792818E+02  0.18111459818E+02  0.96035543215E+02  0.91563561550E+02 0.  0.
         11    1    3    3    0    0 -0.42940319711E+02 -0.15468008394E+02  0.27993052595E+02  0.53541958635E+02  0.51100000000E-03 0. -1.
         22    1    1    0    0    0  0.22133856864E+01  0.22494792818E+02 -0.18111459818E+02  0.28964456785E+02  0.00000000000E+00 0. -1.
</event>
<event>
 5    1  0.8863861E-005  0.9118800E+02  0.7818608E-02  0.1130116E+00
         25   -1    0    0    0    0  0.00000000000E+00  0.00000000000E+00  0.99999998245E-14  0.12500000000E+03  0.12500000000E+03 0.  0.
        -11    1    3    3    0    0  0.47033967600E+01  0.54370458852E+02 -0.22736771060E+02  0.59120465960E+02  0.51100000000E-03 0.  1.
         23    2    1    0    0    0 -0.97492574324E+01  0.27080311371E+02 -0.23530541773E+01  0.96122185879E+02  0.91681767379E+02 0.  0.
         11    1    3    3    0    0 -0.14452654192E+02 -0.27290147481E+02  0.20383716882E+02  0.37001719919E+02  0.51100000000E-03 0. -1.
         22    1    1    0    0    0  0.97492574324E+01 -0.27080311371E+02  0.23530541773E+01  0.28877814121E+02  0.00000000000E+00 0.  1.
</event>
<event>
 5    1  0.8863861E-005  0.9118800E+02  0.7818608E-02  0.1130116E+00
         25   -1    0    0    0    0  0.00000000000E+00  0.00000000000E+00  0.99999998245E-14  0.12500000000E+03  0.12500000000E+03 0.  0.
        -11    1    3    3    0    0 -0.27866171266E+02 -0.16680333291E+02  0.15868825609E+02  0.36146599372E+02  0.51100000000E-03 0. -1.
         23    2    1    0    0    0  0.16549350131E+02  0.57207891826E+00 -0.22318475723E+02  0.97209306906E+02  0.93152169736E+02 0.  0.
         11    1    3    3    0    0  0.44415521397E+02  0.17252412209E+02 -0.38187301332E+02  0.61062707533E+02  0.51100000000E-03 0.  1.
         22    1    1    0    0    0 -0.16549350131E+02 -0.57207891826E+00  0.22318475723E+02  0.27790693094E+02  0.00000000000E+00 0.  1.
</event>
<event>
 5    1  0.8863861E-005  0.9118800E+02  0.7818608E-02  0.1130116E+00
         25   -1    0    0    0    0  0.00000000000E+00  0.00000000000E+00  0.99999998245E-14  0.12500000000E+03  0.12500000000E+03 0.  0.
        -11    1    3    3    0    0 -0.11385164742E+02 -0.83957125060E+01 -0.18316855875E+02  0.23143404548E+02  0.51100000000E-03 0. -1.
         23    2    1    0    0    0 -0.15854230188E+01  0.33394973226E+02  0.24329975341E+02  0.83651656587E+02  0.72718045537E+02 0.  0.
         11    1    3    3    0    0  0.97997417229E+01  0.41790685732E+02  0.42646831216E+02  0.60508252039E+02  0.51100000000E-03 0.  1.
         22    1    1    0    0    0  0.15854230188E+01 -0.33394973226E+02 -0.24329975341E+02  0.41348343413E+02  0.00000000000E+00 0.  1.
</event>
<event>
 5    1  0.8863861E-005  0.9118800E+02  0.7818608E-02  0.1130116E+00
         25   -1    0    0    0    0  0.00000000000E+00  0.00000000000E+00  0.99999998245E-14  0.12500000000E+03  0.12500000000E+03 0.  0.
        -11    1    3    3    0    0  0.35050541044E+02  0.11870681399E+02  0.26159927729E+02  0.45318818646E+02  0.51100000000E-03 0. -1.
         23    2    1    0    0    0 -0.12105727357E+02 -0.70964700745E+01  0.25200921432E+02  0.96155677104E+02  0.91727418343E+02 0.  0.
         11    1    3    3    0    0 -0.47156268401E+02 -0.18967151474E+02 -0.95900629705E+00  0.50836858458E+02  0.51100000000E-03 0.  1.
         22    1    1    0    0    0  0.12105727357E+02  0.70964700745E+01 -0.25200921432E+02  0.28844322896E+02  0.00000000000E+00 0.  1.
</event>
<event>
 5    1  0.8863861E-005  0.9118800E+02  0.7818608E-02  0.1130116E+00
         25   -1    0    0    0    0  0.00000000000E+00  0.00000000000E+00  0.99999998245E-14  0.12500000000E+03  0.12500000000E+03 0.  0.
        -11    1    3    3    0    0  0.18502480459E+02 -0.11108325192E+02 -0.44923516863E+02  0.49838329017E+02  0.51100000000E-03 0.  1.
         23    2    1    0    0    0  0.27074489413E+02  0.12277102747E+02 -0.82886792628E+01  0.94138090909E+02  0.88935497565E+02 0.  0.
         11    1    3    3    0    0  0.85720089544E+01  0.23385427939E+02  0.36634837600E+02  0.44299761891E+02  0.51100000000E-03 0. -1.
         22    1    1    0    0    0 -0.27074489413E+02 -0.12277102747E+02  0.82886792628E+01  0.30861909091E+02  0.00000000000E+00 0.  1.
</event>
<event>
 5    1  0.8863861E-005  0.9118800E+02  0.7818608E-02  0.1130116E+00
         25   -1    0    0    0    0  0.00000000000E+00  0.00000000000E+00  0.99999998245E-14  0.12500000000E+03  0.12500000000E+03 0.  0.
        -11    1    3    3    0    0 -0.38915974518E+02 -0.14934943543E+02 -0.47731074867E+01  0.41955788237E+02  0.51100000000E-03 0. -1.
         23    2    1    0    0    0  0.79127561403E+01 -0.31635480950E+02 -0.66920059345E+01  0.91710387384E+02  0.85455232994E+02 0.  0.
         11    1    3    3    0    0  0.46828730658E+02 -0.16700537408E+02 -0.19188984478E+01  0.49754599147E+02  0.51100000000E-03 0.  1.
         22    1    1    0    0    0 -0.79127561403E+01  0.31635480950E+02  0.66920059345E+01  0.33289612616E+02  0.00000000000E+00 0.  1.
</event>
<event>
 5    1  0.8863861E-005  0.9118800E+02  0.7818608E-02  0.1130116E+00
         25   -1    0    0    0    0  0.00000000000E+00  0.00000000000E+00  0.99999998245E-14  0.12500000000E+03  0.12500000000E+03 0.  0.
        -11    1    3    3    0    0  0.41889174142E+02 -0.16667739630E+02  0.31470539127E+02  0.54981008430E+02  0.51100000000E-03 0. -1.
         23    2    1    0    0    0  0.10488685662E+02 -0.26354627307E+02  0.74861482634E+01  0.95663651842E+02  0.91054450526E+02 0.  0.
         11    1    3    3    0    0 -0.31400488480E+02 -0.96868876768E+01 -0.23984390864E+02  0.40682643412E+02  0.51100000000E-03 0.  1.
         22    1    1    0    0    0 -0.10488685662E+02  0.26354627307E+02 -0.74861482634E+01  0.29336348158E+02  0.00000000000E+00 0.  1.
</event>
<event>
 5    1  0.8863861E-005  0.9118800E+02  0.7818608E-02  0.1130116E+00
         25   -1    0    0    0    0  0.00000000000E+00  0.00000000000E+00  0.99999998245E-14  0.12500000000E+03  0.12500000000E+03 0.  0.
        -11    1    3    3    0    0  0.11506249734E+02  0.26628742955E+02  0.24683311426E+01  0.29113165290E+02  0.51100000000E-03 0. -1.
         23    2    1    0    0    0 -0.20178273785E+02 -0.25421364526E+02  0.11188574284E+02  0.90669362054E+02  0.83918654145E+02 0.  0.
         11    1    3    3    0    0 -0.31684523519E+02 -0.52050107480E+02  0.87202431414E+01  0.61556196764E+02  0.51100000000E-03 0.  1.
         22    1    1    0    0    0  0.20178273785E+02  0.25421364526E+02 -0.11188574284E+02  0.34330637946E+02  0.00000000000E+00 0.  1.
</event>
<event>
 5    1  0.8863861E-005  0.9118800E+02  0.7818608E-02  0.1130116E+00
         25   -1    0    0    0    0  0.00000000000E+00  0.00000000000E+00  0.99999998245E-14  0.12500000000E+03  0.12500000000E+03 0.  0.
        -11    1    3    3    0    0  0.35027428847E+02  0.37063471210E+02 -0.47948281513E+01  0.51221207005E+02  0.51100000000E-03 0. -1.
         23    2    1    0    0    0 -0.81976569558E+01  0.28298851678E+02 -0.51358366654E+00  0.95533233057E+02  0.90875234604E+02 0.  0.
         11    1    3    3    0    0 -0.43225085803E+02 -0.87646195319E+01  0.42812444847E+01  0.44312026052E+02  0.51100000000E-03 0.  1.
         22    1    1    0    0    0  0.81976569558E+01 -0.28298851678E+02  0.51358366654E+00  0.29466766943E+02  0.00000000000E+00 0. -1.
</event>
<event>
 5    1  0.8863861E-005  0.9118800E+02  0.7818608E-02  0.1130116E+00
         25   -1    0    0    0    0  0.00000000000E+00  0.00000000000E+00  0.99999998245E-14  0.12500000000E+03  0.12500000000E+03 0.  0.
        -11    1    3    3    0    0 -0.10026422371E+02  0.35869652302E+02 -0.30189057704E+02  0.47943094467E+02  0.51100000000E-03 0. -1.
         23    2    1    0    0    0 -0.61401303949E+01  0.25564636012E+02  0.15187440977E+02  0.94637026181E+02  0.89634014443E+02 0.  0.
         11    1    3    3    0    0  0.38862919759E+01 -0.10305016289E+02  0.45376498681E+02  0.46693931713E+02  0.51100000000E-03 0.  1.
         22    1    1    0    0    0  0.61401303949E+01 -0.25564636012E+02 -0.15187440977E+02  0.30362973819E+02  0.00000000000E+00 0. -1.
</event>
<event>
 5    1  0.8863861E-005  0.9118800E+02  0.7818608E-02  0.1130116E+00
         25   -1    0    0    0    0  0.00000000000E+00  0.00000000000E+00  0.99999998245E-14  0.12500000000E+03  0.12500000000E+03 0.  0.
        -11    1    3    3    0    0  0.17475773959E+02 -0.13734889815E+02 -0.47906718872E+02  0.52811964430E+02  0.51100000000E-03 0.  1.
         23    2    1    0    0    0  0.27842181254E+02 -0.10047758964E+02 -0.78150881009E+01  0.94385948991E+02  0.89283185694E+02 0.  0.
         11    1    3    3    0    0  0.10366407294E+02  0.36871308506E+01  0.40091630771E+02  0.41573984560E+02  0.51100000000E-03 0. -1.
         22    1    1    0    0    0 -0.27842181254E+02  0.10047758964E+02  0.78150881009E+01  0.30614051009E+02  0.00000000000E+00 0. -1.
</event>
<event>
 5    1  0.8863861E-005  0.9118800E+02  0.7818608E-02  0.1130116E+00
         25   -1    0    0    0    0  0.00000000000E+00  0.00000000000E+00  0.99999998245E-14  0.12500000000E+03  0.12500000000E+03 0.  0.
        -11    1    3    3    0    0  0.32811165798E+01 -0.44722208621E+02 -0.53916496766E+01  0.45165380065E+02  0.51100000000E-03 0.  1.
         23    2    1    0    0    0 -0.27956667974E+02 -0.77282036158E+01  0.70364794357E+01  0.95153518495E+02  0.90351422921E+02 0.  0.
         11    1    3    3    0    0 -0.31237784554E+02  0.36994005005E+02  0.12428129112E+02  0.49988138430E+02  0.51100000000E-03 0. -1.
         22    1    1    0    0    0  0.27956667974E+02  0.77282036158E+01 -0.70364794357E+01  0.29846481505E+02  0.00000000000E+00 0. -1.
</event>
<event>
 5    1  0.8863861E-005  0.9118800E+02  0.7818608E-02  0.1130116E+00
         25   -1    0    0    0    0  0.00000000000E+00  0.00000000000E+00  0.99999998245E-14  0.12500000000E+03  0.12500000000E+03 0.  0.
        -11    1    3    3    0    0  0.44006373790E+00  0.19031482505E+01  0.38734361928E+02  0.38783584460E+02  0.51100000000E-03 0.  1.
         23    2    1    0    0    0 -0.27006580206E+02 -0.24038896931E+00 -0.11166542230E+02  0.95774928116E+02  0.91207083217E+02 0.  0.
         11    1    3    3    0    0 -0.27446643944E+02 -0.21435372198E+01 -0.49900904158E+02  0.56991343655E+02  0.51100000000E-03 0. -1.
         22    1    1    0    0    0  0.27006580206E+02  0.24038896931E+00  0.11166542230E+02  0.29225071884E+02  0.00000000000E+00 0. -1.
</event>
<event>
 5    1  0.8863861E-005  0.9118800E+02  0.7818608E-02  0.1130116E+00
         25   -1    0    0    0    0  0.00000000000E+00  0.00000000000E+00  0.99999998245E-14  0.12500000000E+03  0.12500000000E+03 0.  0.
        -11    1    3    3    0    0  0.26381281427E+01  0.27032344620E+02 -0.37214196410E+02  0.46071724413E+02  0.51100000000E-03 0.  1.
         23    2    1    0    0    0 -0.28111357508E+02  0.22399841374E+02 -0.92694859050E+01  0.87879592089E+02  0.79654868164E+02 0.  0.
         11    1    3    3    0    0 -0.30749485651E+02 -0.46325032455E+01  0.27944710505E+02  0.41807867676E+02  0.51100000000E-03 0. -1.
         22    1    1    0    0    0  0.28111357508E+02 -0.22399841374E+02  0.92694859050E+01  0.37120407911E+02  0.00000000000E+00 0. -1.
</event>
<event>
 5    1  0.8863861E-005  0.9118800E+02  0.7818608E-02  0.1130116E+00
         25   -1    0    0    0    0  0.00000000000E+00  0.00000000000E+00  0.99999998245E-14  0.12500000000E+03  0.12500000000E+03 0.  0.
        -11    1    3    3    0    0  0.31675927842E+02  0.81972213572E+01 -0.44802329519E+02  0.55477991791E+02  0.51100000000E-03 0.  1.
         23    2    1    0    0    0 -0.75152466297E+00 -0.12284520241E+02 -0.21123168302E+02  0.10055286385E+03  0.97535716342E+02 0.  0.
         11    1    3    3    0    0 -0.32427452505E+02 -0.20481741598E+02  0.23679161216E+02  0.45074872058E+02  0.51100000000E-03 0. -1.
         22    1    1    0    0    0  0.75152466297E+00  0.12284520241E+02  0.21123168302E+02  0.24447136151E+02  0.00000000000E+00 0.  1.
</event>
<event>
 5    1  0.8863861E-005  0.9118800E+02  0.7818608E-02  0.1130116E+00
         25   -1    0    0    0    0  0.00000000000E+00  0.00000000000E+00  0.99999998245E-14  0.12500000000E+03  0.12500000000E+03 0.  0.
        -11    1    3    3    0    0 -0.48639620163E+02 -0.16314878906E+02 -0.11623734311E+01  0.51316069954E+02  0.51100000000E-03 0.  1.
         23    2    1    0    0    0 -0.17934322122E+02  0.95544486297E+01 -0.20721914887E+02  0.95977161490E+02  0.91483825742E+02 0.  0.
         11    1    3    3    0    0  0.30705298041E+02  0.25869327536E+02 -0.19559541456E+02  0.44661091536E+02  0.51100000000E-03 0. -1.
         22    1    1    0    0    0  0.17934322122E+02 -0.95544486297E+01  0.20721914887E+02  0.29022838510E+02  0.00000000000E+00 0.  1.
</event>
<event>
 5    1  0.8863861E-005  0.9118800E+02  0.7818608E-02  0.1130116E+00
         25   -1    0    0    0    0  0.00000000000E+00  0.00000000000E+00  0.99999998245E-14  0.12500000000E+03  0.12500000000E+03 0.  0.
        -11    1    3    3    0    0 -0.52459120462E+02  0.43163785727E+01 -0.27510098124E+02  0.59391884485E+02  0.51100000000E-03 0.  1.
         23    2    1    0    0    0 -0.21720458771E+02  0.15422174032E+02 -0.94393891850E+01  0.96738297126E+02  0.92517967345E+02 0.  0.
         11    1    3    3    0    0  0.30738661691E+02  0.11105795460E+02  0.18070708939E+02  0.37346412641E+02  0.51100000000E-03 0. -1.
         22    1    1    0    0    0  0.21720458771E+02 -0.15422174032E+02  0.94393891850E+01  0.28261702874E+02  0.00000000000E+00 0.  1.
</event>
<event>
 5    1  0.8863861E-005  0.9118800E+02  0.7818608E-02  0.1130116E+00
         25   -1    0    0    0    0  0.00000000000E+00  0.00000000000E+00  0.99999998245E-14  0.12500000000E+03  0.12500000000E+03 0.  0.
        -11    1    3    3    0    0  0.35268818473E+02  0.47167594287E+02 -0.32724863412E+01  0.58986275306E+02  0.51100000000E-03 0.  1.
         23    2    1    0    0    0  0.11075181529E+02  0.25403704131E+02  0.11836697895E+02  0.94865049419E+02  0.89951444429E+02 0.  0.
         11    1    3    3    0    0 -0.24193636944E+02 -0.21763890157E+02  0.15109184236E+02  0.35878774113E+02  0.51100000000E-03 0. -1.
         22    1    1    0    0    0 -0.11075181529E+02 -0.25403704131E+02 -0.11836697895E+02  0.30134950581E+02  0.00000000000E+00 0.  1.
</event>
<event>
 5    1  0.8863861E-005  0.9118800E+02  0.7818608E-02  0.1130116E+00
         25   -1    0    0    0    0  0.00000000000E+00  0.00000000000E+00  0.99999998245E-14  0.12500000000E+03  0.12500000000E+03 0.  0.
        -11    1    3    3    0    0  0.57509143878E+02  0.10408624408E+02  0.99959178049E+01  0.59292153483E+02  0.51100000000E-03 0. -1.
         23    2    1    0    0    0  0.23794579961E+02  0.63823970352E+01  0.18376751579E+02  0.94265296064E+02  0.89114106717E+02 0.  0.
         11    1    3    3    0    0 -0.33714563917E+02 -0.40262273731E+01  0.83808337746E+01  0.34973142581E+02  0.51100000000E-03 0.  1.
         22    1    1    0    0    0 -0.23794579961E+02 -0.63823970352E+01 -0.18376751579E+02  0.30734703936E+02  0.00000000000E+00 0. -1.
</event>
<event>
 5    1  0.8863861E-005  0.9118800E+02  0.7818608E-02  0.1130116E+00
         25   -1    0    0    0    0  0.00000000000E+00  0.00000000000E+00  0.99999998245E-14  0.12500000000E+03  0.12500000000E+03 0.  0.
        -11    1    3    3    0    0  0.29266765979E+02  0.25774935720E+02 -0.48367283186E+01  0.39297389778E+02  0.51100000000E-03 0.  1.
         23    2    1    0    0    0  0.10517727158E+02 -0.27084654260E+02  0.23874496411E+01  0.95846938467E+02  0.91305720614E+02 0.  0.
         11    1    3    3    0    0 -0.18749038822E+02 -0.52859589980E+02  0.72241779596E+01  0.56549548690E+02  0.51100000000E-03 0. -1.
         22    1    1    0    0    0 -0.10517727158E+02  0.27084654260E+02 -0.23874496411E+01  0.29153061533E+02  0.00000000000E+00 0.  1.
</event>
<event>
 5    1  0.8863861E-005  0.9118800E+02  0.7818608E-02  0.1130116E+00
         25   -1    0    0    0    0  0.00000000000E+00  0.00000000000E+00  0.99999998245E-14  0.12500000000E+03  0.12500000000E+03 0.  0.
        -11    1    3    3    0    0 -0.16278415887E+02  0.24805230785E+02 -0.20439846170E+02  0.36028788626E+02  0.51100000000E-03 0.  1.
         23    2    1    0    0    0 -0.80889569199E+01 -0.26454712087E+02  0.92514168708E+01  0.95830294315E+02  0.91282931475E+02 0.  0.
         11    1    3    3    0    0  0.81894589674E+01 -0.51259942872E+02  0.29691263041E+02  0.59801505689E+02  0.51100000000E-03 0. -1.
         22    1    1    0    0    0  0.80889569199E+01  0.26454712087E+02 -0.92514168708E+01  0.29169705685E+02  0.00000000000E+00 0. -1.
</event>
<event>
 5    1  0.8863861E-005  0.9118800E+02  0.7818608E-02  0.1130116E+00
         25   -1    0    0    0    0  0.00000000000E+00  0.00000000000E+00  0.99999998245E-14  0.12500000000E+03  0.12500000000E+03 0.  0.
        -11    1    3    3    0    0  0.19317892616E+01  0.23709548910E+02 -0.26739567623E+02  0.35789369877E+02  0.51100000000E-03 0. -1.
         23    2    1    0    0    0  0.16503477983E+02 -0.15638789579E+02  0.17158692555E+02  0.96515666495E+02  0.92216683001E+02 0.  0.
         11    1    3    3    0    0  0.14571688721E+02 -0.39348338489E+02  0.43898260178E+02  0.60726296618E+02  0.51100000000E-03 0.  1.
         22    1    1    0    0    0 -0.16503477983E+02  0.15638789579E+02 -0.17158692555E+02  0.28484333505E+02  0.00000000000E+00 0.  1.
</event>
<event>
 5    1  0.8863861E-005  0.9118800E+02  0.7818608E-02  0.1130116E+00
         25   -1    0    0    0    0  0.00000000000E+00  0.00000000000E+00  0.99999998245E-14  0.12500000000E+03  0.12500000000E+03 0.  0.
        -11    1    3    3    0    0  0.41844097565E+02 -0.31844526432E+02 -0.15213239952E+02  0.54739793887E+02  0.51100000000E-03 0.  1.
         23    2    1    0    0    0  0.88624524848E+01 -0.26037990745E+02  0.89943165889E+01  0.96061828721E+02  0.91599438755E+02 0.  0.
         11    1    3    3    0    0 -0.32981645080E+02  0.58065356875E+01  0.24207556541E+02  0.41322034834E+02  0.51100000000E-03 0. -1.
         22    1    1    0    0    0 -0.88624524848E+01  0.26037990745E+02 -0.89943165889E+01  0.28938171279E+02  0.00000000000E+00 0.  1.
</event>
<event>
 5    1  0.8863861E-005  0.9118800E+02  0.7818608E-02  0.1130116E+00
         25   -1    0    0    0    0  0.00000000000E+00  0.00000000000E+00  0.99999998245E-14  0.12500000000E+03  0.12500000000E+03 0.  0.
        -11    1    3    3    0    0 -0.34089899103E+02  0.40281038428E+02  0.12973232044E+02  0.54341402518E+02  0.51100000000E-03 0.  1.
         23    2    1    0    0    0 -0.24477728469E+02  0.25910707647E+01  0.19264274708E+02  0.93743238831E+02  0.88378785394E+02 0.  0.
         11    1    3    3    0    0  0.96121706339E+01 -0.37689967663E+02  0.62910426645E+01  0.39401836313E+02  0.51100000000E-03 0. -1.
         22    1    1    0    0    0  0.24477728469E+02 -0.25910707647E+01 -0.19264274708E+02  0.31256761169E+02  0.00000000000E+00 0. -1.
</event>
<event>
 5    1  0.8863861E-005  0.9118800E+02  0.7818608E-02  0.1130116E+00
         25   -1    0    0    0    0  0.00000000000E+00  0.00000000000E+00  0.99999998245E-14  0.12500000000E+03  0.12500000000E+03 0.  0.
        -11    1    3    3    0    0 -0.26868016423E+02  0.28582645911E+02  0.36791464758E+02  0.53781686782E+02  0.51100000000E-03 0.  1.
         23    2    1    0    0    0 -0.28499172976E+02  0.10138773147E+01  0.47374008526E+01  0.96091977335E+02  0.91640571440E+02 0.  0.
         11    1    3    3    0    0 -0.16311565531E+01 -0.27568768597E+02 -0.32054063905E+02  0.42310290554E+02  0.51100000000E-03 0. -1.
         22    1    1    0    0    0  0.28499172976E+02 -0.10138773147E+01 -0.47374008526E+01  0.28908022665E+02  0.00000000000E+00 0.  1.
</event>
<event>
 5    1  0.8863861E-005  0.9118800E+02  0.7818608E-02  0.1130116E+00
         25   -1    0    0    0    0  0.00000000000E+00  0.00000000000E+00  0.99999998245E-14  0.12500000000E+03  0.12500000000E+03 0.  0.
        -11    1    3    3    0    0  0.17631202723E+02 -0.53796906722E+02  0.11926664271E+02  0.57855093148E+02  0.51100000000E-03 0. -1.
         23    2    1    0    0    0 -0.48059865990E+01 -0.22465568860E+02  0.16574827986E+02  0.96671141672E+02  0.92427189820E+02 0.  0.
         11    1    3    3    0    0 -0.22437189322E+02  0.31331337861E+02  0.46481637141E+01  0.38816048524E+02  0.51100000000E-03 0.  1.
         22    1    1    0    0    0  0.48059865990E+01  0.22465568860E+02 -0.16574827986E+02  0.28328858328E+02  0.00000000000E+00 0. -1.
</event>
<event>
 5    1  0.8863861E-005  0.9118800E+02  0.7818608E-02  0.1130116E+00
         25   -1    0    0    0    0  0.00000000000E+00  0.00000000000E+00  0.99999998245E-14  0.12500000000E+03  0.12500000000E+03 0.  0.
        -11    1    3    3    0    0 -0.19409533329E+02  0.17974994291E+02 -0.27312723166E+02  0.38023877377E+02  0.51100000000E-03 0.  1.
         23    2    1    0    0    0  0.27104054127E+02  0.40706632351E+01  0.60529579899E+01  0.96931541729E+02  0.92778690615E+02 0.  0.
         11    1    3    3    0    0  0.46513587456E+02 -0.13904331055E+02  0.33365681156E+02  0.58907664352E+02  0.51100000000E-03 0. -1.
         22    1    1    0    0    0 -0.27104054127E+02 -0.40706632351E+01 -0.60529579899E+01  0.28068458271E+02  0.00000000000E+00 0. -1.
</event>
<event>
 5    1  0.8863861E-005  0.9118800E+02  0.7818608E-02  0.1130116E+00
         25   -1    0    0    0    0  0.00000000000E+00  0.00000000000E+00  0.99999998245E-14  0.12500000000E+03  0.12500000000E+03 0.  0.
        -11    1    3    3    0    0  0.27595440277E+02  0.31769093945E+02  0.23100116573E+02  0.48004156488E+02  0.51100000000E-03 0.  1.
         23    2    1    0    0    0  0.47484376131E+01  0.20559438068E+02 -0.18610135974E+02  0.96865051725E+02  0.92689065867E+02 0.  0.
         11    1    3    3    0    0 -0.22847002664E+02 -0.11209655877E+02 -0.41710252547E+02  0.48860895238E+02  0.51100000000E-03 0. -1.
         22    1    1    0    0    0 -0.47484376131E+01 -0.20559438068E+02  0.18610135974E+02  0.28134948275E+02  0.00000000000E+00 0.  1.
</event>
<event>
 5    1  0.8863861E-005  0.9118800E+02  0.7818608E-02  0.1130116E+00
         25   -1    0    0    0    0  0.00000000000E+00  0.00000000000E+00  0.99999998245E-14  0.12500000000E+03  0.12500000000E+03 0.  0.
        -11    1    3    3    0    0  0.28411233280E+02 -0.12862334610E+02 -0.40171523765E+02  0.50856554641E+02  0.51100000000E-03 0.  1.
         23    2    1    0    0    0  0.23128206608E+02  0.13185859025E+02 -0.79313611273E+00  0.98365250442E+02  0.94690615218E+02 0.  0.
         11    1    3    3    0    0 -0.52830266712E+01  0.26048193634E+02  0.39378387652E+02  0.47508695801E+02  0.51100000000E-03 0. -1.
         22    1    1    0    0    0 -0.23128206608E+02 -0.13185859025E+02  0.79313611273E+00  0.26634749558E+02  0.00000000000E+00 0. -1.
</event>
<event>
 5    1  0.8863861E-005  0.9118800E+02  0.7818608E-02  0.1130116E+00
         25   -1    0    0    0    0  0.00000000000E+00  0.00000000000E+00  0.99999998245E-14  0.12500000000E+03  0.12500000000E+03 0.  0.
        -11    1    3    3    0    0  0.17520249991E+02 -0.50869053894E+02 -0.73093879483E+01  0.54295920254E+02  0.51100000000E-03 0. -1.
         23    2    1    0    0    0  0.30381432398E+01 -0.19398221197E+02  0.18908085035E+02  0.97741295342E+02  0.93863325295E+02 0.  0.
         11    1    3    3    0    0 -0.14482106752E+02  0.31470832697E+02  0.26217472983E+02  0.43445375087E+02  0.51100000000E-03 0.  1.
         22    1    1    0    0    0 -0.30381432398E+01  0.19398221197E+02 -0.18908085035E+02  0.27258704658E+02  0.00000000000E+00 0. -1.
</event>
<event>
 5    1  0.8863861E-005  0.9118800E+02  0.7818608E-02  0.1130116E+00
         25   -1    0    0    0    0  0.00000000000E+00  0.00000000000E+00  0.99999998245E-14  0.12500000000E+03  0.12500000000E+03 0.  0.
        -11    1    3    3    0    0 -0.70929267870E+01  0.37950878982E+02 -0.48839325345E+02  0.62256393458E+02  0.51100000000E-03 0.  1.
         23    2    1    0    0    0 -0.30255162409E+01  0.31258933202E+02 -0.36766810628E+02  0.76646375346E+02  0.59469268000E+02 0.  0.
         11    1    3    3    0    0  0.40674105461E+01 -0.66919457804E+01  0.12072514717E+02  0.14389981888E+02  0.51100000000E-03 0. -1.
         22    1    1    0    0    0  0.30255162409E+01 -0.31258933202E+02  0.36766810628E+02  0.48353624654E+02  0.00000000000E+00 0.  1.
</event>
